<event>
 7    1  0.5041278E-013  0.5052888E+02  0.7816164E-02  0.1300439E+00
        -11   -1    0    0    0    0  0.00000000000E+00  0.00000000000E+00  0.45593999997E+02  0.45594000000E+02  0.51100000000E-03 0.  1.
         11   -1    0    0    0    0 -0.00000000000E+00 -0.00000000000E+00 -0.45593999997E+02  0.45594000000E+02  0.51100000000E-03 0. -1.
    9900012    2    1    2    0    0 -0.24789432360E+02 -0.26342838766E+02 -0.18566174776E+02  0.50528881013E+02  0.30000064327E+02 0.  0.
        -12    1    1    2    0    0  0.24789432360E+02  0.26342838766E+02  0.18566174776E+02  0.40659118987E+02  0.00000000000E+00 0.  1.
         11    1    3    3    0    0  0.31816664347E+01 -0.13901506380E+01 -0.18782740694E+01  0.39475858241E+01  0.51100000000E-03 0. -1.
        -11    1    3    3    0    0  0.28556365834E+01 -0.49563507012E+01 -0.60546659164E+01  0.83294088740E+01  0.51100000000E-03 0.  1.
         12    1    3    3    0    0 -0.30826735378E+02 -0.19996337427E+02 -0.10633234790E+02  0.38251886315E+02  0.00000000000E+00 0. -1.
</event>
<event>
 7    1  0.5041278E-013  0.5052883E+02  0.7816164E-02  0.1300439E+00
        -11   -1    0    0    0    0  0.00000000000E+00  0.00000000000E+00  0.45593999997E+02  0.45594000000E+02  0.51100000000E-03 0.  1.
         11   -1    0    0    0    0 -0.00000000000E+00 -0.00000000000E+00 -0.45593999997E+02  0.45594000000E+02  0.51100000000E-03 0. -1.
    9900012    2    1    2    0    0 -0.45239423515E+01  0.29590599021E+02 -0.27515430026E+02  0.50528825213E+02  0.29999894718E+02 0.  0.
        -12    1    1    2    0    0  0.45239423515E+01 -0.29590599021E+02  0.27515430026E+02  0.40659174787E+02  0.00000000000E+00 0.  1.
         11    1    3    3    0    0 -0.76330950014E+01  0.57169785580E+01 -0.14747377722E+02  0.17562264463E+02  0.51100000000E-03 0. -1.
        -11    1    3    3    0    0  0.71956965904E+01  0.15706131704E+02 -0.15731131162E+02  0.23365125945E+02  0.51100000000E-03 0.  1.
         12    1    3    3    0    0 -0.40865439406E+01  0.81674887583E+01  0.29630788579E+01  0.96014348050E+01  0.00000000000E+00 0. -1.
</event>
<event>
 7    1  0.5041278E-013  0.5052887E+02  0.7816164E-02  0.1300439E+00
        -11   -1    0    0    0    0  0.00000000000E+00  0.00000000000E+00  0.45593999997E+02  0.45594000000E+02  0.51100000000E-03 0.  1.
         11   -1    0    0    0    0 -0.00000000000E+00 -0.00000000000E+00 -0.45593999997E+02  0.45594000000E+02  0.51100000000E-03 0. -1.
    9900012    2    1    2    0    0 -0.26292798622E+02  0.20502698650E+02 -0.23270007991E+02  0.50528865931E+02  0.30000018484E+02 0.  0.
        -12    1    1    2    0    0  0.26292798622E+02 -0.20502698650E+02  0.23270007991E+02  0.40659134069E+02  0.00000000000E+00 0.  1.
         11    1    3    3    0    0 -0.20780393805E+02 -0.18073579056E+01 -0.91526526976E+01  0.22778550458E+02  0.51100000000E-03 0.  1.
        -11    1    3    3    0    0 -0.39019475773E+01  0.81464252502E+01 -0.85785563400E+01  0.12457169357E+02  0.51100000000E-03 0. -1.
        -12    1    3    3    0    0 -0.16104572395E+01  0.14163631305E+02 -0.55387989538E+01  0.15293146116E+02  0.00000000000E+00 0.  1.
</event>
<event>
 7    1  0.5041278E-013  0.5052893E+02  0.7816164E-02  0.1300439E+00
        -11   -1    0    0    0    0  0.00000000000E+00  0.00000000000E+00  0.45593999997E+02  0.45594000000E+02  0.51100000000E-03 0.  1.
         11   -1    0    0    0    0 -0.00000000000E+00 -0.00000000000E+00 -0.45593999997E+02  0.45594000000E+02  0.51100000000E-03 0. -1.
    9900012    2    1    2    0    0  0.12018687343E+02 -0.38654049135E+02  0.38178145260E+01  0.50528928839E+02  0.30000209697E+02 0.  0.
        -12    1    1    2    0    0 -0.12018687343E+02  0.38654049135E+02 -0.38178145260E+01  0.40659071161E+02  0.00000000000E+00 0.  1.
         11    1    3    3    0    0  0.44635762674E+01 -0.19478918787E+02  0.43916939023E+01  0.20460663865E+02  0.51100000000E-03 0. -1.
        -11    1    3    3    0    0  0.11171865551E+02 -0.47592141156E+01  0.63143943755E+01  0.13686938134E+02  0.51100000000E-03 0.  1.
         12    1    3    3    0    0 -0.36167544752E+01 -0.14415916232E+02 -0.68882737519E+01  0.16381326840E+02  0.00000000000E+00 0. -1.
</event>
<event>
 7    1  0.5041278E-013  0.5052886E+02  0.7816164E-02  0.1300439E+00
        -11   -1    0    0    0    0  0.00000000000E+00  0.00000000000E+00  0.45593999997E+02  0.45594000000E+02  0.51100000000E-03 0. -1.
         11   -1    0    0    0    0 -0.00000000000E+00 -0.00000000000E+00 -0.45593999997E+02  0.45594000000E+02  0.51100000000E-03 0.  1.
    9900012    2    1    2    0    0  0.30100336584E+02 -0.27072689445E+02 -0.37689364677E+01  0.50528860088E+02  0.30000000725E+02 0.  0.
        -12    1    1    2    0    0 -0.30100336584E+02  0.27072689445E+02  0.37689364677E+01  0.40659139912E+02  0.00000000000E+00 0.  1.
         11    1    3    3    0    0  0.93834217795E+01  0.39721286914E+01  0.15664771537E+01  0.10309231861E+02  0.51100000000E-03 0. -1.
        -11    1    3    3    0    0  0.17147982777E+02 -0.20583029311E+02  0.21398183893E+01  0.26875513613E+02  0.51100000000E-03 0.  1.
        -12    1    3    3    0    0  0.35689320282E+01 -0.10461788825E+02 -0.74752320108E+01  0.13344114615E+02  0.00000000000E+00 0.  1.
</event>
<event>
 7    1  0.5041278E-013  0.5052886E+02  0.7816164E-02  0.1300439E+00
        -11   -1    0    0    0    0  0.00000000000E+00  0.00000000000E+00  0.45593999997E+02  0.45594000000E+02  0.51100000000E-03 0. -1.
         11   -1    0    0    0    0 -0.00000000000E+00 -0.00000000000E+00 -0.45593999997E+02  0.45594000000E+02  0.51100000000E-03 0.  1.
    9900012    2    1    2    0    0  0.24876478157E+02 -0.13033875353E+01  0.32134528586E+02  0.50528856969E+02  0.29999991242E+02 0.  0.
        -12    1    1    2    0    0 -0.24876478157E+02  0.13033875353E+01 -0.32134528586E+02  0.40659143031E+02  0.00000000000E+00 0.  1.
         11    1    3    3    0    0  0.20609189846E+02  0.93515777600E-01  0.94740084142E+01  0.22682686944E+02  0.51100000000E-03 0. -1.
        -11    1    3    3    0    0  0.81942619633E+00  0.28452581411E+00 -0.23698264136E+01  0.25235870743E+01  0.51100000000E-03 0.  1.
         12    1    3    3    0    0  0.34478621148E+01 -0.16814291270E+01  0.25030346586E+02  0.25322582950E+02  0.00000000000E+00 0. -1.
</event>
<event>
 7    1  0.5041278E-013  0.5052885E+02  0.7816164E-02  0.1300439E+00
        -11   -1    0    0    0    0  0.00000000000E+00  0.00000000000E+00  0.45593999997E+02  0.45594000000E+02  0.51100000000E-03 0.  1.
         11   -1    0    0    0    0 -0.00000000000E+00 -0.00000000000E+00 -0.45593999997E+02  0.45594000000E+02  0.51100000000E-03 0. -1.
    9900012    2    1    2    0    0 -0.83610914110E+01  0.38204264548E+02 -0.11121710355E+02  0.50528854406E+02  0.29999983453E+02 0.  0.
        -12    1    1    2    0    0  0.83610914110E+01 -0.38204264548E+02  0.11121710355E+02  0.40659145594E+02  0.00000000000E+00 0.  1.
         11    1    3    3    0    0  0.68479136754E+01  0.15046311870E+02 -0.67984711538E+00  0.16545320032E+02  0.51100000000E-03 0. -1.
        -11    1    3    3    0    0  0.11009250724E+01 -0.16576184432E+00 -0.48533124268E+01  0.49793729301E+01  0.51100000000E-03 0.  1.
        -12    1    3    3    0    0 -0.16309930159E+02  0.23323714522E+02 -0.55885508126E+01  0.29004161444E+02  0.00000000000E+00 0.  1.
</event>
<event>
 7    1  0.5041278E-013  0.5052886E+02  0.7816164E-02  0.1300439E+00
        -11   -1    0    0    0    0  0.00000000000E+00  0.00000000000E+00  0.45593999997E+02  0.45594000000E+02  0.51100000000E-03 0. -1.
         11   -1    0    0    0    0 -0.00000000000E+00 -0.00000000000E+00 -0.45593999997E+02  0.45594000000E+02  0.51100000000E-03 0.  1.
    9900012    2    1    2    0    0 -0.14196025992E+02 -0.38094152976E+02  0.68832743724E+00  0.50528862779E+02  0.30000008902E+02 0.  0.
        -12    1    1    2    0    0  0.14196025992E+02  0.38094152976E+02 -0.68832743724E+00  0.40659137221E+02  0.00000000000E+00 0.  1.
         11    1    3    3    0    0 -0.34857472217E+01 -0.79989499578E+01 -0.18732338050E+01  0.89242724784E+01  0.51100000000E-03 0. -1.
        -11    1    3    3    0    0 -0.47438365616E+01  0.41284595688E+01  0.27512397274E+01  0.68642176563E+01  0.51100000000E-03 0.  1.
         12    1    3    3    0    0 -0.59664422086E+01 -0.34223662587E+02 -0.18967848521E+00  0.34740372644E+02  0.00000000000E+00 0. -1.
</event>
<event>
 7    1  0.5041278E-013  0.5052884E+02  0.7816164E-02  0.1300439E+00
        -11   -1    0    0    0    0  0.00000000000E+00  0.00000000000E+00  0.45593999997E+02  0.45594000000E+02  0.51100000000E-03 0.  1.
         11   -1    0    0    0    0 -0.00000000000E+00 -0.00000000000E+00 -0.45593999997E+02  0.45594000000E+02  0.51100000000E-03 0. -1.
    9900012    2    1    2    0    0 -0.74871741757E+01 -0.47603155793E+01 -0.39679323173E+02  0.50528842741E+02  0.29999947994E+02 0.  0.
        -12    1    1    2    0    0  0.74871741757E+01  0.47603155793E+01  0.39679323173E+02  0.40659157259E+02  0.00000000000E+00 0.  1.
         11    1    3    3    0    0 -0.37348155193E+01 -0.99650166566E+01 -0.12050254121E+02  0.16076660989E+02  0.51100000000E-03 0. -1.
        -11    1    3    3    0    0  0.48718246257E+01  0.95221799113E+01 -0.17134941022E+02  0.20199326462E+02  0.51100000000E-03 0.  1.
         12    1    3    3    0    0 -0.86241832822E+01 -0.43174788340E+01 -0.10494128031E+02  0.14252855289E+02  0.00000000000E+00 0. -1.
</event>
<event>
 7    1  0.5041278E-013  0.5052886E+02  0.7816164E-02  0.1300439E+00
        -11   -1    0    0    0    0  0.00000000000E+00  0.00000000000E+00  0.45593999997E+02  0.45594000000E+02  0.51100000000E-03 0. -1.
         11   -1    0    0    0    0 -0.00000000000E+00 -0.00000000000E+00 -0.45593999997E+02  0.45594000000E+02  0.51100000000E-03 0.  1.
    9900012    2    1    2    0    0 -0.14856521917E+02 -0.37605667322E+02  0.42735689791E+01  0.50528857731E+02  0.29999993560E+02 0.  0.
        -12    1    1    2    0    0  0.14856521917E+02  0.37605667322E+02 -0.42735689791E+01  0.40659142269E+02  0.00000000000E+00 0.  1.
         11    1    3    3    0    0 -0.57672394658E+00 -0.33842956287E+01  0.48071717953E+01  0.59071963184E+01  0.51100000000E-03 0. -1.
        -11    1    3    3    0    0  0.28874561241E+01 -0.17726669839E+01  0.64195877395E+01  0.72588468858E+01  0.51100000000E-03 0.  1.
         12    1    3    3    0    0 -0.17167254094E+02 -0.32448704710E+02 -0.69531905557E+01  0.37362814527E+02  0.00000000000E+00 0. -1.
</event>
<event>
 7    1  0.5041278E-013  0.5052887E+02  0.7816164E-02  0.1300439E+00
        -11   -1    0    0    0    0  0.00000000000E+00  0.00000000000E+00  0.45593999997E+02  0.45594000000E+02  0.51100000000E-03 0.  1.
         11   -1    0    0    0    0 -0.00000000000E+00 -0.00000000000E+00 -0.45593999997E+02  0.45594000000E+02  0.51100000000E-03 0. -1.
    9900012    2    1    2    0    0  0.14923807643E+02 -0.12033749975E+02 -0.35855733216E+02  0.50528870921E+02  0.30000033650E+02 0.  0.
        -12    1    1    2    0    0 -0.14923807643E+02  0.12033749975E+02  0.35855733216E+02  0.40659129079E+02  0.00000000000E+00 0.  1.
         11    1    3    3    0    0  0.10749083523E+02 -0.10715479105E+02 -0.25601024604E+02  0.29762001782E+02  0.51100000000E-03 0. -1.
        -11    1    3    3    0    0  0.10629857755E+02  0.13339686921E+01 -0.82020982399E+01  0.13492507704E+02  0.51100000000E-03 0.  1.
        -12    1    3    3    0    0 -0.64551336346E+01 -0.26522395622E+01 -0.20526103726E+01  0.72743614344E+01  0.00000000000E+00 0.  1.
</event>
<event>
 7    1  0.5041278E-013  0.5052886E+02  0.7816164E-02  0.1300439E+00
        -11   -1    0    0    0    0  0.00000000000E+00  0.00000000000E+00  0.45593999997E+02  0.45594000000E+02  0.51100000000E-03 0. -1.
         11   -1    0    0    0    0 -0.00000000000E+00 -0.00000000000E+00 -0.45593999997E+02  0.45594000000E+02  0.51100000000E-03 0.  1.
    9900012    2    1    2    0    0  0.27383477573E+02 -0.73543660504E+01  0.29141451185E+02  0.50528859317E+02  0.29999998379E+02 0.  0.
        -12    1    1    2    0    0 -0.27383477573E+02  0.73543660504E+01 -0.29141451185E+02  0.40659140683E+02  0.00000000000E+00 0.  1.
         11    1    3    3    0    0  0.11322434165E+02 -0.10394428976E+02  0.13825901277E+02  0.20673587389E+02  0.51100000000E-03 0. -1.
        -11    1    3    3    0    0 -0.10530425487E+01 -0.54416361209E+01  0.28493053341E+00  0.55499088238E+01  0.51100000000E-03 0.  1.
         12    1    3    3    0    0  0.17114085957E+02  0.84816990464E+01  0.15030619374E+02  0.24305363104E+02  0.00000000000E+00 0. -1.
</event>
<event>
 7    1  0.5041278E-013  0.5052886E+02  0.7816164E-02  0.1300439E+00
        -11   -1    0    0    0    0  0.00000000000E+00  0.00000000000E+00  0.45593999997E+02  0.45594000000E+02  0.51100000000E-03 0. -1.
         11   -1    0    0    0    0 -0.00000000000E+00 -0.00000000000E+00 -0.45593999997E+02  0.45594000000E+02  0.51100000000E-03 0.  1.
    9900012    2    1    2    0    0 -0.39642539018E+02 -0.42510265431E+01  0.79726492271E+01  0.50528864961E+02  0.30000015535E+02 0.  0.
        -12    1    1    2    0    0  0.39642539018E+02  0.42510265431E+01 -0.79726492271E+01  0.40659135039E+02  0.00000000000E+00 0.  1.
         11    1    3    3    0    0 -0.69491280870E+01  0.52003899226E+01  0.40439633165E+01  0.95753890826E+01  0.51100000000E-03 0. -1.
        -11    1    3    3    0    0  0.92254717445E+00  0.21681514611E+01 -0.38794935821E+01  0.45389916019E+01  0.51100000000E-03 0.  1.
         12    1    3    3    0    0 -0.33615958105E+02 -0.11619567927E+02  0.78081794927E+01  0.36414484276E+02  0.00000000000E+00 0. -1.
</event>
<event>
 7    1  0.5041278E-013  0.5052892E+02  0.7816164E-02  0.1300439E+00
        -11   -1    0    0    0    0  0.00000000000E+00  0.00000000000E+00  0.45593999997E+02  0.45594000000E+02  0.51100000000E-03 0.  1.
         11   -1    0    0    0    0 -0.00000000000E+00 -0.00000000000E+00 -0.45593999997E+02  0.45594000000E+02  0.51100000000E-03 0. -1.
    9900012    2    1    2    0    0  0.17798286133E+01 -0.34675739294E+02 -0.21156237808E+02  0.50528916345E+02  0.30000171722E+02 0.  0.
        -12    1    1    2    0    0 -0.17798286133E+01  0.34675739294E+02  0.21156237808E+02  0.40659083655E+02  0.00000000000E+00 0.  1.
         11    1    3    3    0    0  0.83442632721E+01 -0.13815547640E+02 -0.17389109300E+02  0.23725033375E+02  0.51100000000E-03 0. -1.
        -11    1    3    3    0    0  0.44114493323E+01 -0.23558645264E+01 -0.11404420677E+01  0.51294825517E+01  0.51100000000E-03 0.  1.
        -12    1    3    3    0    0 -0.10975883991E+02 -0.18504327127E+02 -0.26266864406E+01  0.21674400418E+02  0.00000000000E+00 0.  1.
</event>
<event>
 7    1  0.5041278E-013  0.5052889E+02  0.7816164E-02  0.1300439E+00
        -11   -1    0    0    0    0  0.00000000000E+00  0.00000000000E+00  0.45593999997E+02  0.45594000000E+02  0.51100000000E-03 0. -1.
         11   -1    0    0    0    0 -0.00000000000E+00 -0.00000000000E+00 -0.45593999997E+02  0.45594000000E+02  0.51100000000E-03 0.  1.
    9900012    2    1    2    0    0 -0.26322385474E+02  0.52741471834E+01  0.30536508820E+02  0.50528893068E+02  0.30000100971E+02 0.  0.
        -12    1    1    2    0    0  0.26322385474E+02 -0.52741471834E+01 -0.30536508820E+02  0.40659106932E+02  0.00000000000E+00 0.  1.
         11    1    3    3    0    0 -0.11649992604E+02 -0.16409245396E+00  0.21540573946E+02  0.24489703554E+02  0.51100000000E-03 0. -1.
        -11    1    3    3    0    0  0.21724589590E+01  0.49863371478E+01  0.72995459025E+01  0.91031042356E+01  0.51100000000E-03 0.  1.
        -12    1    3    3    0    0 -0.16844851829E+02  0.45190248955E+00  0.16963889713E+01  0.16936085278E+02  0.00000000000E+00 0.  1.
</event>
<event>
 7    1  0.5041278E-013  0.5052886E+02  0.7816164E-02  0.1300439E+00
        -11   -1    0    0    0    0  0.00000000000E+00  0.00000000000E+00  0.45593999997E+02  0.45594000000E+02  0.51100000000E-03 0.  1.
         11   -1    0    0    0    0 -0.00000000000E+00 -0.00000000000E+00 -0.45593999997E+02  0.45594000000E+02  0.51100000000E-03 0. -1.
    9900012    2    1    2    0    0 -0.37460633155E+02 -0.14851381751E+02 -0.54132016769E+01  0.50528864143E+02  0.30000013049E+02 0.  0.
        -12    1    1    2    0    0  0.37460633155E+02  0.14851381751E+02  0.54132016769E+01  0.40659135857E+02  0.00000000000E+00 0.  1.
         11    1    3    3    0    0 -0.21880088840E+00 -0.75779676616E+01 -0.65465730969E+01  0.10016540684E+02  0.51100000000E-03 0. -1.
        -11    1    3    3    0    0 -0.32288498993E+01 -0.33076652063E+01  0.40490921496E+01  0.61450197955E+01  0.51100000000E-03 0.  1.
        -12    1    3    3    0    0 -0.34012982367E+02 -0.39657488829E+01 -0.29157207296E+01  0.34367303663E+02  0.00000000000E+00 0.  1.
</event>
<event>
 7    1  0.5041278E-013  0.5052886E+02  0.7816164E-02  0.1300439E+00
        -11   -1    0    0    0    0  0.00000000000E+00  0.00000000000E+00  0.45593999997E+02  0.45594000000E+02  0.51100000000E-03 0.  1.
         11   -1    0    0    0    0 -0.00000000000E+00 -0.00000000000E+00 -0.45593999997E+02  0.45594000000E+02  0.51100000000E-03 0. -1.
    9900012    2    1    2    0    0 -0.23895804643E+02 -0.48734654856E+01 -0.32533141589E+02  0.50528862687E+02  0.30000008623E+02 0.  0.
        -12    1    1    2    0    0  0.23895804643E+02  0.48734654856E+01  0.32533141589E+02  0.40659137313E+02  0.00000000000E+00 0.  1.
         11    1    3    3    0    0 -0.57055652919E+01  0.11023790956E+02 -0.13756904221E+02  0.18529162322E+02  0.51100000000E-03 0. -1.
        -11    1    3    3    0    0 -0.47029434473E+01 -0.16071228714E+01 -0.22303516430E+00  0.49749639133E+01  0.51100000000E-03 0.  1.
        -12    1    3    3    0    0 -0.13487295904E+02 -0.14290133571E+02 -0.18553202204E+02  0.27024736451E+02  0.00000000000E+00 0.  1.
</event>
<event>
 7    1  0.5041278E-013  0.5052887E+02  0.7816164E-02  0.1300439E+00
        -11   -1    0    0    0    0  0.00000000000E+00  0.00000000000E+00  0.45593999997E+02  0.45594000000E+02  0.51100000000E-03 0.  1.
         11   -1    0    0    0    0 -0.00000000000E+00 -0.00000000000E+00 -0.45593999997E+02  0.45594000000E+02  0.51100000000E-03 0. -1.
    9900012    2    1    2    0    0  0.15970245353E+02  0.35721859487E+02 -0.11048287242E+02  0.50528872699E+02  0.30000039057E+02 0.  0.
        -12    1    1    2    0    0 -0.15970245353E+02 -0.35721859487E+02  0.11048287242E+02  0.40659127301E+02  0.00000000000E+00 0.  1.
         11    1    3    3    0    0  0.48283747807E+01  0.21281667045E+02  0.57406463231E+01  0.22564963454E+02  0.51100000000E-03 0. -1.
        -11    1    3    3    0    0 -0.43634600008E+00 -0.83490778596E+00 -0.57877427990E+01  0.58639096012E+01  0.51100000000E-03 0.  1.
         12    1    3    3    0    0  0.11578216572E+02  0.15275100228E+02 -0.11001190766E+02  0.22099999644E+02  0.00000000000E+00 0. -1.
</event>
<event>
 7    1  0.5041278E-013  0.5052886E+02  0.7816164E-02  0.1300439E+00
        -11   -1    0    0    0    0  0.00000000000E+00  0.00000000000E+00  0.45593999997E+02  0.45594000000E+02  0.51100000000E-03 0. -1.
         11   -1    0    0    0    0 -0.00000000000E+00 -0.00000000000E+00 -0.45593999997E+02  0.45594000000E+02  0.51100000000E-03 0.  1.
    9900012    2    1    2    0    0  0.29396792431E+02  0.22303804954E+02  0.17074389059E+02  0.50528857333E+02  0.29999992350E+02 0.  0.
        -12    1    1    2    0    0 -0.29396792431E+02 -0.22303804954E+02 -0.17074389059E+02  0.40659142667E+02  0.00000000000E+00 0.  1.
         11    1    3    3    0    0  0.83153615284E+01  0.12564669068E+02  0.17007448794E+02  0.22721563786E+02  0.51100000000E-03 0. -1.
        -11    1    3    3    0    0  0.16829687553E+02  0.12746526717E+02  0.37317881774E+01  0.21439183047E+02  0.51100000000E-03 0.  1.
        -12    1    3    3    0    0  0.42517433498E+01 -0.30073908305E+01 -0.36648479124E+01  0.63681105001E+01  0.00000000000E+00 0.  1.
</event>
<event>
 7    1  0.5041278E-013  0.5052886E+02  0.7816164E-02  0.1300439E+00
        -11   -1    0    0    0    0  0.00000000000E+00  0.00000000000E+00  0.45593999997E+02  0.45594000000E+02  0.51100000000E-03 0.  1.
         11   -1    0    0    0    0 -0.00000000000E+00 -0.00000000000E+00 -0.45593999997E+02  0.45594000000E+02  0.51100000000E-03 0. -1.
    9900012    2    1    2    0    0 -0.23332536538E+02  0.27006054287E+02 -0.19479001180E+02  0.50528859374E+02  0.29999998554E+02 0.  0.
        -12    1    1    2    0    0  0.23332536538E+02 -0.27006054287E+02  0.19479001180E+02  0.40659140626E+02  0.00000000000E+00 0.  1.
         11    1    3    3    0    0 -0.22649888243E+01  0.97958306973E+01 -0.63916653561E+01  0.11913935526E+02  0.51100000000E-03 0. -1.
        -11    1    3    3    0    0 -0.24010332775E+02  0.20376130586E+02 -0.92147766233E+01  0.32811505392E+02  0.51100000000E-03 0.  1.
        -12    1    3    3    0    0  0.29427850607E+01 -0.31659069965E+01 -0.38725592002E+01  0.58034184567E+01  0.00000000000E+00 0.  1.
</event>
<event>
 7    1  0.5041278E-013  0.5052886E+02  0.7816164E-02  0.1300439E+00
        -11   -1    0    0    0    0  0.00000000000E+00  0.00000000000E+00  0.45593999997E+02  0.45594000000E+02  0.51100000000E-03 0.  1.
         11   -1    0    0    0    0 -0.00000000000E+00 -0.00000000000E+00 -0.45593999997E+02  0.45594000000E+02  0.51100000000E-03 0. -1.
    9900012    2    1    2    0    0  0.19505481847E+02 -0.34749296615E+02  0.80739102506E+01  0.50528862478E+02  0.30000007987E+02 0.  0.
        -12    1    1    2    0    0 -0.19505481847E+02  0.34749296615E+02 -0.80739102506E+01  0.40659137522E+02  0.00000000000E+00 0.  1.
         11    1    3    3    0    0 -0.49404562240E+01 -0.92699221109E+01 -0.11331156829E+01  0.10565203030E+02  0.51100000000E-03 0. -1.
        -11    1    3    3    0    0  0.10915165339E+02 -0.19647418784E+02 -0.21087550843E+00  0.22476796213E+02  0.51100000000E-03 0.  1.
        -12    1    3    3    0    0  0.13530772731E+02 -0.58319557207E+01  0.94179014419E+01  0.17486863235E+02  0.00000000000E+00 0.  1.
</event>
<event>
 7    1  0.5041278E-013  0.5052887E+02  0.7816164E-02  0.1300439E+00
        -11   -1    0    0    0    0  0.00000000000E+00  0.00000000000E+00  0.45593999997E+02  0.45594000000E+02  0.51100000000E-03 0. -1.
         11   -1    0    0    0    0 -0.00000000000E+00 -0.00000000000E+00 -0.45593999997E+02  0.45594000000E+02  0.51100000000E-03 0.  1.
    9900012    2    1    2    0    0  0.20734116014E+02 -0.33088102184E+01  0.34818282880E+02  0.50528872923E+02  0.30000039737E+02 0.  0.
        -12    1    1    2    0    0 -0.20734116014E+02  0.33088102184E+01 -0.34818282880E+02  0.40659127077E+02  0.00000000000E+00 0.  1.
         11    1    3    3    0    0  0.14887842439E+01 -0.74235252681E+01  0.87952703274E+01  0.11605256840E+02  0.51100000000E-03 0. -1.
        -11    1    3    3    0    0  0.82217157942E+01  0.11704084752E+02  0.19081211080E+02  0.23846903930E+02  0.51100000000E-03 0.  1.
         12    1    3    3    0    0  0.11023615976E+02 -0.75893697024E+01  0.69418014722E+01  0.15076712153E+02  0.00000000000E+00 0. -1.
</event>
<event>
 7    1  0.5041278E-013  0.5052886E+02  0.7816164E-02  0.1300439E+00
        -11   -1    0    0    0    0  0.00000000000E+00  0.00000000000E+00  0.45593999997E+02  0.45594000000E+02  0.51100000000E-03 0. -1.
         11   -1    0    0    0    0 -0.00000000000E+00 -0.00000000000E+00 -0.45593999997E+02  0.45594000000E+02  0.51100000000E-03 0.  1.
    9900012    2    1    2    0    0 -0.36675123389E+02  0.17149149916E+02  0.37427089268E+01  0.50528857258E+02  0.29999992121E+02 0.  0.
        -12    1    1    2    0    0  0.36675123389E+02 -0.17149149916E+02 -0.37427089268E+01  0.40659142742E+02  0.00000000000E+00 0.  1.
         11    1    3    3    0    0 -0.25516105130E+02  0.14865340740E+02  0.12240457998E+02  0.31966838890E+02  0.51100000000E-03 0. -1.
        -11    1    3    3    0    0 -0.65987782567E+01 -0.68404073830E+00  0.18359000795E+01  0.68834813558E+01  0.51100000000E-03 0.  1.
        -12    1    3    3    0    0 -0.45602400015E+01  0.29678499149E+01 -0.10333649150E+02  0.11678537012E+02  0.00000000000E+00 0.  1.
</event>
<event>
 7    1  0.5041278E-013  0.5052888E+02  0.7816164E-02  0.1300439E+00
        -11   -1    0    0    0    0  0.00000000000E+00  0.00000000000E+00  0.45593999997E+02  0.45594000000E+02  0.51100000000E-03 0. -1.
         11   -1    0    0    0    0 -0.00000000000E+00 -0.00000000000E+00 -0.45593999997E+02  0.45594000000E+02  0.51100000000E-03 0.  1.
    9900012    2    1    2    0    0  0.24881041159E+02 -0.51692925921E+01  0.31739186021E+02  0.50528883872E+02  0.30000073016E+02 0.  0.
        -12    1    1    2    0    0 -0.24881041159E+02  0.51692925921E+01 -0.31739186021E+02  0.40659116128E+02  0.00000000000E+00 0.  1.
         11    1    3    3    0    0  0.82338318750E+01  0.30832922417E+00  0.17807971814E+02  0.19621796927E+02  0.51100000000E-03 0. -1.
        -11    1    3    3    0    0  0.21689903531E+02 -0.27849979706E+01  0.11275753553E+02  0.24603876673E+02  0.51100000000E-03 0.  1.
        -12    1    3    3    0    0 -0.50426942472E+01 -0.26926238456E+01  0.26554606551E+01  0.63032102722E+01  0.00000000000E+00 0.  1.
</event>
<event>
 7    1  0.5041278E-013  0.5052886E+02  0.7816164E-02  0.1300439E+00
        -11   -1    0    0    0    0  0.00000000000E+00  0.00000000000E+00  0.45593999997E+02  0.45594000000E+02  0.51100000000E-03 0. -1.
         11   -1    0    0    0    0 -0.00000000000E+00 -0.00000000000E+00 -0.45593999997E+02  0.45594000000E+02  0.51100000000E-03 0.  1.
    9900012    2    1    2    0    0  0.31500903911E+02 -0.22166861531E+02 -0.13018791635E+02  0.50528860400E+02  0.30000001672E+02 0.  0.
        -12    1    1    2    0    0 -0.31500903911E+02  0.22166861531E+02  0.13018791635E+02  0.40659139600E+02  0.00000000000E+00 0.  1.
         11    1    3    3    0    0  0.14185901303E+02 -0.97431471342E+00  0.45807316333E+01  0.14938948675E+02  0.51100000000E-03 0. -1.
        -11    1    3    3    0    0  0.10222011090E+02 -0.10547826416E+02 -0.11233086746E+01  0.14731190565E+02  0.51100000000E-03 0.  1.
         12    1    3    3    0    0  0.70929915182E+01 -0.10644720401E+02 -0.16476214594E+02  0.20858721160E+02  0.00000000000E+00 0. -1.
</event>
<event>
 7    1  0.5041278E-013  0.5052887E+02  0.7816164E-02  0.1300439E+00
        -11   -1    0    0    0    0  0.00000000000E+00  0.00000000000E+00  0.45593999997E+02  0.45594000000E+02  0.51100000000E-03 0.  1.
         11   -1    0    0    0    0 -0.00000000000E+00 -0.00000000000E+00 -0.45593999997E+02  0.45594000000E+02  0.51100000000E-03 0. -1.
    9900012    2    1    2    0    0  0.69559176250E+01  0.88322046592E+01 -0.39073936465E+02  0.50528866463E+02  0.30000020100E+02 0.  0.
        -12    1    1    2    0    0 -0.69559176250E+01 -0.88322046592E+01  0.39073936465E+02  0.40659133537E+02  0.00000000000E+00 0.  1.
         11    1    3    3    0    0 -0.31845841829E+01  0.60728326224E+00 -0.25793198337E+02  0.25996142985E+02  0.51100000000E-03 0. -1.
        -11    1    3    3    0    0  0.14735233760E+01 -0.43722365251E+01 -0.57013812936E+00  0.46489548416E+01  0.51100000000E-03 0.  1.
        -12    1    3    3    0    0  0.86669784319E+01  0.12597157922E+02 -0.12710599998E+02  0.19883768636E+02  0.00000000000E+00 0.  1.
</event>
<event>
 7    1  0.5041278E-013  0.5052886E+02  0.7816164E-02  0.1300439E+00
        -11   -1    0    0    0    0  0.00000000000E+00  0.00000000000E+00  0.45593999997E+02  0.45594000000E+02  0.51100000000E-03 0. -1.
         11   -1    0    0    0    0 -0.00000000000E+00 -0.00000000000E+00 -0.45593999997E+02  0.45594000000E+02  0.51100000000E-03 0.  1.
    9900012    2    1    2    0    0  0.58675986057E+01 -0.39690476496E+02  0.65880688266E+01  0.50528864633E+02  0.30000014540E+02 0.  0.
        -12    1    1    2    0    0 -0.58675986057E+01  0.39690476496E+02 -0.65880688266E+01  0.40659135367E+02  0.00000000000E+00 0.  1.
         11    1    3    3    0    0  0.85382990413E+01 -0.24111765624E+02 -0.45173966373E+01  0.25974731272E+02  0.51100000000E-03 0. -1.
        -11    1    3    3    0    0 -0.15858774470E+01  0.22293683645E+01 -0.10880066248E+01  0.29442909602E+01  0.51100000000E-03 0.  1.
        -12    1    3    3    0    0 -0.10848229886E+01 -0.17808079237E+02  0.12193472089E+02  0.21609842401E+02  0.00000000000E+00 0.  1.
</event>
<event>
 7    1  0.5041278E-013  0.5052886E+02  0.7816164E-02  0.1300439E+00
        -11   -1    0    0    0    0  0.00000000000E+00  0.00000000000E+00  0.45593999997E+02  0.45594000000E+02  0.51100000000E-03 0.  1.
         11   -1    0    0    0    0 -0.00000000000E+00 -0.00000000000E+00 -0.45593999997E+02  0.45594000000E+02  0.51100000000E-03 0. -1.
    9900012    2    1    2    0    0  0.32489720454E+02  0.19109588888E+02 -0.15244907912E+02  0.50528861545E+02  0.30000005153E+02 0.  0.
        -12    1    1    2    0    0 -0.32489720454E+02 -0.19109588888E+02  0.15244907912E+02  0.40659138455E+02  0.00000000000E+00 0.  1.
         11    1    3    3    0    0  0.18798776287E+02  0.11719429468E+02 -0.17016613229E+02  0.27933924590E+02  0.51100000000E-03 0. -1.
        -11    1    3    3    0    0  0.30120101020E+01 -0.25642893795E+01 -0.51043215906E+01  0.64576995933E+01  0.51100000000E-03 0.  1.
        -12    1    3    3    0    0  0.10678934065E+02  0.99544487993E+01  0.68760269073E+01  0.16137237362E+02  0.00000000000E+00 0.  1.
</event>
<event>
 7    1  0.5041278E-013  0.5052886E+02  0.7816164E-02  0.1300439E+00
        -11   -1    0    0    0    0  0.00000000000E+00  0.00000000000E+00  0.45593999997E+02  0.45594000000E+02  0.51100000000E-03 0.  1.
         11   -1    0    0    0    0 -0.00000000000E+00 -0.00000000000E+00 -0.45593999997E+02  0.45594000000E+02  0.51100000000E-03 0. -1.
    9900012    2    1    2    0    0 -0.29198252326E+02  0.28257701966E+02 -0.14595814496E+01  0.50528855428E+02  0.29999986560E+02 0.  0.
        -12    1    1    2    0    0  0.29198252326E+02 -0.28257701966E+02  0.14595814496E+01  0.40659144572E+02  0.00000000000E+00 0.  1.
         11    1    3    3    0    0 -0.12231420965E+02  0.17289669747E+01 -0.35548800554E+01  0.12854343938E+02  0.51100000000E-03 0. -1.
        -11    1    3    3    0    0 -0.32467364874E+01 -0.14945171890E+01 -0.45370023835E+01  0.57757484654E+01  0.51100000000E-03 0.  1.
        -12    1    3    3    0    0 -0.13720094874E+02  0.28023252180E+02  0.66323009893E+01  0.31898763025E+02  0.00000000000E+00 0.  1.
</event>
<event>
 7    1  0.5041278E-013  0.5052886E+02  0.7816164E-02  0.1300439E+00
        -11   -1    0    0    0    0  0.00000000000E+00  0.00000000000E+00  0.45593999997E+02  0.45594000000E+02  0.51100000000E-03 0. -1.
         11   -1    0    0    0    0 -0.00000000000E+00 -0.00000000000E+00 -0.45593999997E+02  0.45594000000E+02  0.51100000000E-03 0.  1.
    9900012    2    1    2    0    0 -0.21585427359E+02 -0.22915514268E+02  0.25731578934E+02  0.50528860525E+02  0.30000002052E+02 0.  0.
        -12    1    1    2    0    0  0.21585427359E+02  0.22915514268E+02 -0.25731578934E+02  0.40659139475E+02  0.00000000000E+00 0.  1.
         11    1    3    3    0    0 -0.10489133324E+02  0.37931819192E+01  0.63168383913E+01  0.12818447429E+02  0.51100000000E-03 0. -1.
        -11    1    3    3    0    0  0.75838132516E+00 -0.57992068861E+01 -0.12865763861E+01  0.59884239830E+01  0.51100000000E-03 0.  1.
         12    1    3    3    0    0 -0.11854675360E+02 -0.20909489301E+02  0.20701316929E+02  0.31721989113E+02  0.00000000000E+00 0. -1.
</event>
<event>
 7    1  0.5041278E-013  0.5052885E+02  0.7816164E-02  0.1300439E+00
        -11   -1    0    0    0    0  0.00000000000E+00  0.00000000000E+00  0.45593999997E+02  0.45594000000E+02  0.51100000000E-03 0.  1.
         11   -1    0    0    0    0 -0.00000000000E+00 -0.00000000000E+00 -0.45593999997E+02  0.45594000000E+02  0.51100000000E-03 0. -1.
    9900012    2    1    2    0    0 -0.13748300557E+02  0.37683737304E+02  0.66397495977E+01  0.50528854656E+02  0.29999984211E+02 0.  0.
        -12    1    1    2    0    0  0.13748300557E+02 -0.37683737304E+02 -0.66397495977E+01  0.40659145344E+02  0.00000000000E+00 0.  1.
         11    1    3    3    0    0 -0.14443923487E+02  0.24543549286E+02 -0.18582445098E+01  0.28538847387E+02  0.51100000000E-03 0. -1.
        -11    1    3    3    0    0  0.50246753529E+01  0.58785178802E+01 -0.24916063503E+01  0.81248038336E+01  0.51100000000E-03 0.  1.
        -12    1    3    3    0    0 -0.43290524229E+01  0.72616701381E+01  0.10989600458E+02  0.13865203435E+02  0.00000000000E+00 0.  1.
</event>
<event>
 7    1  0.5041278E-013  0.5052886E+02  0.7816164E-02  0.1300439E+00
        -11   -1    0    0    0    0  0.00000000000E+00  0.00000000000E+00  0.45593999997E+02  0.45594000000E+02  0.51100000000E-03 0.  1.
         11   -1    0    0    0    0 -0.00000000000E+00 -0.00000000000E+00 -0.45593999997E+02  0.45594000000E+02  0.51100000000E-03 0. -1.
    9900012    2    1    2    0    0 -0.10291444280E+02 -0.30888241799E+02 -0.24355047816E+02  0.50528860057E+02  0.30000000629E+02 0.  0.
        -12    1    1    2    0    0  0.10291444280E+02  0.30888241799E+02  0.24355047816E+02  0.40659139943E+02  0.00000000000E+00 0.  1.
         11    1    3    3    0    0 -0.10150757309E+00  0.38682165177E+01 -0.17734297663E+01  0.42565779932E+01  0.51100000000E-03 0. -1.
        -11    1    3    3    0    0 -0.22406439035E+01 -0.62960827287E+01  0.28695933704E+01  0.72729436408E+01  0.51100000000E-03 0.  1.
         12    1    3    3    0    0 -0.79492928031E+01 -0.28460375588E+02 -0.25451211420E+02  0.38999338423E+02  0.00000000000E+00 0. -1.
</event>
<event>
 7    1  0.5041278E-013  0.5052886E+02  0.7816164E-02  0.1300439E+00
        -11   -1    0    0    0    0  0.00000000000E+00  0.00000000000E+00  0.45593999997E+02  0.45594000000E+02  0.51100000000E-03 0.  1.
         11   -1    0    0    0    0 -0.00000000000E+00 -0.00000000000E+00 -0.45593999997E+02  0.45594000000E+02  0.51100000000E-03 0. -1.
    9900012    2    1    2    0    0 -0.35897826303E+02 -0.16401328795E+02 -0.97728380934E+01  0.50528857314E+02  0.29999992292E+02 0.  0.
        -12    1    1    2    0    0  0.35897826303E+02  0.16401328795E+02  0.97728380934E+01  0.40659142686E+02  0.00000000000E+00 0.  1.
         11    1    3    3    0    0 -0.12384446347E+02 -0.18413943824E+02 -0.62099456296E+01  0.23043681639E+02  0.51100000000E-03 0. -1.
        -11    1    3    3    0    0 -0.13902460600E+01  0.38097121912E+01 -0.33943888825E+01  0.52885316709E+01  0.51100000000E-03 0.  1.
        -12    1    3    3    0    0 -0.22123133896E+02 -0.17970971625E+01 -0.16850358127E+00  0.22196644005E+02  0.00000000000E+00 0.  1.
</event>
<event>
 7    1  0.5041278E-013  0.5052886E+02  0.7816164E-02  0.1300439E+00
        -11   -1    0    0    0    0  0.00000000000E+00  0.00000000000E+00  0.45593999997E+02  0.45594000000E+02  0.51100000000E-03 0.  1.
         11   -1    0    0    0    0 -0.00000000000E+00 -0.00000000000E+00 -0.45593999997E+02  0.45594000000E+02  0.51100000000E-03 0. -1.
    9900012    2    1    2    0    0  0.22385715760E+02  0.26391359541E+02 -0.21343415900E+02  0.50528861657E+02  0.30000005493E+02 0.  0.
        -12    1    1    2    0    0 -0.22385715760E+02 -0.26391359541E+02  0.21343415900E+02  0.40659138343E+02  0.00000000000E+00 0.  1.
         11    1    3    3    0    0  0.17990181721E+02  0.42074693181E+01 -0.10004795191E+02  0.21010601217E+02  0.51100000000E-03 0. -1.
        -11    1    3    3    0    0  0.85918262248E+01  0.11263638249E+02 -0.10788179322E+02  0.17806567267E+02  0.51100000000E-03 0.  1.
        -12    1    3    3    0    0 -0.41962921854E+01  0.10920251974E+02 -0.55044138709E+00  0.11711693174E+02  0.00000000000E+00 0.  1.
</event>
<event>
 7    1  0.5041278E-013  0.5052886E+02  0.7816164E-02  0.1300439E+00
        -11   -1    0    0    0    0  0.00000000000E+00  0.00000000000E+00  0.45593999997E+02  0.45594000000E+02  0.51100000000E-03 0.  1.
         11   -1    0    0    0    0 -0.00000000000E+00 -0.00000000000E+00 -0.45593999997E+02  0.45594000000E+02  0.51100000000E-03 0. -1.
    9900012    2    1    2    0    0  0.33561928851E+02  0.14652007601E+02 -0.17665817176E+02  0.50528862141E+02  0.30000006964E+02 0.  0.
        -12    1    1    2    0    0 -0.33561928851E+02 -0.14652007601E+02  0.17665817176E+02  0.40659137859E+02  0.00000000000E+00 0.  1.
         11    1    3    3    0    0  0.29820781467E+02  0.52045485208E+01 -0.19307022230E+01  0.30333050356E+02  0.51100000000E-03 0. -1.
        -11    1    3    3    0    0  0.39177490345E+01  0.51649087286E+01 -0.37998387937E+01  0.75142407994E+01  0.51100000000E-03 0.  1.
        -12    1    3    3    0    0 -0.17660165028E+00  0.42825503512E+01 -0.11935276159E+02  0.12681570985E+02  0.00000000000E+00 0.  1.
</event>
<event>
 7    1  0.5041278E-013  0.5052881E+02  0.7816164E-02  0.1300439E+00
        -11   -1    0    0    0    0  0.00000000000E+00  0.00000000000E+00  0.45593999997E+02  0.45594000000E+02  0.51100000000E-03 0.  1.
         11   -1    0    0    0    0 -0.00000000000E+00 -0.00000000000E+00 -0.45593999997E+02  0.45594000000E+02  0.51100000000E-03 0. -1.
    9900012    2    1    2    0    0  0.10266968194E+02 -0.37902625138E+02 -0.10542758976E+02  0.50528814136E+02  0.29999861049E+02 0.  0.
        -12    1    1    2    0    0 -0.10266968194E+02  0.37902625138E+02  0.10542758976E+02  0.40659185864E+02  0.00000000000E+00 0.  1.
         11    1    3    3    0    0  0.90976926807E+01 -0.33362214621E+02 -0.11366770556E+02  0.36400671005E+02  0.51100000000E-03 0. -1.
        -11    1    3    3    0    0 -0.20251199526E+01 -0.53763303295E+01 -0.48796084746E+01  0.75376798659E+01  0.51100000000E-03 0.  1.
        -12    1    3    3    0    0  0.31943954657E+01  0.83591981214E+00  0.57036200543E+01  0.65904632650E+01  0.00000000000E+00 0.  1.
</event>
<event>
 7    1  0.5041278E-013  0.5052889E+02  0.7816164E-02  0.1300439E+00
        -11   -1    0    0    0    0  0.00000000000E+00  0.00000000000E+00  0.45593999997E+02  0.45594000000E+02  0.51100000000E-03 0.  1.
         11   -1    0    0    0    0 -0.00000000000E+00 -0.00000000000E+00 -0.45593999997E+02  0.45594000000E+02  0.51100000000E-03 0. -1.
    9900012    2    1    2    0    0  0.15782323890E+02  0.68461749082E+01 -0.36840354006E+02  0.50528886120E+02  0.30000079850E+02 0.  0.
        -12    1    1    2    0    0 -0.15782323890E+02 -0.68461749082E+01  0.36840354006E+02  0.40659113880E+02  0.00000000000E+00 0.  1.
         11    1    3    3    0    0  0.49660713791E+01 -0.61869993837E+01 -0.17406846143E+02  0.19129535259E+02  0.51100000000E-03 0. -1.
        -11    1    3    3    0    0 -0.33337962942E+01 -0.14622623883E+01 -0.50513208208E+00  0.36752643041E+01  0.51100000000E-03 0.  1.
        -12    1    3    3    0    0  0.14150048805E+02  0.14495436680E+02 -0.18928375781E+02  0.27724086557E+02  0.00000000000E+00 0.  1.
</event>
<event>
 7    1  0.5041278E-013  0.5052886E+02  0.7816164E-02  0.1300439E+00
        -11   -1    0    0    0    0  0.00000000000E+00  0.00000000000E+00  0.45593999997E+02  0.45594000000E+02  0.51100000000E-03 0.  1.
         11   -1    0    0    0    0 -0.00000000000E+00 -0.00000000000E+00 -0.45593999997E+02  0.45594000000E+02  0.51100000000E-03 0. -1.
    9900012    2    1    2    0    0 -0.25816845689E+02  0.13788709156E+02 -0.28222820292E+02  0.50528860722E+02  0.30000002652E+02 0.  0.
        -12    1    1    2    0    0  0.25816845689E+02 -0.13788709156E+02  0.28222820292E+02  0.40659139278E+02  0.00000000000E+00 0.  1.
         11    1    3    3    0    0 -0.16919781782E+02 -0.38784471959E+01 -0.21305687594E+02  0.27481879345E+02  0.51100000000E-03 0. -1.
        -11    1    3    3    0    0  0.93271403944E-01  0.92668296915E+00 -0.36492126768E+01  0.37661909540E+01  0.51100000000E-03 0.  1.
        -12    1    3    3    0    0 -0.89903353117E+01  0.16740473383E+02 -0.32679200215E+01  0.19280790424E+02  0.00000000000E+00 0.  1.
</event>
<event>
 7    1  0.5041278E-013  0.5052886E+02  0.7816164E-02  0.1300439E+00
        -11   -1    0    0    0    0  0.00000000000E+00  0.00000000000E+00  0.45593999997E+02  0.45594000000E+02  0.51100000000E-03 0. -1.
         11   -1    0    0    0    0 -0.00000000000E+00 -0.00000000000E+00 -0.45593999997E+02  0.45594000000E+02  0.51100000000E-03 0.  1.
    9900012    2    1    2    0    0 -0.27599605234E+02  0.28069898059E+01  0.29724545052E+02  0.50528856140E+02  0.29999988723E+02 0.  0.
        -12    1    1    2    0    0  0.27599605234E+02 -0.28069898059E+01 -0.29724545052E+02  0.40659143860E+02  0.00000000000E+00 0.  1.
         11    1    3    3    0    0 -0.23550899315E+02 -0.63540838943E+01  0.23769341181E+02  0.34058784786E+02  0.51100000000E-03 0. -1.
        -11    1    3    3    0    0 -0.38763550596E+00  0.26673573937E+01  0.82428172497E+01  0.86723176385E+01  0.51100000000E-03 0.  1.
        -12    1    3    3    0    0 -0.36610704131E+01  0.64937163065E+01 -0.22876133780E+01  0.77977537154E+01  0.00000000000E+00 0.  1.
</event>
<event>
 7    1  0.5041278E-013  0.5052883E+02  0.7816164E-02  0.1300439E+00
        -11   -1    0    0    0    0  0.00000000000E+00  0.00000000000E+00  0.45593999997E+02  0.45594000000E+02  0.51100000000E-03 0. -1.
         11   -1    0    0    0    0 -0.00000000000E+00 -0.00000000000E+00 -0.45593999997E+02  0.45594000000E+02  0.51100000000E-03 0.  1.
    9900012    2    1    2    0    0 -0.28447056384E+02  0.21949875298E+01  0.28967490167E+02  0.50528825466E+02  0.29999895487E+02 0.  0.
        -12    1    1    2    0    0  0.28447056384E+02 -0.21949875298E+01 -0.28967490167E+02  0.40659174534E+02  0.00000000000E+00 0.  1.
         11    1    3    3    0    0 -0.54606331935E+01 -0.17174441528E+01  0.11732823622E+02  0.13054779956E+02  0.51100000000E-03 0. -1.
        -11    1    3    3    0    0 -0.22105016712E+02  0.96164486042E+01  0.19763962202E+02  0.31172456588E+02  0.51100000000E-03 0.  1.
         12    1    3    3    0    0 -0.88140647881E+00 -0.57040169216E+01 -0.25292956564E+01  0.63015889219E+01  0.00000000000E+00 0. -1.
</event>
<event>
 7    1  0.5041278E-013  0.5052886E+02  0.7816164E-02  0.1300439E+00
        -11   -1    0    0    0    0  0.00000000000E+00  0.00000000000E+00  0.45593999997E+02  0.45594000000E+02  0.51100000000E-03 0. -1.
         11   -1    0    0    0    0 -0.00000000000E+00 -0.00000000000E+00 -0.45593999997E+02  0.45594000000E+02  0.51100000000E-03 0.  1.
    9900012    2    1    2    0    0 -0.21104282692E+02  0.19212097671E+02  0.28959798145E+02  0.50528863838E+02  0.30000012121E+02 0.  0.
        -12    1    1    2    0    0  0.21104282692E+02 -0.19212097671E+02 -0.28959798145E+02  0.40659136162E+02  0.00000000000E+00 0.  1.
         11    1    3    3    0    0 -0.14096824952E+02  0.65252691388E+01  0.12787161438E+02  0.20119918214E+02  0.51100000000E-03 0. -1.
        -11    1    3    3    0    0 -0.14078923120E+02  0.42609198349E+01  0.83897412546E+01  0.16933968012E+02  0.51100000000E-03 0.  1.
        -12    1    3    3    0    0  0.70714653799E+01  0.84259086975E+01  0.77828954522E+01  0.13474977611E+02  0.00000000000E+00 0.  1.
</event>
<event>
 7    1  0.5041278E-013  0.5052887E+02  0.7816164E-02  0.1300439E+00
        -11   -1    0    0    0    0  0.00000000000E+00  0.00000000000E+00  0.45593999997E+02  0.45594000000E+02  0.51100000000E-03 0.  1.
         11   -1    0    0    0    0 -0.00000000000E+00 -0.00000000000E+00 -0.45593999997E+02  0.45594000000E+02  0.51100000000E-03 0. -1.
    9900012    2    1    2    0    0  0.21642553624E+02 -0.28978621650E+02 -0.18574279071E+02  0.50528874541E+02  0.30000044655E+02 0.  0.
        -12    1    1    2    0    0 -0.21642553624E+02  0.28978621650E+02  0.18574279071E+02  0.40659125459E+02  0.00000000000E+00 0.  1.
         11    1    3    3    0    0  0.23962844423E+01 -0.19457520557E+01  0.26575385753E+01  0.40731611472E+01  0.51100000000E-03 0. -1.
        -11    1    3    3    0    0  0.99047547694E+01  0.18845689816E+01 -0.95849824896E+01  0.13911421814E+02  0.51100000000E-03 0.  1.
         12    1    3    3    0    0  0.93415144126E+01 -0.28917438575E+02 -0.11646835157E+02  0.32544291580E+02  0.00000000000E+00 0. -1.
</event>
<event>
 7    1  0.5041278E-013  0.5052886E+02  0.7816164E-02  0.1300439E+00
        -11   -1    0    0    0    0  0.00000000000E+00  0.00000000000E+00  0.45593999997E+02  0.45594000000E+02  0.51100000000E-03 0. -1.
         11   -1    0    0    0    0 -0.00000000000E+00 -0.00000000000E+00 -0.45593999997E+02  0.45594000000E+02  0.51100000000E-03 0.  1.
    9900012    2    1    2    0    0  0.40360343589E+02  0.55487876710E+00  0.48887791353E+01  0.50528863432E+02  0.30000010887E+02 0.  0.
        -12    1    1    2    0    0 -0.40360343589E+02 -0.55487876710E+00 -0.48887791353E+01  0.40659136568E+02  0.00000000000E+00 0.  1.
         11    1    3    3    0    0  0.20963967847E+02 -0.23345351472E+01  0.13387442907E+01  0.21135993915E+02  0.51100000000E-03 0. -1.
        -11    1    3    3    0    0  0.18041195512E+02  0.10165133292E+02  0.60627264273E+01  0.21577101806E+02  0.51100000000E-03 0.  1.
        -12    1    3    3    0    0  0.13551802296E+01 -0.72757193779E+01 -0.25126915826E+01  0.78157677109E+01  0.00000000000E+00 0.  1.
</event>
<event>
 7    1  0.5041278E-013  0.5052885E+02  0.7816164E-02  0.1300439E+00
        -11   -1    0    0    0    0  0.00000000000E+00  0.00000000000E+00  0.45593999997E+02  0.45594000000E+02  0.51100000000E-03 0. -1.
         11   -1    0    0    0    0 -0.00000000000E+00 -0.00000000000E+00 -0.45593999997E+02  0.45594000000E+02  0.51100000000E-03 0.  1.
    9900012    2    1    2    0    0  0.18300504166E+02 -0.26901152411E+02  0.24384135369E+02  0.50528849597E+02  0.29999968835E+02 0.  0.
        -12    1    1    2    0    0 -0.18300504166E+02  0.26901152411E+02 -0.24384135369E+02  0.40659150403E+02  0.00000000000E+00 0.  1.
         11    1    3    3    0    0  0.14742079388E+02 -0.29394145707E+01  0.52087670560E+01  0.15909126853E+02  0.51100000000E-03 0. -1.
        -11    1    3    3    0    0  0.31778599025E+01 -0.75884033865E+01 -0.13753929985E+01  0.83411249648E+01  0.51100000000E-03 0.  1.
         12    1    3    3    0    0  0.38056487518E+00 -0.16373334454E+02  0.20550761312E+02  0.26278597779E+02  0.00000000000E+00 0. -1.
</event>
<event>
 7    1  0.5041278E-013  0.5052886E+02  0.7816164E-02  0.1300439E+00
        -11   -1    0    0    0    0  0.00000000000E+00  0.00000000000E+00  0.45593999997E+02  0.45594000000E+02  0.51100000000E-03 0.  1.
         11   -1    0    0    0    0 -0.00000000000E+00 -0.00000000000E+00 -0.45593999997E+02  0.45594000000E+02  0.51100000000E-03 0. -1.
    9900012    2    1    2    0    0 -0.17231771828E+02  0.30237718070E+02 -0.21021701460E+02  0.50528862199E+02  0.30000007140E+02 0.  0.
        -12    1    1    2    0    0  0.17231771828E+02 -0.30237718070E+02  0.21021701460E+02  0.40659137801E+02  0.00000000000E+00 0.  1.
         11    1    3    3    0    0 -0.59945168421E+01  0.23967729947E+02 -0.18603236482E+02  0.30926796130E+02  0.51100000000E-03 0. -1.
        -11    1    3    3    0    0  0.17462471804E+00  0.22668066294E+01 -0.64620431000E+01  0.68503216986E+01  0.51100000000E-03 0.  1.
         12    1    3    3    0    0 -0.11411879704E+02  0.40031814938E+01  0.40435781225E+01  0.12751744371E+02  0.00000000000E+00 0. -1.
</event>
<event>
 7    1  0.5041278E-013  0.5052886E+02  0.7816164E-02  0.1300439E+00
        -11   -1    0    0    0    0  0.00000000000E+00  0.00000000000E+00  0.45593999997E+02  0.45594000000E+02  0.51100000000E-03 0.  1.
         11   -1    0    0    0    0 -0.00000000000E+00 -0.00000000000E+00 -0.45593999997E+02  0.45594000000E+02  0.51100000000E-03 0. -1.
    9900012    2    1    2    0    0  0.99532734823E+01  0.30236151457E+02 -0.25295708738E+02  0.50528863406E+02  0.30000010810E+02 0.  0.
        -12    1    1    2    0    0 -0.99532734823E+01 -0.30236151457E+02  0.25295708738E+02  0.40659136594E+02  0.00000000000E+00 0.  1.
         11    1    3    3    0    0  0.61318001939E+00 -0.23022166667E+00 -0.51995621333E+01  0.52406524776E+01  0.51100000000E-03 0.  1.
        -11    1    3    3    0    0  0.23934984863E+01  0.10221489262E+02  0.55575428851E+01  0.11878297896E+02  0.51100000000E-03 0. -1.
         12    1    3    3    0    0  0.69465949766E+01  0.20244883862E+02 -0.25653689490E+02  0.33409913032E+02  0.00000000000E+00 0. -1.
</event>
<event>
 7    1  0.5041278E-013  0.5052887E+02  0.7816164E-02  0.1300439E+00
        -11   -1    0    0    0    0  0.00000000000E+00  0.00000000000E+00  0.45593999997E+02  0.45594000000E+02  0.51100000000E-03 0. -1.
         11   -1    0    0    0    0 -0.00000000000E+00 -0.00000000000E+00 -0.45593999997E+02  0.45594000000E+02  0.51100000000E-03 0.  1.
    9900012    2    1    2    0    0  0.21672579258E+02  0.34319441902E+02  0.23749503657E+01  0.50528866052E+02  0.30000018851E+02 0.  0.
        -12    1    1    2    0    0 -0.21672579258E+02 -0.34319441902E+02 -0.23749503657E+01  0.40659133948E+02  0.00000000000E+00 0.  1.
         11    1    3    3    0    0  0.18793178489E+02  0.29555024480E+02 -0.26420127019E+01  0.35123542832E+02  0.51100000000E-03 0. -1.
        -11    1    3    3    0    0  0.83040718133E+01  0.32022126983E+01  0.26722655140E+01  0.92926195491E+01  0.51100000000E-03 0.  1.
         12    1    3    3    0    0 -0.54246710447E+01  0.15622047242E+01  0.23446975536E+01  0.61127036704E+01  0.00000000000E+00 0. -1.
</event>
<event>
 7    1  0.5041278E-013  0.5052886E+02  0.7816164E-02  0.1300439E+00
        -11   -1    0    0    0    0  0.00000000000E+00  0.00000000000E+00  0.45593999997E+02  0.45594000000E+02  0.51100000000E-03 0.  1.
         11   -1    0    0    0    0 -0.00000000000E+00 -0.00000000000E+00 -0.45593999997E+02  0.45594000000E+02  0.51100000000E-03 0. -1.
    9900012    2    1    2    0    0 -0.21113836797E+02  0.33728605636E+02  0.83518087797E+01  0.50528860162E+02  0.30000000950E+02 0.  0.
        -12    1    1    2    0    0  0.21113836797E+02 -0.33728605636E+02 -0.83518087797E+01  0.40659139838E+02  0.00000000000E+00 0.  1.
         11    1    3    3    0    0  0.46711404426E+01  0.84020787150E+01 -0.89152710303E+00  0.96544963931E+01  0.51100000000E-03 0. -1.
        -11    1    3    3    0    0 -0.84131513291E+01  0.19914565234E+02  0.48471610271E+01  0.22155495798E+02  0.51100000000E-03 0.  1.
         12    1    3    3    0    0 -0.17371825911E+02  0.54119616863E+01  0.43961748556E+01  0.18718867972E+02  0.00000000000E+00 0. -1.
</event>
<event>
 7    1  0.5041278E-013  0.5052886E+02  0.7816164E-02  0.1300439E+00
        -11   -1    0    0    0    0  0.00000000000E+00  0.00000000000E+00  0.45593999997E+02  0.45594000000E+02  0.51100000000E-03 0.  1.
         11   -1    0    0    0    0 -0.00000000000E+00 -0.00000000000E+00 -0.45593999997E+02  0.45594000000E+02  0.51100000000E-03 0. -1.
    9900012    2    1    2    0    0  0.64538108336E+01 -0.60217161780E+00 -0.40139154647E+02  0.50528855632E+02  0.29999987179E+02 0.  0.
        -12    1    1    2    0    0 -0.64538108336E+01  0.60217161780E+00  0.40139154647E+02  0.40659144368E+02  0.00000000000E+00 0.  1.
         11    1    3    3    0    0  0.76569949957E+01 -0.10757176834E+02 -0.24790181308E+02  0.28087355079E+02  0.51100000000E-03 0. -1.
        -11    1    3    3    0    0 -0.49139087168E+01  0.47611302686E+01 -0.14243722980E+02  0.15801851313E+02  0.51100000000E-03 0.  1.
        -12    1    3    3    0    0  0.37107245546E+01  0.53938749478E+01 -0.11052503591E+01  0.66396492400E+01  0.00000000000E+00 0.  1.
</event>
<event>
 7    1  0.5041278E-013  0.5052887E+02  0.7816164E-02  0.1300439E+00
        -11   -1    0    0    0    0  0.00000000000E+00  0.00000000000E+00  0.45593999997E+02  0.45594000000E+02  0.51100000000E-03 0.  1.
         11   -1    0    0    0    0 -0.00000000000E+00 -0.00000000000E+00 -0.45593999997E+02  0.45594000000E+02  0.51100000000E-03 0. -1.
    9900012    2    1    2    0    0  0.13548393798E+02 -0.42255757413E+01 -0.38101842181E+02  0.50528870122E+02  0.30000031222E+02 0.  0.
        -12    1    1    2    0    0 -0.13548393798E+02  0.42255757413E+01  0.38101842181E+02  0.40659129878E+02  0.00000000000E+00 0.  1.
         11    1    3    3    0    0  0.74767306977E+01  0.46688133091E+01 -0.62185307324E+00  0.88366295128E+01  0.51100000000E-03 0. -1.
        -11    1    3    3    0    0 -0.30430210038E+01  0.17525279114E+01 -0.36064504954E+01  0.50336682794E+01  0.51100000000E-03 0.  1.
        -12    1    3    3    0    0  0.91146841037E+01 -0.10646916962E+02 -0.33873538613E+02  0.36658572330E+02  0.00000000000E+00 0.  1.
</event>
<event>
 7    1  0.5041278E-013  0.5052886E+02  0.7816164E-02  0.1300439E+00
        -11   -1    0    0    0    0  0.00000000000E+00  0.00000000000E+00  0.45593999997E+02  0.45594000000E+02  0.51100000000E-03 0.  1.
         11   -1    0    0    0    0 -0.00000000000E+00 -0.00000000000E+00 -0.45593999997E+02  0.45594000000E+02  0.51100000000E-03 0. -1.
    9900012    2    1    2    0    0  0.69375744011E+00 -0.51880935183E+01 -0.40320816907E+02  0.50528857243E+02  0.29999992075E+02 0.  0.
        -12    1    1    2    0    0 -0.69375744011E+00  0.51880935183E+01  0.40320816907E+02  0.40659142757E+02  0.00000000000E+00 0.  1.
         11    1    3    3    0    0  0.80994973673E+00  0.35631736770E+01 -0.29320276764E+02  0.29547095543E+02  0.51100000000E-03 0. -1.
        -11    1    3    3    0    0 -0.57224052901E-01  0.44462638858E+01 -0.14008598557E+01  0.46620752601E+01  0.51100000000E-03 0.  1.
         12    1    3    3    0    0 -0.58968243728E-01 -0.13197531081E+02 -0.95996802867E+01  0.16319686440E+02  0.00000000000E+00 0. -1.
</event>
<event>
 7    1  0.5041278E-013  0.5052886E+02  0.7816164E-02  0.1300439E+00
        -11   -1    0    0    0    0  0.00000000000E+00  0.00000000000E+00  0.45593999997E+02  0.45594000000E+02  0.51100000000E-03 0.  1.
         11   -1    0    0    0    0 -0.00000000000E+00 -0.00000000000E+00 -0.45593999997E+02  0.45594000000E+02  0.51100000000E-03 0. -1.
    9900012    2    1    2    0    0 -0.25161988894E+02  0.48763852484E+00 -0.31934346281E+02  0.50528856516E+02  0.29999989867E+02 0.  0.
        -12    1    1    2    0    0  0.25161988894E+02 -0.48763852484E+00  0.31934346281E+02  0.40659143484E+02  0.00000000000E+00 0.  1.
         11    1    3    3    0    0 -0.17060642683E+02  0.60066949592E+01 -0.11743159686E+02  0.21564964937E+02  0.51100000000E-03 0. -1.
        -11    1    3    3    0    0 -0.91998445707E+00  0.31189583190E+01 -0.16968743486E+02  0.17277515104E+02  0.51100000000E-03 0.  1.
        -12    1    3    3    0    0 -0.71813617546E+01 -0.86380147534E+01 -0.32224431087E+01  0.11686376475E+02  0.00000000000E+00 0.  1.
</event>
<event>
 7    1  0.5041278E-013  0.5052887E+02  0.7816164E-02  0.1300439E+00
        -11   -1    0    0    0    0  0.00000000000E+00  0.00000000000E+00  0.45593999997E+02  0.45594000000E+02  0.51100000000E-03 0. -1.
         11   -1    0    0    0    0 -0.00000000000E+00 -0.00000000000E+00 -0.45593999997E+02  0.45594000000E+02  0.51100000000E-03 0.  1.
    9900012    2    1    2    0    0  0.12633506196E+02 -0.93803192236E+01  0.37490913896E+02  0.50528874428E+02  0.30000044310E+02 0.  0.
        -12    1    1    2    0    0 -0.12633506196E+02  0.93803192236E+01 -0.37490913896E+02  0.40659125572E+02  0.00000000000E+00 0.  1.
         11    1    3    3    0    0  0.29394505726E+01 -0.68966455559E+00  0.25623687589E+01  0.39600177759E+01  0.51100000000E-03 0.  1.
        -11    1    3    3    0    0  0.79055212286E+01  0.66939085353E+01  0.25371742885E+01  0.10665033099E+02  0.51100000000E-03 0. -1.
         12    1    3    3    0    0  0.17885343951E+01 -0.15384563203E+02  0.32391370849E+02  0.35903823553E+02  0.00000000000E+00 0. -1.
</event>
<event>
 7    1  0.5041278E-013  0.5052886E+02  0.7816164E-02  0.1300439E+00
        -11   -1    0    0    0    0  0.00000000000E+00  0.00000000000E+00  0.45593999997E+02  0.45594000000E+02  0.51100000000E-03 0. -1.
         11   -1    0    0    0    0 -0.00000000000E+00 -0.00000000000E+00 -0.45593999997E+02  0.45594000000E+02  0.51100000000E-03 0.  1.
    9900012    2    1    2    0    0 -0.76940553845E+01 -0.11363278793E+02  0.38273273342E+02  0.50528855328E+02  0.29999986255E+02 0.  0.
        -12    1    1    2    0    0  0.76940553845E+01  0.11363278793E+02 -0.38273273342E+02  0.40659144672E+02  0.00000000000E+00 0.  1.
         11    1    3    3    0    0  0.39168412383E+01 -0.77845946833E+01  0.17003391080E+02  0.19106461424E+02  0.51100000000E-03 0. -1.
        -11    1    3    3    0    0 -0.58230377904E+01 -0.81425437346E+01  0.12492789992E+01  0.10088086333E+02  0.51100000000E-03 0.  1.
         12    1    3    3    0    0 -0.57878588323E+01  0.45638596251E+01  0.20020603262E+02  0.21334307571E+02  0.00000000000E+00 0. -1.
</event>
<event>
 7    1  0.5041278E-013  0.5052886E+02  0.7816164E-02  0.1300439E+00
        -11   -1    0    0    0    0  0.00000000000E+00  0.00000000000E+00  0.45593999997E+02  0.45594000000E+02  0.51100000000E-03 0.  1.
         11   -1    0    0    0    0 -0.00000000000E+00 -0.00000000000E+00 -0.45593999997E+02  0.45594000000E+02  0.51100000000E-03 0. -1.
    9900012    2    1    2    0    0 -0.38861629935E+02  0.98323664902E+01 -0.68017634760E+01  0.50528859596E+02  0.29999999227E+02 0.  0.
        -12    1    1    2    0    0  0.38861629935E+02 -0.98323664902E+01  0.68017634760E+01  0.40659140404E+02  0.00000000000E+00 0.  1.
         11    1    3    3    0    0 -0.14384855032E+02  0.51442161947E+01  0.51728333613E+01  0.16129017942E+02  0.51100000000E-03 0. -1.
        -11    1    3    3    0    0 -0.85797128485E+01  0.11989638373E+02 -0.59341523373E+01  0.15892673315E+02  0.51100000000E-03 0.  1.
         12    1    3    3    0    0 -0.15897062055E+02 -0.73014880778E+01 -0.60404445001E+01  0.18507168338E+02  0.00000000000E+00 0. -1.
</event>
<event>
 7    1  0.5041278E-013  0.5052886E+02  0.7816164E-02  0.1300439E+00
        -11   -1    0    0    0    0  0.00000000000E+00  0.00000000000E+00  0.45593999997E+02  0.45594000000E+02  0.51100000000E-03 0.  1.
         11   -1    0    0    0    0 -0.00000000000E+00 -0.00000000000E+00 -0.45593999997E+02  0.45594000000E+02  0.51100000000E-03 0. -1.
    9900012    2    1    2    0    0  0.34823075829E+02 -0.24629609284E+01 -0.20843537151E+02  0.50528858006E+02  0.29999994396E+02 0.  0.
        -12    1    1    2    0    0 -0.34823075829E+02  0.24629609284E+01  0.20843537151E+02  0.40659141994E+02  0.00000000000E+00 0.  1.
         11    1    3    3    0    0  0.70621707072E+01 -0.33783692336E+01  0.27980720938E+01  0.83136539187E+01  0.51100000000E-03 0. -1.
        -11    1    3    3    0    0  0.17122233523E+01 -0.50764782971E+01  0.14542718745E+01  0.55513284586E+01  0.51100000000E-03 0.  1.
         12    1    3    3    0    0  0.26048681769E+02  0.59918866023E+01 -0.25095881120E+02  0.36663875629E+02  0.00000000000E+00 0. -1.
</event>
<event>
 7    1  0.5041278E-013  0.5052873E+02  0.7816164E-02  0.1300439E+00
        -11   -1    0    0    0    0  0.00000000000E+00  0.00000000000E+00  0.45593999997E+02  0.45594000000E+02  0.51100000000E-03 0.  1.
         11   -1    0    0    0    0 -0.00000000000E+00 -0.00000000000E+00 -0.45593999997E+02  0.45594000000E+02  0.51100000000E-03 0. -1.
    9900012    2    1    2    0    0  0.26285495608E+02  0.59203262538E+01 -0.30449936301E+02  0.50528730908E+02  0.29999608066E+02 0.  0.
        -12    1    1    2    0    0 -0.26285495608E+02 -0.59203262538E+01  0.30449936301E+02  0.40659269092E+02  0.00000000000E+00 0.  1.
         11    1    3    3    0    0  0.21860688089E+01  0.61310583138E+01 -0.77510959580E+01  0.10121672870E+02  0.51100000000E-03 0. -1.
        -11    1    3    3    0    0 -0.11586544157E+01  0.29645307991E+00  0.36875618810E+01  0.38766580157E+01  0.51100000000E-03 0.  1.
         12    1    3    3    0    0  0.25258081215E+02 -0.50718513983E+00 -0.26386402224E+02  0.36530400022E+02  0.00000000000E+00 0. -1.
</event>
<event>
 7    1  0.5041278E-013  0.5052885E+02  0.7816164E-02  0.1300439E+00
        -11   -1    0    0    0    0  0.00000000000E+00  0.00000000000E+00  0.45593999997E+02  0.45594000000E+02  0.51100000000E-03 0. -1.
         11   -1    0    0    0    0 -0.00000000000E+00 -0.00000000000E+00 -0.45593999997E+02  0.45594000000E+02  0.51100000000E-03 0.  1.
    9900012    2    1    2    0    0  0.29075731904E+02 -0.10870561274E+02  0.26260214766E+02  0.50528853825E+02  0.29999981686E+02 0.  0.
        -12    1    1    2    0    0 -0.29075731904E+02  0.10870561274E+02 -0.26260214766E+02  0.40659146175E+02  0.00000000000E+00 0.  1.
         11    1    3    3    0    0  0.39486481299E+01 -0.24030006929E+01 -0.42378018633E+01  0.62709807269E+01  0.51100000000E-03 0. -1.
        -11    1    3    3    0    0 -0.10730294771E+01  0.18377632810E+01 -0.69455610746E+00  0.22385652957E+01  0.51100000000E-03 0.  1.
         12    1    3    3    0    0  0.26200113251E+02 -0.10305323862E+02  0.31192572737E+02  0.42019307802E+02  0.00000000000E+00 0. -1.
</event>
<event>
 7    1  0.5041278E-013  0.5052886E+02  0.7816164E-02  0.1300439E+00
        -11   -1    0    0    0    0  0.00000000000E+00  0.00000000000E+00  0.45593999997E+02  0.45594000000E+02  0.51100000000E-03 0. -1.
         11   -1    0    0    0    0 -0.00000000000E+00 -0.00000000000E+00 -0.45593999997E+02  0.45594000000E+02  0.51100000000E-03 0.  1.
    9900012    2    1    2    0    0  0.20323199970E+02 -0.21797844271E+02 -0.27658398781E+02  0.50528862097E+02  0.30000006831E+02 0.  0.
        -12    1    1    2    0    0 -0.20323199970E+02  0.21797844271E+02  0.27658398781E+02  0.40659137903E+02  0.00000000000E+00 0.  1.
         11    1    3    3    0    0  0.33221206307E+01 -0.94449759140E+00 -0.10730142300E+02  0.11272289707E+02  0.51100000000E-03 0. -1.
        -11    1    3    3    0    0  0.13848188529E+02 -0.22967391210E+02 -0.20720242158E+02  0.33891028604E+02  0.51100000000E-03 0.  1.
        -12    1    3    3    0    0  0.31528908106E+01  0.21140445301E+01  0.37919856781E+01  0.53655437862E+01  0.00000000000E+00 0.  1.
</event>
<event>
 7    1  0.5041278E-013  0.5052886E+02  0.7816164E-02  0.1300439E+00
        -11   -1    0    0    0    0  0.00000000000E+00  0.00000000000E+00  0.45593999997E+02  0.45594000000E+02  0.51100000000E-03 0.  1.
         11   -1    0    0    0    0 -0.00000000000E+00 -0.00000000000E+00 -0.45593999997E+02  0.45594000000E+02  0.51100000000E-03 0. -1.
    9900012    2    1    2    0    0  0.13910618401E+02 -0.32887466430E+02 -0.19444153892E+02  0.50528857448E+02  0.29999992699E+02 0.  0.
        -12    1    1    2    0    0 -0.13910618401E+02  0.32887466430E+02  0.19444153892E+02  0.40659142552E+02  0.00000000000E+00 0.  1.
         11    1    3    3    0    0  0.46954235544E+01  0.28908770151E+01 -0.68112725259E+01  0.87634243281E+01  0.51100000000E-03 0. -1.
        -11    1    3    3    0    0 -0.26581256334E+01 -0.19112119399E+02 -0.50869264475E+01  0.19955339154E+02  0.51100000000E-03 0.  1.
         12    1    3    3    0    0  0.11873320480E+02 -0.16666224046E+02 -0.75459549182E+01  0.21810093966E+02  0.00000000000E+00 0. -1.
</event>
<event>
 7    1  0.5041278E-013  0.5052887E+02  0.7816164E-02  0.1300439E+00
        -11   -1    0    0    0    0  0.00000000000E+00  0.00000000000E+00  0.45593999997E+02  0.45594000000E+02  0.51100000000E-03 0.  1.
         11   -1    0    0    0    0 -0.00000000000E+00 -0.00000000000E+00 -0.45593999997E+02  0.45594000000E+02  0.51100000000E-03 0. -1.
    9900012    2    1    2    0    0 -0.39119313395E+02  0.73873893988E+01 -0.82626216083E+01  0.50528866728E+02  0.30000020906E+02 0.  0.
        -12    1    1    2    0    0  0.39119313395E+02 -0.73873893988E+01  0.82626216083E+01  0.40659133272E+02  0.00000000000E+00 0.  1.
         11    1    3    3    0    0 -0.11354994335E+01  0.52941914754E+01  0.26604994082E+01  0.60329163515E+01  0.51100000000E-03 0. -1.
        -11    1    3    3    0    0 -0.18933872622E+02  0.10773833016E+02 -0.24888684529E+01  0.21926273663E+02  0.51100000000E-03 0.  1.
        -12    1    3    3    0    0 -0.19049941339E+02 -0.86806350922E+01 -0.84342525636E+01  0.22569676713E+02  0.00000000000E+00 0.  1.
</event>
<event>
 7    1  0.5041278E-013  0.5052885E+02  0.7816164E-02  0.1300439E+00
        -11   -1    0    0    0    0  0.00000000000E+00  0.00000000000E+00  0.45593999997E+02  0.45594000000E+02  0.51100000000E-03 0. -1.
         11   -1    0    0    0    0 -0.00000000000E+00 -0.00000000000E+00 -0.45593999997E+02  0.45594000000E+02  0.51100000000E-03 0.  1.
    9900012    2    1    2    0    0 -0.21097494557E+02  0.27369654613E+02  0.21423447511E+02  0.50528851294E+02  0.29999973993E+02 0.  0.
        -12    1    1    2    0    0  0.21097494557E+02 -0.27369654613E+02 -0.21423447511E+02  0.40659148706E+02  0.00000000000E+00 0.  1.
         11    1    3    3    0    0 -0.86183951516E+01  0.12915667414E+02  0.19505917014E+02  0.24931345703E+02  0.51100000000E-03 0. -1.
        -11    1    3    3    0    0  0.24850186483E+01 -0.18874090231E+01  0.14346037934E+01  0.34344895993E+01  0.51100000000E-03 0.  1.
        -12    1    3    3    0    0 -0.14964118054E+02  0.16341396222E+02  0.48292670334E+00  0.22163015991E+02  0.00000000000E+00 0.  1.
</event>
<event>
 7    1  0.5041278E-013  0.5052886E+02  0.7816164E-02  0.1300439E+00
        -11   -1    0    0    0    0  0.00000000000E+00  0.00000000000E+00  0.45593999997E+02  0.45594000000E+02  0.51100000000E-03 0. -1.
         11   -1    0    0    0    0 -0.00000000000E+00 -0.00000000000E+00 -0.45593999997E+02  0.45594000000E+02  0.51100000000E-03 0.  1.
    9900012    2    1    2    0    0 -0.13219908577E+02 -0.18874110820E+02  0.33498771623E+02  0.50528859057E+02  0.29999997589E+02 0.  0.
        -12    1    1    2    0    0  0.13219908577E+02  0.18874110820E+02 -0.33498771623E+02  0.40659140943E+02  0.00000000000E+00 0.  1.
         11    1    3    3    0    0  0.52606629083E+01 -0.37512438747E+01  0.81342770446E+01  0.10388111866E+02  0.51100000000E-03 0.  1.
        -11    1    3    3    0    0 -0.76364271409E+01 -0.80936646527E+01 -0.59396024135E+00  0.11143393380E+02  0.51100000000E-03 0. -1.
         12    1    3    3    0    0 -0.10844144344E+02 -0.70292022921E+01  0.25958454819E+02  0.28997353811E+02  0.00000000000E+00 0. -1.
</event>
<event>
 7    1  0.5041278E-013  0.5052886E+02  0.7816164E-02  0.1300439E+00
        -11   -1    0    0    0    0  0.00000000000E+00  0.00000000000E+00  0.45593999997E+02  0.45594000000E+02  0.51100000000E-03 0.  1.
         11   -1    0    0    0    0 -0.00000000000E+00 -0.00000000000E+00 -0.45593999997E+02  0.45594000000E+02  0.51100000000E-03 0. -1.
    9900012    2    1    2    0    0 -0.17462326619E+02 -0.60401274856E+01 -0.36218089944E+02  0.50528855516E+02  0.29999986825E+02 0.  0.
        -12    1    1    2    0    0  0.17462326619E+02  0.60401274856E+01  0.36218089944E+02  0.40659144484E+02  0.00000000000E+00 0.  1.
         11    1    3    3    0    0 -0.14540105688E+02  0.33070758716E+01 -0.92765303691E+01  0.17561476025E+02  0.51100000000E-03 0. -1.
        -11    1    3    3    0    0 -0.46222435620E+01 -0.11942217467E+02 -0.11481163830E+02  0.17198802770E+02  0.51100000000E-03 0.  1.
         12    1    3    3    0    0  0.17000226309E+01  0.25950141097E+01 -0.15460395745E+02  0.15768576720E+02  0.00000000000E+00 0. -1.
</event>
<event>
 7    1  0.5041278E-013  0.5052886E+02  0.7816164E-02  0.1300439E+00
        -11   -1    0    0    0    0  0.00000000000E+00  0.00000000000E+00  0.45593999997E+02  0.45594000000E+02  0.51100000000E-03 0.  1.
         11   -1    0    0    0    0 -0.00000000000E+00 -0.00000000000E+00 -0.45593999997E+02  0.45594000000E+02  0.51100000000E-03 0. -1.
    9900012    2    1    2    0    0 -0.63016334211E+01  0.40137767040E+02 -0.15539309179E+01  0.50528860461E+02  0.30000001859E+02 0.  0.
        -12    1    1    2    0    0  0.63016334211E+01 -0.40137767040E+02  0.15539309179E+01  0.40659139539E+02  0.00000000000E+00 0.  1.
         11    1    3    3    0    0  0.31538632704E+01  0.20910289313E+01 -0.27944326027E+01  0.47040524394E+01  0.51100000000E-03 0. -1.
        -11    1    3    3    0    0 -0.61149911304E+01  0.40910646027E+02  0.17049739288E+01  0.41400253758E+02  0.51100000000E-03 0.  1.
         12    1    3    3    0    0 -0.33405055612E+01 -0.28639079185E+01 -0.46447224404E+00  0.44245542640E+01  0.00000000000E+00 0. -1.
</event>
<event>
 7    1  0.5041278E-013  0.5052886E+02  0.7816164E-02  0.1300439E+00
        -11   -1    0    0    0    0  0.00000000000E+00  0.00000000000E+00  0.45593999997E+02  0.45594000000E+02  0.51100000000E-03 0.  1.
         11   -1    0    0    0    0 -0.00000000000E+00 -0.00000000000E+00 -0.45593999997E+02  0.45594000000E+02  0.51100000000E-03 0. -1.
    9900012    2    1    2    0    0  0.16309683133E+02  0.35076391065E+02 -0.12522261809E+02  0.50528855705E+02  0.29999987400E+02 0.  0.
        -12    1    1    2    0    0 -0.16309683133E+02 -0.35076391065E+02  0.12522261809E+02  0.40659144295E+02  0.00000000000E+00 0.  1.
         11    1    3    3    0    0 -0.40629316594E+01  0.52936465629E+01 -0.50563771487E+01  0.83723985651E+01  0.51100000000E-03 0. -1.
        -11    1    3    3    0    0  0.97916276199E+00 -0.22057291171E+01  0.24679847596E+01  0.34518038309E+01  0.51100000000E-03 0.  1.
         12    1    3    3    0    0  0.19393452030E+02  0.31988473619E+02 -0.99338694199E+01  0.38704653309E+02  0.00000000000E+00 0. -1.
</event>
<event>
 7    1  0.5041278E-013  0.5052885E+02  0.7816164E-02  0.1300439E+00
        -11   -1    0    0    0    0  0.00000000000E+00  0.00000000000E+00  0.45593999997E+02  0.45594000000E+02  0.51100000000E-03 0. -1.
         11   -1    0    0    0    0 -0.00000000000E+00 -0.00000000000E+00 -0.45593999997E+02  0.45594000000E+02  0.51100000000E-03 0.  1.
    9900012    2    1    2    0    0 -0.23082472701E+02  0.25988302139E+02  0.21094400911E+02  0.50528854118E+02  0.29999982577E+02 0.  0.
        -12    1    1    2    0    0  0.23082472701E+02 -0.25988302139E+02 -0.21094400911E+02  0.40659145882E+02  0.00000000000E+00 0.  1.
         11    1    3    3    0    0 -0.31903857001E+01  0.10236723562E+02 -0.22145608387E+01  0.10948668876E+02  0.51100000000E-03 0. -1.
        -11    1    3    3    0    0 -0.34528966872E+01  0.14645071963E+02  0.14502724155E+02  0.20898077340E+02  0.51100000000E-03 0.  1.
        -12    1    3    3    0    0 -0.16439190314E+02  0.11065066142E+01  0.88062375946E+01  0.18682107901E+02  0.00000000000E+00 0.  1.
</event>
<event>
 7    1  0.5041278E-013  0.5052886E+02  0.7816164E-02  0.1300439E+00
        -11   -1    0    0    0    0  0.00000000000E+00  0.00000000000E+00  0.45593999997E+02  0.45594000000E+02  0.51100000000E-03 0.  1.
         11   -1    0    0    0    0 -0.00000000000E+00 -0.00000000000E+00 -0.45593999997E+02  0.45594000000E+02  0.51100000000E-03 0. -1.
    9900012    2    1    2    0    0  0.17562932376E+02  0.36657297809E+02  0.97537992242E+00  0.50528862745E+02  0.30000008801E+02 0.  0.
        -12    1    1    2    0    0 -0.17562932376E+02 -0.36657297809E+02 -0.97537992242E+00  0.40659137255E+02  0.00000000000E+00 0.  1.
         11    1    3    3    0    0  0.10841665406E+02  0.93162207680E+01  0.13159132294E+02  0.19429267643E+02  0.51100000000E-03 0. -1.
        -11    1    3    3    0    0  0.58200623205E+00  0.37385079112E-01 -0.51822932227E+00  0.78018638149E+00  0.51100000000E-03 0.  1.
         12    1    3    3    0    0  0.61392607379E+01  0.27303691962E+02 -0.11665523049E+02  0.30319408720E+02  0.00000000000E+00 0. -1.
</event>
<event>
 7    1  0.5041278E-013  0.5052886E+02  0.7816164E-02  0.1300439E+00
        -11   -1    0    0    0    0  0.00000000000E+00  0.00000000000E+00  0.45593999997E+02  0.45594000000E+02  0.51100000000E-03 0.  1.
         11   -1    0    0    0    0 -0.00000000000E+00 -0.00000000000E+00 -0.45593999997E+02  0.45594000000E+02  0.51100000000E-03 0. -1.
    9900012    2    1    2    0    0 -0.51356899023E+01 -0.54367514384E+01 -0.39965382658E+02  0.50528863413E+02  0.30000010830E+02 0.  0.
        -12    1    1    2    0    0  0.51356899023E+01  0.54367514384E+01  0.39965382658E+02  0.40659136587E+02  0.00000000000E+00 0.  1.
         11    1    3    3    0    0  0.53829239835E+00 -0.16101686827E+01 -0.12404415989E+02  0.12520061429E+02  0.51100000000E-03 0. -1.
        -11    1    3    3    0    0  0.23352221427E+01 -0.12677529505E+02 -0.82447919702E+01  0.15301947971E+02  0.51100000000E-03 0.  1.
        -12    1    3    3    0    0 -0.80092044433E+01  0.88509467495E+01 -0.19316174699E+02  0.22706854014E+02  0.00000000000E+00 0.  1.
</event>
<event>
 7    1  0.5041278E-013  0.5052886E+02  0.7816164E-02  0.1300439E+00
        -11   -1    0    0    0    0  0.00000000000E+00  0.00000000000E+00  0.45593999997E+02  0.45594000000E+02  0.51100000000E-03 0. -1.
         11   -1    0    0    0    0 -0.00000000000E+00 -0.00000000000E+00 -0.45593999997E+02  0.45594000000E+02  0.51100000000E-03 0.  1.
    9900012    2    1    2    0    0 -0.28723429951E+02 -0.25903750365E+02  0.12534994802E+02  0.50528858275E+02  0.29999995213E+02 0.  0.
        -12    1    1    2    0    0  0.28723429951E+02  0.25903750365E+02 -0.12534994802E+02  0.40659141725E+02  0.00000000000E+00 0.  1.
         11    1    3    3    0    0 -0.17140594804E+02 -0.19860285847E+02  0.56681877793E+01  0.26839510001E+02  0.51100000000E-03 0. -1.
        -11    1    3    3    0    0 -0.87203221542E+01 -0.69366553228E+01 -0.44376721603E+01  0.11993920960E+02  0.51100000000E-03 0.  1.
        -12    1    3    3    0    0 -0.28625129921E+01  0.89319080409E+00  0.11304479183E+02  0.11695427313E+02  0.00000000000E+00 0.  1.
</event>
<event>
 7    1  0.5041278E-013  0.5052890E+02  0.7816164E-02  0.1300439E+00
        -11   -1    0    0    0    0  0.00000000000E+00  0.00000000000E+00  0.45593999997E+02  0.45594000000E+02  0.51100000000E-03 0.  1.
         11   -1    0    0    0    0 -0.00000000000E+00 -0.00000000000E+00 -0.45593999997E+02  0.45594000000E+02  0.51100000000E-03 0. -1.
    9900012    2    1    2    0    0  0.13113229222E+02  0.13415895819E+01 -0.38463049240E+02  0.50528895238E+02  0.30000107564E+02 0.  0.
        -12    1    1    2    0    0 -0.13113229222E+02 -0.13415895819E+01  0.38463049240E+02  0.40659104762E+02  0.00000000000E+00 0.  1.
         11    1    3    3    0    0 -0.46678544793E+01  0.42425978019E+01 -0.11316547566E+01  0.64085212255E+01  0.51100000000E-03 0. -1.
        -11    1    3    3    0    0  0.69691660563E+01 -0.73649569215E+01 -0.25684813318E+02  0.27613791870E+02  0.51100000000E-03 0.  1.
         12    1    3    3    0    0  0.10811917645E+02  0.44639487015E+01 -0.11646581165E+02  0.16506582142E+02  0.00000000000E+00 0. -1.
</event>
<event>
 7    1  0.5041278E-013  0.5052886E+02  0.7816164E-02  0.1300439E+00
        -11   -1    0    0    0    0  0.00000000000E+00  0.00000000000E+00  0.45593999997E+02  0.45594000000E+02  0.51100000000E-03 0. -1.
         11   -1    0    0    0    0 -0.00000000000E+00 -0.00000000000E+00 -0.45593999997E+02  0.45594000000E+02  0.51100000000E-03 0.  1.
    9900012    2    1    2    0    0 -0.53018963857E+00 -0.34381053784E+02  0.21698571760E+02  0.50528856173E+02  0.29999988822E+02 0.  0.
        -12    1    1    2    0    0  0.53018963857E+00  0.34381053784E+02 -0.21698571760E+02  0.40659143827E+02  0.00000000000E+00 0.  1.
         11    1    3    3    0    0  0.76871255416E+01 -0.78396171909E+01  0.10560213088E+01  0.11030261922E+02  0.51100000000E-03 0. -1.
        -11    1    3    3    0    0 -0.41560346229E+01 -0.34782177084E+01 -0.30225090510E+01  0.62053350786E+01  0.51100000000E-03 0.  1.
        -12    1    3    3    0    0 -0.40612805573E+01 -0.23063218885E+02  0.23665059502E+02  0.33293259172E+02  0.00000000000E+00 0.  1.
</event>
<event>
 7    1  0.5041278E-013  0.5052886E+02  0.7816164E-02  0.1300439E+00
        -11   -1    0    0    0    0  0.00000000000E+00  0.00000000000E+00  0.45593999997E+02  0.45594000000E+02  0.51100000000E-03 0.  1.
         11   -1    0    0    0    0 -0.00000000000E+00 -0.00000000000E+00 -0.45593999997E+02  0.45594000000E+02  0.51100000000E-03 0. -1.
    9900012    2    1    2    0    0  0.21961020168E+02  0.10003842981E+02 -0.32723114923E+02  0.50528861649E+02  0.30000005467E+02 0.  0.
        -12    1    1    2    0    0 -0.21961020168E+02 -0.10003842981E+02  0.32723114923E+02  0.40659138351E+02  0.00000000000E+00 0.  1.
         11    1    3    3    0    0  0.54504225485E+01  0.30090511691E+01  0.32129441294E+01  0.70060334809E+01  0.51100000000E-03 0.  1.
        -11    1    3    3    0    0  0.90825194708E+01  0.12395980215E+02 -0.22276871592E+02  0.27063102070E+02  0.51100000000E-03 0. -1.
        -12    1    3    3    0    0  0.74280781491E+01 -0.54011884031E+01 -0.13659187460E+02  0.16459726098E+02  0.00000000000E+00 0.  1.
</event>
<event>
 7    1  0.5041278E-013  0.5052886E+02  0.7816164E-02  0.1300439E+00
        -11   -1    0    0    0    0  0.00000000000E+00  0.00000000000E+00  0.45593999997E+02  0.45594000000E+02  0.51100000000E-03 0.  1.
         11   -1    0    0    0    0 -0.00000000000E+00 -0.00000000000E+00 -0.45593999997E+02  0.45594000000E+02  0.51100000000E-03 0. -1.
    9900012    2    1    2    0    0  0.19203638921E+02  0.31845061879E+02 -0.16440140430E+02  0.50528856733E+02  0.29999990525E+02 0.  0.
        -12    1    1    2    0    0 -0.19203638921E+02 -0.31845061879E+02  0.16440140430E+02  0.40659143267E+02  0.00000000000E+00 0.  1.
         11    1    3    3    0    0  0.60488955001E+01 -0.23093411661E+01  0.29061320063E+01  0.70970273279E+01  0.51100000000E-03 0.  1.
        -11    1    3    3    0    0 -0.15958944962E+01  0.56872828754E+01 -0.67880370570E+01  0.89983061237E+01  0.51100000000E-03 0. -1.
        -12    1    3    3    0    0  0.14750637917E+02  0.28467120170E+02 -0.12558235379E+02  0.34433523281E+02  0.00000000000E+00 0.  1.
</event>
<event>
 7    1  0.5041278E-013  0.5052886E+02  0.7816164E-02  0.1300439E+00
        -11   -1    0    0    0    0  0.00000000000E+00  0.00000000000E+00  0.45593999997E+02  0.45594000000E+02  0.51100000000E-03 0.  1.
         11   -1    0    0    0    0 -0.00000000000E+00 -0.00000000000E+00 -0.45593999997E+02  0.45594000000E+02  0.51100000000E-03 0. -1.
    9900012    2    1    2    0    0  0.28346085802E+02  0.19733302661E+02 -0.21453706952E+02  0.50528863804E+02  0.30000012018E+02 0.  0.
        -12    1    1    2    0    0 -0.28346085802E+02 -0.19733302661E+02  0.21453706952E+02  0.40659136196E+02  0.00000000000E+00 0.  1.
         11    1    3    3    0    0  0.90852278305E+01  0.54063033956E+01 -0.24610169363E+01  0.10854772488E+02  0.51100000000E-03 0. -1.
        -11    1    3    3    0    0  0.29049733525E+00  0.10976360584E+02  0.20231380199E+01  0.11165033277E+02  0.51100000000E-03 0.  1.
        -12    1    3    3    0    0  0.18970360637E+02  0.33506386820E+01 -0.21015828036E+02  0.28509058039E+02  0.00000000000E+00 0.  1.
</event>
<event>
 7    1  0.5041278E-013  0.5052886E+02  0.7816164E-02  0.1300439E+00
        -11   -1    0    0    0    0  0.00000000000E+00  0.00000000000E+00  0.45593999997E+02  0.45594000000E+02  0.51100000000E-03 0. -1.
         11   -1    0    0    0    0 -0.00000000000E+00 -0.00000000000E+00 -0.45593999997E+02  0.45594000000E+02  0.51100000000E-03 0.  1.
    9900012    2    1    2    0    0  0.39708554517E+02  0.87270815345E+01 -0.48395601481E+00  0.50528862437E+02  0.30000007862E+02 0.  0.
        -12    1    1    2    0    0 -0.39708554517E+02 -0.87270815345E+01  0.48395601481E+00  0.40659137563E+02  0.00000000000E+00 0.  1.
         11    1    3    3    0    0  0.34711558069E+02 -0.12967063967E+01 -0.75854130390E+01  0.35554355602E+02  0.51100000000E-03 0. -1.
        -11    1    3    3    0    0 -0.69903068141E+00  0.48936670148E+01  0.71044659729E+00  0.49941320941E+01  0.51100000000E-03 0.  1.
        -12    1    3    3    0    0  0.56960271298E+01  0.51301209164E+01  0.63910104269E+01  0.99803747403E+01  0.00000000000E+00 0.  1.
</event>
<event>
 7    1  0.5041278E-013  0.5052886E+02  0.7816164E-02  0.1300439E+00
        -11   -1    0    0    0    0  0.00000000000E+00  0.00000000000E+00  0.45593999997E+02  0.45594000000E+02  0.51100000000E-03 0.  1.
         11   -1    0    0    0    0 -0.00000000000E+00 -0.00000000000E+00 -0.45593999997E+02  0.45594000000E+02  0.51100000000E-03 0. -1.
    9900012    2    1    2    0    0  0.33498886537E+02  0.10102453815E+02 -0.20710637081E+02  0.50528862520E+02  0.30000008116E+02 0.  0.
        -12    1    1    2    0    0 -0.33498886537E+02 -0.10102453815E+02  0.20710637081E+02  0.40659137480E+02  0.00000000000E+00 0.  1.
         11    1    3    3    0    0  0.17958835159E+02  0.79114183080E+01 -0.52941223418E+01  0.20325797193E+02  0.51100000000E-03 0. -1.
        -11    1    3    3    0    0  0.15884367096E+02  0.56725675699E+01 -0.27840379329E+01  0.17095087257E+02  0.51100000000E-03 0.  1.
        -12    1    3    3    0    0 -0.34431571738E+00 -0.34815320627E+01 -0.12632476806E+02  0.13107978070E+02  0.00000000000E+00 0.  1.
</event>
<event>
 7    1  0.5041278E-013  0.5052886E+02  0.7816164E-02  0.1300439E+00
        -11   -1    0    0    0    0  0.00000000000E+00  0.00000000000E+00  0.45593999997E+02  0.45594000000E+02  0.51100000000E-03 0. -1.
         11   -1    0    0    0    0 -0.00000000000E+00 -0.00000000000E+00 -0.45593999997E+02  0.45594000000E+02  0.51100000000E-03 0.  1.
    9900012    2    1    2    0    0 -0.44863075630E+01 -0.26835374026E+02  0.30214260775E+02  0.50528858237E+02  0.29999995098E+02 0.  0.
        -12    1    1    2    0    0  0.44863075630E+01  0.26835374026E+02 -0.30214260775E+02  0.40659141763E+02  0.00000000000E+00 0.  1.
         11    1    3    3    0    0  0.71926550825E+00 -0.66442290216E+01  0.14244635281E+02  0.15734444913E+02  0.51100000000E-03 0. -1.
        -11    1    3    3    0    0 -0.63398529995E+01 -0.21505046278E+02  0.40917993220E+01  0.22790427232E+02  0.51100000000E-03 0.  1.
         12    1    3    3    0    0  0.11342799282E+01  0.13139012735E+01  0.11877826173E+02  0.12003986092E+02  0.00000000000E+00 0. -1.
</event>
<event>
 7    1  0.5041278E-013  0.5052885E+02  0.7816164E-02  0.1300439E+00
        -11   -1    0    0    0    0  0.00000000000E+00  0.00000000000E+00  0.45593999997E+02  0.45594000000E+02  0.51100000000E-03 0.  1.
         11   -1    0    0    0    0 -0.00000000000E+00 -0.00000000000E+00 -0.45593999997E+02  0.45594000000E+02  0.51100000000E-03 0. -1.
    9900012    2    1    2    0    0 -0.29166550112E+02  0.25335316224E+02 -0.12672814699E+02  0.50528854338E+02  0.29999983245E+02 0.  0.
        -12    1    1    2    0    0  0.29166550112E+02 -0.25335316224E+02  0.12672814699E+02  0.40659145662E+02  0.00000000000E+00 0.  1.
         11    1    3    3    0    0 -0.12804680616E+02  0.93565143209E+01 -0.66482700738E+01  0.17196037368E+02  0.51100000000E-03 0. -1.
        -11    1    3    3    0    0 -0.13099116568E+02 -0.30096127813E+01 -0.35998635119E+01  0.13914152562E+02  0.51100000000E-03 0.  1.
         12    1    3    3    0    0 -0.32627529278E+01  0.18988414684E+02 -0.24246811128E+01  0.19418664408E+02  0.00000000000E+00 0. -1.
</event>
<event>
 7    1  0.5041278E-013  0.5052886E+02  0.7816164E-02  0.1300439E+00
        -11   -1    0    0    0    0  0.00000000000E+00  0.00000000000E+00  0.45593999997E+02  0.45594000000E+02  0.51100000000E-03 0.  1.
         11   -1    0    0    0    0 -0.00000000000E+00 -0.00000000000E+00 -0.45593999997E+02  0.45594000000E+02  0.51100000000E-03 0. -1.
    9900012    2    1    2    0    0 -0.21451453034E+02 -0.34104363082E+02 -0.54674910733E+01  0.50528857398E+02  0.29999992548E+02 0.  0.
        -12    1    1    2    0    0  0.21451453034E+02  0.34104363082E+02  0.54674910733E+01  0.40659142602E+02  0.00000000000E+00 0.  1.
         11    1    3    3    0    0 -0.14622466701E+02 -0.25822694211E+02 -0.11349163636E+02  0.31771553067E+02  0.51100000000E-03 0. -1.
        -11    1    3    3    0    0  0.28038833905E+01  0.20764965149E+00 -0.22137476745E+01  0.35784856396E+01  0.51100000000E-03 0.  1.
        -12    1    3    3    0    0 -0.96328697233E+01 -0.84893185217E+01  0.80954202374E+01  0.15178818692E+02  0.00000000000E+00 0.  1.
</event>
<event>
 7    1  0.5041278E-013  0.5052886E+02  0.7816164E-02  0.1300439E+00
        -11   -1    0    0    0    0  0.00000000000E+00  0.00000000000E+00  0.45593999997E+02  0.45594000000E+02  0.51100000000E-03 0. -1.
         11   -1    0    0    0    0 -0.00000000000E+00 -0.00000000000E+00 -0.45593999997E+02  0.45594000000E+02  0.51100000000E-03 0.  1.
    9900012    2    1    2    0    0  0.14447409449E+02 -0.37669336015E+02  0.50457258676E+01  0.50528857546E+02  0.29999992996E+02 0.  0.
        -12    1    1    2    0    0 -0.14447409449E+02  0.37669336015E+02 -0.50457258676E+01  0.40659142454E+02  0.00000000000E+00 0.  1.
         11    1    3    3    0    0 -0.52848656160E+01 -0.16281662429E+02 -0.37881105795E+01  0.17532031202E+02  0.51100000000E-03 0.  1.
        -11    1    3    3    0    0  0.48657024817E+01 -0.11091628748E+02  0.86996824069E+01  0.14912537114E+02  0.51100000000E-03 0. -1.
        -12    1    3    3    0    0  0.14866572583E+02 -0.10296044838E+02  0.13415404021E+00  0.18084289231E+02  0.00000000000E+00 0.  1.
</event>
<event>
 7    1  0.5041278E-013  0.5052886E+02  0.7816164E-02  0.1300439E+00
        -11   -1    0    0    0    0  0.00000000000E+00  0.00000000000E+00  0.45593999997E+02  0.45594000000E+02  0.51100000000E-03 0. -1.
         11   -1    0    0    0    0 -0.00000000000E+00 -0.00000000000E+00 -0.45593999997E+02  0.45594000000E+02  0.51100000000E-03 0.  1.
    9900012    2    1    2    0    0  0.14419892214E+02  0.14017176621E+02  0.35337671034E+02  0.50528861715E+02  0.30000005670E+02 0.  0.
        -12    1    1    2    0    0 -0.14419892214E+02 -0.14017176621E+02 -0.35337671034E+02  0.40659138285E+02  0.00000000000E+00 0.  1.
         11    1    3    3    0    0  0.14913483183E+02  0.81655745323E+01  0.12128052171E+02  0.20884880603E+02  0.51100000000E-03 0. -1.
        -11    1    3    3    0    0  0.17483923277E+01 -0.58154621219E+01  0.48314890335E+01  0.77601393006E+01  0.51100000000E-03 0.  1.
        -12    1    3    3    0    0 -0.22419832960E+01  0.11667064211E+02  0.18378129830E+02  0.21883841812E+02  0.00000000000E+00 0.  1.
</event>
<event>
 7    1  0.5041278E-013  0.5052886E+02  0.7816164E-02  0.1300439E+00
        -11   -1    0    0    0    0  0.00000000000E+00  0.00000000000E+00  0.45593999997E+02  0.45594000000E+02  0.51100000000E-03 0. -1.
         11   -1    0    0    0    0 -0.00000000000E+00 -0.00000000000E+00 -0.45593999997E+02  0.45594000000E+02  0.51100000000E-03 0.  1.
    9900012    2    1    2    0    0  0.16497798491E+02 -0.30621090288E+02  0.21055577601E+02  0.50528857441E+02  0.29999992678E+02 0.  0.
        -12    1    1    2    0    0 -0.16497798491E+02  0.30621090288E+02 -0.21055577601E+02  0.40659142559E+02  0.00000000000E+00 0.  1.
         11    1    3    3    0    0  0.13347492929E+01 -0.13897067046E+02  0.14496352603E+02  0.20125960031E+02  0.51100000000E-03 0. -1.
        -11    1    3    3    0    0  0.12918748460E+01 -0.12846588326E+02  0.90754015267E+01  0.15781846704E+02  0.51100000000E-03 0.  1.
        -12    1    3    3    0    0  0.13871174352E+02 -0.38774349163E+01 -0.25161765280E+01  0.14621050706E+02  0.00000000000E+00 0.  1.
</event>
<event>
 7    1  0.5041278E-013  0.5052886E+02  0.7816164E-02  0.1300439E+00
        -11   -1    0    0    0    0  0.00000000000E+00  0.00000000000E+00  0.45593999997E+02  0.45594000000E+02  0.51100000000E-03 0.  1.
         11   -1    0    0    0    0 -0.00000000000E+00 -0.00000000000E+00 -0.45593999997E+02  0.45594000000E+02  0.51100000000E-03 0. -1.
    9900012    2    1    2    0    0 -0.10479560194E+02  0.87508517707E+01 -0.38298393321E+02  0.50528861795E+02  0.30000005912E+02 0.  0.
        -12    1    1    2    0    0  0.10479560194E+02 -0.87508517707E+01  0.38298393321E+02  0.40659138205E+02  0.00000000000E+00 0.  1.
         11    1    3    3    0    0 -0.38866035190E+01 -0.14235117078E+01 -0.34930307857E+02  0.35174685211E+02  0.51100000000E-03 0. -1.
        -11    1    3    3    0    0 -0.49121997435E+01  0.91081425869E+00 -0.32095417944E+01  0.59380508355E+01  0.51100000000E-03 0.  1.
        -12    1    3    3    0    0 -0.16807569316E+01  0.92635492197E+01 -0.15854367057E+00  0.94161257482E+01  0.00000000000E+00 0.  1.
</event>
<event>
 7    1  0.5041278E-013  0.5052886E+02  0.7816164E-02  0.1300439E+00
        -11   -1    0    0    0    0  0.00000000000E+00  0.00000000000E+00  0.45593999997E+02  0.45594000000E+02  0.51100000000E-03 0.  1.
         11   -1    0    0    0    0 -0.00000000000E+00 -0.00000000000E+00 -0.45593999997E+02  0.45594000000E+02  0.51100000000E-03 0. -1.
    9900012    2    1    2    0    0 -0.69530789971E+01 -0.39982497024E+02  0.24940534941E+01  0.50528859839E+02  0.29999999965E+02 0.  0.
        -12    1    1    2    0    0  0.69530789971E+01  0.39982497024E+02 -0.24940534941E+01  0.40659140161E+02  0.00000000000E+00 0.  1.
         11    1    3    3    0    0 -0.27830455891E+01  0.77532030251E-01 -0.30233266508E+01  0.41099705918E+01  0.51100000000E-03 0. -1.
        -11    1    3    3    0    0 -0.11882252597E+02 -0.34640053274E+02  0.51869884063E+01  0.36986836396E+02  0.51100000000E-03 0.  1.
         12    1    3    3    0    0  0.77122191888E+01 -0.54199757803E+01  0.33039173863E+00  0.94320528506E+01  0.00000000000E+00 0. -1.
</event>
<event>
 7    1  0.5041278E-013  0.5052886E+02  0.7816164E-02  0.1300439E+00
        -11   -1    0    0    0    0  0.00000000000E+00  0.00000000000E+00  0.45593999997E+02  0.45594000000E+02  0.51100000000E-03 0.  1.
         11   -1    0    0    0    0 -0.00000000000E+00 -0.00000000000E+00 -0.45593999997E+02  0.45594000000E+02  0.51100000000E-03 0. -1.
    9900012    2    1    2    0    0 -0.66938423020E+00 -0.33628834517E+02 -0.22843351074E+02  0.50528864809E+02  0.30000015073E+02 0.  0.
        -12    1    1    2    0    0  0.66938423020E+00  0.33628834517E+02  0.22843351074E+02  0.40659135191E+02  0.00000000000E+00 0.  1.
         11    1    3    3    0    0 -0.10938636868E+02 -0.23553182482E+02 -0.19264410443E+02  0.32334558781E+02  0.51100000000E-03 0. -1.
        -11    1    3    3    0    0 -0.88424619036E+00  0.15143202039E+01 -0.37905217081E+00  0.17940841157E+01  0.51100000000E-03 0.  1.
         12    1    3    3    0    0  0.11153498829E+02 -0.11589972238E+02 -0.31998884603E+01  0.16400221912E+02  0.00000000000E+00 0. -1.
</event>
<event>
 7    1  0.5041278E-013  0.5052887E+02  0.7816164E-02  0.1300439E+00
        -11   -1    0    0    0    0  0.00000000000E+00  0.00000000000E+00  0.45593999997E+02  0.45594000000E+02  0.51100000000E-03 0. -1.
         11   -1    0    0    0    0 -0.00000000000E+00 -0.00000000000E+00 -0.45593999997E+02  0.45594000000E+02  0.51100000000E-03 0.  1.
    9900012    2    1    2    0    0 -0.33928732561E+02  0.17001497566E+02  0.14592979761E+02  0.50528869771E+02  0.30000030155E+02 0.  0.
        -12    1    1    2    0    0  0.33928732561E+02 -0.17001497566E+02 -0.14592979761E+02  0.40659130229E+02  0.00000000000E+00 0.  1.
         11    1    3    3    0    0 -0.20250868169E+00  0.11996690980E+02 -0.31630950225E+00  0.12002568734E+02  0.51100000000E-03 0. -1.
        -11    1    3    3    0    0 -0.27497371075E+01  0.12282710557E+01  0.49054980550E+01  0.57561806239E+01  0.51100000000E-03 0.  1.
        -12    1    3    3    0    0 -0.30976486772E+02  0.37765355301E+01  0.10003791208E+02  0.32770120413E+02  0.00000000000E+00 0.  1.
</event>
<event>
 7    1  0.5041278E-013  0.5052886E+02  0.7816164E-02  0.1300439E+00
        -11   -1    0    0    0    0  0.00000000000E+00  0.00000000000E+00  0.45593999997E+02  0.45594000000E+02  0.51100000000E-03 0.  1.
         11   -1    0    0    0    0 -0.00000000000E+00 -0.00000000000E+00 -0.45593999997E+02  0.45594000000E+02  0.51100000000E-03 0. -1.
    9900012    2    1    2    0    0  0.12014370734E+02  0.15079972247E+02 -0.35796856347E+02  0.50528860912E+02  0.30000003227E+02 0.  0.
        -12    1    1    2    0    0 -0.12014370734E+02 -0.15079972247E+02  0.35796856347E+02  0.40659139088E+02  0.00000000000E+00 0.  1.
         11    1    3    3    0    0 -0.41343660102E+00  0.60903096112E+01 -0.14205043655E+02  0.15461114658E+02  0.51100000000E-03 0. -1.
        -11    1    3    3    0    0  0.14605129029E+02  0.24659450703E+01 -0.23635415322E+02  0.27893073275E+02  0.51100000000E-03 0.  1.
        -12    1    3    3    0    0 -0.21773216939E+01  0.65237175656E+01  0.20436026299E+01  0.71746729782E+01  0.00000000000E+00 0.  1.
</event>
<event>
 7    1  0.5041278E-013  0.5052886E+02  0.7816164E-02  0.1300439E+00
        -11   -1    0    0    0    0  0.00000000000E+00  0.00000000000E+00  0.45593999997E+02  0.45594000000E+02  0.51100000000E-03 0.  1.
         11   -1    0    0    0    0 -0.00000000000E+00 -0.00000000000E+00 -0.45593999997E+02  0.45594000000E+02  0.51100000000E-03 0. -1.
    9900012    2    1    2    0    0 -0.30391076231E+02 -0.17372021478E+02 -0.20682375238E+02  0.50528864616E+02  0.30000014486E+02 0.  0.
        -12    1    1    2    0    0  0.30391076231E+02  0.17372021478E+02  0.20682375238E+02  0.40659135384E+02  0.00000000000E+00 0.  1.
         11    1    3    3    0    0 -0.13220510973E+02 -0.12286669574E+02 -0.75267045875E+01  0.19554933951E+02  0.51100000000E-03 0. -1.
        -11    1    3    3    0    0 -0.19736891866E+02  0.11293016933E+01 -0.13961478923E+02  0.24202130419E+02  0.51100000000E-03 0.  1.
        -12    1    3    3    0    0  0.25663266081E+01 -0.62146535975E+01  0.80580827263E+00  0.67718002457E+01  0.00000000000E+00 0.  1.
</event>
<event>
 7    1  0.5041278E-013  0.5052889E+02  0.7816164E-02  0.1300439E+00
        -11   -1    0    0    0    0  0.00000000000E+00  0.00000000000E+00  0.45593999997E+02  0.45594000000E+02  0.51100000000E-03 0. -1.
         11   -1    0    0    0    0 -0.00000000000E+00 -0.00000000000E+00 -0.45593999997E+02  0.45594000000E+02  0.51100000000E-03 0.  1.
    9900012    2    1    2    0    0 -0.38770050297E+01 -0.80766570503E+01  0.39659800351E+02  0.50528888832E+02  0.30000088093E+02 0.  0.
        -12    1    1    2    0    0  0.38770050297E+01  0.80766570503E+01 -0.39659800351E+02  0.40659111168E+02  0.00000000000E+00 0.  1.
         11    1    3    3    0    0 -0.27899363525E+01  0.86908626395E+01  0.15341070442E+02  0.17851142284E+02  0.51100000000E-03 0. -1.
        -11    1    3    3    0    0  0.11182489993E+01 -0.65712563827E+00 -0.16128359852E+01  0.20696702890E+01  0.51100000000E-03 0.  1.
        -12    1    3    3    0    0 -0.22053176765E+01 -0.16110394051E+02  0.25931565894E+02  0.30608076259E+02  0.00000000000E+00 0.  1.
</event>
<event>
 7    1  0.5041278E-013  0.5052885E+02  0.7816164E-02  0.1300439E+00
        -11   -1    0    0    0    0  0.00000000000E+00  0.00000000000E+00  0.45593999997E+02  0.45594000000E+02  0.51100000000E-03 0.  1.
         11   -1    0    0    0    0 -0.00000000000E+00 -0.00000000000E+00 -0.45593999997E+02  0.45594000000E+02  0.51100000000E-03 0. -1.
    9900012    2    1    2    0    0  0.14856797872E+01  0.81971960321E+01 -0.39796547323E+02  0.50528850402E+02  0.29999971282E+02 0.  0.
        -12    1    1    2    0    0 -0.14856797872E+01 -0.81971960321E+01  0.39796547323E+02  0.40659149598E+02  0.00000000000E+00 0.  1.
         11    1    3    3    0    0 -0.78432495172E+01  0.11736600555E+02 -0.23881306679E+02  0.27741325934E+02  0.51100000000E-03 0. -1.
        -11    1    3    3    0    0  0.82614943803E+00 -0.36620070317E+00 -0.13316585341E+02  0.13347212115E+02  0.51100000000E-03 0.  1.
        -12    1    3    3    0    0  0.85027798663E+01 -0.31732038200E+01 -0.25986553026E+01  0.94403123529E+01  0.00000000000E+00 0.  1.
</event>
<event>
 7    1  0.5041278E-013  0.5052886E+02  0.7816164E-02  0.1300439E+00
        -11   -1    0    0    0    0  0.00000000000E+00  0.00000000000E+00  0.45593999997E+02  0.45594000000E+02  0.51100000000E-03 0.  1.
         11   -1    0    0    0    0 -0.00000000000E+00 -0.00000000000E+00 -0.45593999997E+02  0.45594000000E+02  0.51100000000E-03 0. -1.
    9900012    2    1    2    0    0  0.16714054475E+02 -0.17288099262E+01 -0.37024550364E+02  0.50528859202E+02  0.29999998031E+02 0.  0.
        -12    1    1    2    0    0 -0.16714054475E+02  0.17288099262E+01  0.37024550364E+02  0.40659140798E+02  0.00000000000E+00 0.  1.
         11    1    3    3    0    0 -0.33371478942E+00  0.10266401988E+01 -0.21126610296E+02  0.21154172603E+02  0.51100000000E-03 0. -1.
        -11    1    3    3    0    0  0.98825997521E+01  0.30751366858E+01 -0.17171589513E+02  0.20049581795E+02  0.51100000000E-03 0.  1.
        -12    1    3    3    0    0  0.71651695127E+01 -0.58305868107E+01  0.12736494446E+01  0.93251048043E+01  0.00000000000E+00 0.  1.
</event>
<event>
 7    1  0.5041278E-013  0.5052886E+02  0.7816164E-02  0.1300439E+00
        -11   -1    0    0    0    0  0.00000000000E+00  0.00000000000E+00  0.45593999997E+02  0.45594000000E+02  0.51100000000E-03 0. -1.
         11   -1    0    0    0    0 -0.00000000000E+00 -0.00000000000E+00 -0.45593999997E+02  0.45594000000E+02  0.51100000000E-03 0.  1.
    9900012    2    1    2    0    0 -0.34040270825E+02  0.21710853825E+02 -0.48025699761E+01  0.50528857239E+02  0.29999992065E+02 0.  0.
        -12    1    1    2    0    0  0.34040270825E+02 -0.21710853825E+02  0.48025699761E+01  0.40659142761E+02  0.00000000000E+00 0.  1.
         11    1    3    3    0    0 -0.40948809941E+01  0.62919494802E+01  0.35953257309E+01  0.83236437928E+01  0.51100000000E-03 0.  1.
        -11    1    3    3    0    0 -0.20033393157E+02 -0.30933416907E+01 -0.55289537033E+01  0.21011304898E+02  0.51100000000E-03 0. -1.
         12    1    3    3    0    0 -0.99119966737E+01  0.18512246036E+02 -0.28689420038E+01  0.21193908549E+02  0.00000000000E+00 0. -1.
</event>
<event>
 7    1  0.5041278E-013  0.5052886E+02  0.7816164E-02  0.1300439E+00
        -11   -1    0    0    0    0  0.00000000000E+00  0.00000000000E+00  0.45593999997E+02  0.45594000000E+02  0.51100000000E-03 0.  1.
         11   -1    0    0    0    0 -0.00000000000E+00 -0.00000000000E+00 -0.45593999997E+02  0.45594000000E+02  0.51100000000E-03 0. -1.
    9900012    2    1    2    0    0  0.15791137878E+02  0.29596958878E+02 -0.22974454275E+02  0.50528861304E+02  0.30000004419E+02 0.  0.
        -12    1    1    2    0    0 -0.15791137878E+02 -0.29596958878E+02  0.22974454275E+02  0.40659138696E+02  0.00000000000E+00 0.  1.
         11    1    3    3    0    0 -0.23010649055E+01  0.47351952621E+01 -0.34374479423E+01  0.62875291241E+01  0.51100000000E-03 0. -1.
        -11    1    3    3    0    0  0.41144854673E+01  0.88316791758E+01  0.56602993476E+01  0.11267942877E+02  0.51100000000E-03 0.  1.
        -12    1    3    3    0    0  0.13977717316E+02  0.16030084440E+02 -0.25197305680E+02  0.32973389302E+02  0.00000000000E+00 0.  1.
</event>
<event>
 7    1  0.5041278E-013  0.5052887E+02  0.7816164E-02  0.1300439E+00
        -11   -1    0    0    0    0  0.00000000000E+00  0.00000000000E+00  0.45593999997E+02  0.45594000000E+02  0.51100000000E-03 0.  1.
         11   -1    0    0    0    0 -0.00000000000E+00 -0.00000000000E+00 -0.45593999997E+02  0.45594000000E+02  0.51100000000E-03 0. -1.
    9900012    2    1    2    0    0  0.19018668709E+02  0.26763984589E+02 -0.23982171661E+02  0.50528865871E+02  0.30000018301E+02 0.  0.
        -12    1    1    2    0    0 -0.19018668709E+02 -0.26763984589E+02  0.23982171661E+02  0.40659134129E+02  0.00000000000E+00 0.  1.
         11    1    3    3    0    0  0.45360549687E+01  0.44012392810E+01  0.19102127933E+01  0.66026975597E+01  0.51100000000E-03 0. -1.
        -11    1    3    3    0    0  0.15665907999E+00  0.69875286986E+01  0.34819245661E+01  0.78085785086E+01  0.51100000000E-03 0.  1.
         12    1    3    3    0    0  0.14325954661E+02  0.15375216609E+02 -0.29374309020E+02  0.36117589803E+02  0.00000000000E+00 0. -1.
</event>
<event>
 7    1  0.5041278E-013  0.5052887E+02  0.7816164E-02  0.1300439E+00
        -11   -1    0    0    0    0  0.00000000000E+00  0.00000000000E+00  0.45593999997E+02  0.45594000000E+02  0.51100000000E-03 0. -1.
         11   -1    0    0    0    0 -0.00000000000E+00 -0.00000000000E+00 -0.45593999997E+02  0.45594000000E+02  0.51100000000E-03 0.  1.
    9900012    2    1    2    0    0 -0.38958994627E+02  0.11537944734E+02  0.14958607747E+01  0.50528867810E+02  0.30000024195E+02 0.  0.
        -12    1    1    2    0    0  0.38958994627E+02 -0.11537944734E+02 -0.14958607747E+01  0.40659132190E+02  0.00000000000E+00 0.  1.
         11    1    3    3    0    0 -0.20523989017E+01  0.67784073509E+01  0.32201057962E+01  0.77799890146E+01  0.51100000000E-03 0. -1.
        -11    1    3    3    0    0 -0.12955988255E+02  0.55548923915E+01  0.87548592814E+01  0.16594035749E+02  0.51100000000E-03 0.  1.
        -12    1    3    3    0    0 -0.23950607470E+02 -0.79535500888E+00 -0.10479104303E+02  0.26154843046E+02  0.00000000000E+00 0.  1.
</event>
<event>
 7    1  0.5041278E-013  0.5052886E+02  0.7816164E-02  0.1300439E+00
        -11   -1    0    0    0    0  0.00000000000E+00  0.00000000000E+00  0.45593999997E+02  0.45594000000E+02  0.51100000000E-03 0.  1.
         11   -1    0    0    0    0 -0.00000000000E+00 -0.00000000000E+00 -0.45593999997E+02  0.45594000000E+02  0.51100000000E-03 0. -1.
    9900012    2    1    2    0    0 -0.83951472457E+01  0.39677363930E+02 -0.28971836010E+01  0.50528863529E+02  0.30000011183E+02 0.  0.
        -12    1    1    2    0    0  0.83951472457E+01 -0.39677363930E+02  0.28971836010E+01  0.40659136471E+02  0.00000000000E+00 0.  1.
         11    1    3    3    0    0 -0.70883729000E+00  0.13933456647E+02 -0.15235428323E+02  0.20658217272E+02  0.51100000000E-03 0. -1.
        -11    1    3    3    0    0 -0.20063233482E+01  0.52261930170E+01  0.79814308603E+00  0.56546847370E+01  0.51100000000E-03 0.  1.
        -12    1    3    3    0    0 -0.56799866075E+01  0.20517714266E+02  0.11540101636E+02  0.24215961520E+02  0.00000000000E+00 0.  1.
</event>
<event>
 7    1  0.5041278E-013  0.5052886E+02  0.7816164E-02  0.1300439E+00
        -11   -1    0    0    0    0  0.00000000000E+00  0.00000000000E+00  0.45593999997E+02  0.45594000000E+02  0.51100000000E-03 0.  1.
         11   -1    0    0    0    0 -0.00000000000E+00 -0.00000000000E+00 -0.45593999997E+02  0.45594000000E+02  0.51100000000E-03 0. -1.
    9900012    2    1    2    0    0 -0.13570640388E+02 -0.36531590199E+02 -0.11595095037E+02  0.50528860905E+02  0.30000003206E+02 0.  0.
        -12    1    1    2    0    0  0.13570640388E+02  0.36531590199E+02  0.11595095037E+02  0.40659139095E+02  0.00000000000E+00 0.  1.
         11    1    3    3    0    0 -0.40354212385E+01 -0.94690377536E+01  0.12840944068E+01  0.10372858779E+02  0.51100000000E-03 0. -1.
        -11    1    3    3    0    0  0.27470522029E+01  0.12716200698E+01  0.39577561040E+01  0.49826847228E+01  0.51100000000E-03 0.  1.
         12    1    3    3    0    0 -0.12282271352E+02 -0.28334172515E+02 -0.16836945548E+02  0.35173317403E+02  0.00000000000E+00 0. -1.
</event>
<event>
 7    1  0.5041278E-013  0.5052885E+02  0.7816164E-02  0.1300439E+00
        -11   -1    0    0    0    0  0.00000000000E+00  0.00000000000E+00  0.45593999997E+02  0.45594000000E+02  0.51100000000E-03 0. -1.
         11   -1    0    0    0    0 -0.00000000000E+00 -0.00000000000E+00 -0.45593999997E+02  0.45594000000E+02  0.51100000000E-03 0.  1.
    9900012    2    1    2    0    0 -0.27498266207E+02 -0.16702366410E+02 -0.24860459431E+02  0.50528854274E+02  0.29999983050E+02 0.  0.
        -12    1    1    2    0    0  0.27498266207E+02  0.16702366410E+02  0.24860459431E+02  0.40659145726E+02  0.00000000000E+00 0.  1.
         11    1    3    3    0    0 -0.10087203902E+02 -0.93372278465E+00 -0.27621632251E+01  0.10500146035E+02  0.51100000000E-03 0. -1.
        -11    1    3    3    0    0 -0.13612063659E+02  0.32267349529E+01 -0.98652030884E+01  0.17117894957E+02  0.51100000000E-03 0.  1.
        -12    1    3    3    0    0 -0.37989986459E+01 -0.18995378578E+02 -0.12233093117E+02  0.22910813283E+02  0.00000000000E+00 0.  1.
</event>
<event>
 7    1  0.5041278E-013  0.5052886E+02  0.7816164E-02  0.1300439E+00
        -11   -1    0    0    0    0  0.00000000000E+00  0.00000000000E+00  0.45593999997E+02  0.45594000000E+02  0.51100000000E-03 0. -1.
         11   -1    0    0    0    0 -0.00000000000E+00 -0.00000000000E+00 -0.45593999997E+02  0.45594000000E+02  0.51100000000E-03 0.  1.
    9900012    2    1    2    0    0 -0.28457976298E+02 -0.16570618713E+02  0.23847928121E+02  0.50528862095E+02  0.30000006825E+02 0.  0.
        -12    1    1    2    0    0  0.28457976298E+02  0.16570618713E+02 -0.23847928121E+02  0.40659137905E+02  0.00000000000E+00 0.  1.
         11    1    3    3    0    0 -0.16224945426E+02  0.30481901577E+01  0.12846730630E+02  0.20918384389E+02  0.51100000000E-03 0. -1.
        -11    1    3    3    0    0  0.17928391961E+01  0.13437810712E+01  0.53829464631E+00  0.23042962782E+01  0.51100000000E-03 0.  1.
         12    1    3    3    0    0 -0.14025870068E+02 -0.20962589942E+02  0.10462902845E+02  0.27306181428E+02  0.00000000000E+00 0. -1.
</event>
<event>
 7    1  0.5041278E-013  0.5052885E+02  0.7816164E-02  0.1300439E+00
        -11   -1    0    0    0    0  0.00000000000E+00  0.00000000000E+00  0.45593999997E+02  0.45594000000E+02  0.51100000000E-03 0.  1.
         11   -1    0    0    0    0 -0.00000000000E+00 -0.00000000000E+00 -0.45593999997E+02  0.45594000000E+02  0.51100000000E-03 0. -1.
    9900012    2    1    2    0    0 -0.35832504977E+02 -0.69572731750E+01 -0.17910727483E+02  0.50528853158E+02  0.29999979660E+02 0.  0.
        -12    1    1    2    0    0  0.35832504977E+02  0.69572731750E+01  0.17910727483E+02  0.40659146842E+02  0.00000000000E+00 0.  1.
         11    1    3    3    0    0 -0.89894972652E+01  0.10955783049E+02 -0.83229864478E+01  0.16435094979E+02  0.51100000000E-03 0. -1.
        -11    1    3    3    0    0 -0.25786597077E+01 -0.25558750835E+01  0.48401858341E+00  0.36628209867E+01  0.51100000000E-03 0.  1.
         12    1    3    3    0    0 -0.24264348004E+02 -0.15357181140E+02 -0.10071759618E+02  0.30430937193E+02  0.00000000000E+00 0. -1.
</event>
<event>
 7    1  0.5041278E-013  0.5052886E+02  0.7816164E-02  0.1300439E+00
        -11   -1    0    0    0    0  0.00000000000E+00  0.00000000000E+00  0.45593999997E+02  0.45594000000E+02  0.51100000000E-03 0.  1.
         11   -1    0    0    0    0 -0.00000000000E+00 -0.00000000000E+00 -0.45593999997E+02  0.45594000000E+02  0.51100000000E-03 0. -1.
    9900012    2    1    2    0    0 -0.32086933757E+02 -0.15316805164E+02 -0.19722823278E+02  0.50528860850E+02  0.30000003040E+02 0.  0.
        -12    1    1    2    0    0  0.32086933757E+02  0.15316805164E+02  0.19722823278E+02  0.40659139150E+02  0.00000000000E+00 0.  1.
         11    1    3    3    0    0 -0.99180103645E+01  0.56971299649E+00 -0.13022709966E+02  0.16379330805E+02  0.51100000000E-03 0. -1.
        -11    1    3    3    0    0  0.28439086872E+01 -0.13616119021E+01 -0.40089083367E+01  0.51003088050E+01  0.51100000000E-03 0.  1.
        -12    1    3    3    0    0 -0.25012832080E+02 -0.14524906259E+02 -0.26912049748E+01  0.29049221241E+02  0.00000000000E+00 0.  1.
</event>
<event>
 7    1  0.5041278E-013  0.5052886E+02  0.7816164E-02  0.1300439E+00
        -11   -1    0    0    0    0  0.00000000000E+00  0.00000000000E+00  0.45593999997E+02  0.45594000000E+02  0.51100000000E-03 0.  1.
         11   -1    0    0    0    0 -0.00000000000E+00 -0.00000000000E+00 -0.45593999997E+02  0.45594000000E+02  0.51100000000E-03 0. -1.
    9900012    2    1    2    0    0  0.15708375140E+02 -0.26040957907E+02 -0.26986682647E+02  0.50528861070E+02  0.30000003707E+02 0.  0.
        -12    1    1    2    0    0 -0.15708375140E+02  0.26040957907E+02  0.26986682647E+02  0.40659138930E+02  0.00000000000E+00 0.  1.
         11    1    3    3    0    0 -0.16784001038E+01 -0.10563271971E+02 -0.38918656283E+01  0.11381843434E+02  0.51100000000E-03 0. -1.
        -11    1    3    3    0    0  0.33000957802E+01 -0.35608179344E+01  0.40517551791E+01  0.63235098492E+01  0.51100000000E-03 0.  1.
        -12    1    3    3    0    0  0.14086679464E+02 -0.11916868002E+02 -0.27146572198E+02  0.32823507786E+02  0.00000000000E+00 0.  1.
</event>
<event>
 7    1  0.5041278E-013  0.5052886E+02  0.7816164E-02  0.1300439E+00
        -11   -1    0    0    0    0  0.00000000000E+00  0.00000000000E+00  0.45593999997E+02  0.45594000000E+02  0.51100000000E-03 0.  1.
         11   -1    0    0    0    0 -0.00000000000E+00 -0.00000000000E+00 -0.45593999997E+02  0.45594000000E+02  0.51100000000E-03 0. -1.
    9900012    2    1    2    0    0  0.36375808502E+02 -0.16410651290E+02 -0.77882323895E+01  0.50528862236E+02  0.30000007254E+02 0.  0.
        -12    1    1    2    0    0 -0.36375808502E+02  0.16410651290E+02  0.77882323895E+01  0.40659137764E+02  0.00000000000E+00 0.  1.
         11    1    3    3    0    0 -0.28560475045E+01 -0.20392680496E+01  0.17196341220E+01  0.39080382931E+01  0.51100000000E-03 0. -1.
        -11    1    3    3    0    0  0.22089988628E+02  0.12376744309E+01 -0.18360493134E+01  0.22200687217E+02  0.51100000000E-03 0.  1.
         12    1    3    3    0    0  0.17141867379E+02 -0.15609057671E+02 -0.76718171981E+01  0.24420136726E+02  0.00000000000E+00 0. -1.
</event>
<event>
 7    1  0.5041278E-013  0.5052886E+02  0.7816164E-02  0.1300439E+00
        -11   -1    0    0    0    0  0.00000000000E+00  0.00000000000E+00  0.45593999997E+02  0.45594000000E+02  0.51100000000E-03 0.  1.
         11   -1    0    0    0    0 -0.00000000000E+00 -0.00000000000E+00 -0.45593999997E+02  0.45594000000E+02  0.51100000000E-03 0. -1.
    9900012    2    1    2    0    0 -0.26883111221E+02 -0.11995932210E+02 -0.28045709534E+02  0.50528857341E+02  0.29999992375E+02 0.  0.
        -12    1    1    2    0    0  0.26883111221E+02  0.11995932210E+02  0.28045709534E+02  0.40659142659E+02  0.00000000000E+00 0.  1.
         11    1    3    3    0    0 -0.25887133061E+01  0.55184372514E+01 -0.37961756265E+01  0.71809146998E+01  0.51100000000E-03 0.  1.
        -11    1    3    3    0    0 -0.15637034186E+02 -0.71609438963E+01 -0.19857496120E+01  0.17312976561E+02  0.51100000000E-03 0. -1.
         12    1    3    3    0    0 -0.86573637283E+01 -0.10353425565E+02 -0.22263784295E+02  0.26034966080E+02  0.00000000000E+00 0. -1.
</event>
<event>
 7    1  0.5041278E-013  0.5052885E+02  0.7816164E-02  0.1300439E+00
        -11   -1    0    0    0    0  0.00000000000E+00  0.00000000000E+00  0.45593999997E+02  0.45594000000E+02  0.51100000000E-03 0.  1.
         11   -1    0    0    0    0 -0.00000000000E+00 -0.00000000000E+00 -0.45593999997E+02  0.45594000000E+02  0.51100000000E-03 0. -1.
    9900012    2    1    2    0    0  0.30185890756E+02 -0.13996269846E+02 -0.23368411914E+02  0.50528852866E+02  0.29999978771E+02 0.  0.
        -12    1    1    2    0    0 -0.30185890756E+02  0.13996269846E+02  0.23368411914E+02  0.40659147134E+02  0.00000000000E+00 0.  1.
         11    1    3    3    0    0  0.79421622694E+01 -0.14042507135E+02 -0.81114113230E+01  0.18057268400E+02  0.51100000000E-03 0. -1.
        -11    1    3    3    0    0  0.24214233920E+02 -0.36375534258E+01 -0.13094652084E+02  0.27767441955E+02  0.51100000000E-03 0.  1.
        -12    1    3    3    0    0 -0.19705054336E+01  0.36837907152E+01 -0.21623485067E+01  0.47041425108E+01  0.00000000000E+00 0.  1.
</event>
<event>
 7    1  0.5041278E-013  0.5052886E+02  0.7816164E-02  0.1300439E+00
        -11   -1    0    0    0    0  0.00000000000E+00  0.00000000000E+00  0.45593999997E+02  0.45594000000E+02  0.51100000000E-03 0.  1.
         11   -1    0    0    0    0 -0.00000000000E+00 -0.00000000000E+00 -0.45593999997E+02  0.45594000000E+02  0.51100000000E-03 0. -1.
    9900012    2    1    2    0    0 -0.38092848861E+01 -0.13321013601E+02 -0.38225718550E+02  0.50528860641E+02  0.30000002406E+02 0.  0.
        -12    1    1    2    0    0  0.38092848861E+01  0.13321013601E+02  0.38225718550E+02  0.40659139359E+02  0.00000000000E+00 0.  1.
         11    1    3    3    0    0  0.37908212520E+01  0.18259799510E+00 -0.32565874259E+01  0.50009028901E+01  0.51100000000E-03 0.  1.
        -11    1    3    3    0    0  0.39913181627E+01 -0.16434096927E+02 -0.23562111226E+02  0.29003159279E+02  0.51100000000E-03 0. -1.
        -12    1    3    3    0    0 -0.11591424301E+02  0.29304853308E+01 -0.11407019898E+02  0.16524798472E+02  0.00000000000E+00 0.  1.
</event>
<event>
 7    1  0.5041278E-013  0.5052886E+02  0.7816164E-02  0.1300439E+00
        -11   -1    0    0    0    0  0.00000000000E+00  0.00000000000E+00  0.45593999997E+02  0.45594000000E+02  0.51100000000E-03 0.  1.
         11   -1    0    0    0    0 -0.00000000000E+00 -0.00000000000E+00 -0.45593999997E+02  0.45594000000E+02  0.51100000000E-03 0. -1.
    9900012    2    1    2    0    0  0.19162415845E+02 -0.12673938723E+02 -0.33546072984E+02  0.50528856915E+02  0.29999991078E+02 0.  0.
        -12    1    1    2    0    0 -0.19162415845E+02  0.12673938723E+02  0.33546072984E+02  0.40659143085E+02  0.00000000000E+00 0.  1.
         11    1    3    3    0    0  0.29957509464E+01 -0.54925529138E+01 -0.25641661399E+02  0.26393890597E+02  0.51100000000E-03 0. -1.
        -11    1    3    3    0    0 -0.12152939970E+01  0.24209057760E+01 -0.21550959879E+01  0.34615261452E+01  0.51100000000E-03 0.  1.
        -12    1    3    3    0    0  0.17381958896E+02 -0.96022915857E+01 -0.57493155962E+01  0.20673440173E+02  0.00000000000E+00 0.  1.
</event>
<event>
 7    1  0.5041278E-013  0.5052885E+02  0.7816164E-02  0.1300439E+00
        -11   -1    0    0    0    0  0.00000000000E+00  0.00000000000E+00  0.45593999997E+02  0.45594000000E+02  0.51100000000E-03 0.  1.
         11   -1    0    0    0    0 -0.00000000000E+00 -0.00000000000E+00 -0.45593999997E+02  0.45594000000E+02  0.51100000000E-03 0. -1.
    9900012    2    1    2    0    0  0.17303338978E+02  0.43527775046E+01 -0.36535108806E+02  0.50528851125E+02  0.29999973480E+02 0.  0.
        -12    1    1    2    0    0 -0.17303338978E+02 -0.43527775046E+01  0.36535108806E+02  0.40659148875E+02  0.00000000000E+00 0.  1.
         11    1    3    3    0    0  0.12906978021E+02 -0.65830352911E+01 -0.95165366307E+01  0.17334673489E+02  0.51100000000E-03 0. -1.
        -11    1    3    3    0    0  0.61905760862E+01  0.68836490025E+00 -0.19186540712E+02  0.20172268669E+02  0.51100000000E-03 0.  1.
         12    1    3    3    0    0 -0.17942151292E+01  0.10247447896E+02 -0.78320314631E+01  0.13021908967E+02  0.00000000000E+00 0. -1.
</event>
<event>
 7    1  0.5041278E-013  0.5052880E+02  0.7816164E-02  0.1300439E+00
        -11   -1    0    0    0    0  0.00000000000E+00  0.00000000000E+00  0.45593999997E+02  0.45594000000E+02  0.51100000000E-03 0.  1.
         11   -1    0    0    0    0 -0.00000000000E+00 -0.00000000000E+00 -0.45593999997E+02  0.45594000000E+02  0.51100000000E-03 0. -1.
    9900012    2    1    2    0    0 -0.38522260308E+02  0.25565891439E+01  0.12754218482E+02  0.50528797151E+02  0.29999809419E+02 0.  0.
        -12    1    1    2    0    0  0.38522260308E+02 -0.25565891439E+01 -0.12754218482E+02  0.40659202849E+02  0.00000000000E+00 0.  1.
         11    1    3    3    0    0 -0.32471499493E+02 -0.55321724135E+01  0.18271086186E+02  0.37667436886E+02  0.51100000000E-03 0. -1.
        -11    1    3    3    0    0  0.71502815191E+00 -0.34656466371E+00 -0.24667800238E+00  0.83199917195E+00  0.51100000000E-03 0.  1.
         12    1    3    3    0    0 -0.67657889669E+01  0.84353262211E+01 -0.52701897015E+01  0.12029361092E+02  0.00000000000E+00 0. -1.
</event>
<event>
 7    1  0.5041278E-013  0.5052884E+02  0.7816164E-02  0.1300439E+00
        -11   -1    0    0    0    0  0.00000000000E+00  0.00000000000E+00  0.45593999997E+02  0.45594000000E+02  0.51100000000E-03 0. -1.
         11   -1    0    0    0    0 -0.00000000000E+00 -0.00000000000E+00 -0.45593999997E+02  0.45594000000E+02  0.51100000000E-03 0.  1.
    9900012    2    1    2    0    0 -0.17400058957E+02  0.36284903274E+02  0.58147416719E+01  0.50528837711E+02  0.29999932706E+02 0.  0.
        -12    1    1    2    0    0  0.17400058957E+02 -0.36284903274E+02 -0.58147416719E+01  0.40659162289E+02  0.00000000000E+00 0.  1.
         11    1    3    3    0    0 -0.43245524137E+01  0.12621202227E+02  0.72910196982E+01  0.15203797807E+02  0.51100000000E-03 0. -1.
        -11    1    3    3    0    0 -0.12372280135E+02  0.27966876769E+02 -0.29479570206E+01  0.30723117726E+02  0.51100000000E-03 0.  1.
         12    1    3    3    0    0 -0.70322640777E+00 -0.43031757218E+01  0.14716789943E+01  0.46019221783E+01  0.00000000000E+00 0. -1.
</event>
<event>
 7    1  0.5041278E-013  0.5052886E+02  0.7816164E-02  0.1300439E+00
        -11   -1    0    0    0    0  0.00000000000E+00  0.00000000000E+00  0.45593999997E+02  0.45594000000E+02  0.51100000000E-03 0.  1.
         11   -1    0    0    0    0 -0.00000000000E+00 -0.00000000000E+00 -0.45593999997E+02  0.45594000000E+02  0.51100000000E-03 0. -1.
    9900012    2    1    2    0    0  0.12915794060E+02 -0.32340427406E+02 -0.20986770464E+02  0.50528861845E+02  0.30000006065E+02 0.  0.
        -12    1    1    2    0    0 -0.12915794060E+02  0.32340427406E+02  0.20986770464E+02  0.40659138155E+02  0.00000000000E+00 0.  1.
         11    1    3    3    0    0 -0.11164868533E+01 -0.23177301815E+02 -0.60944298714E+01  0.23991163749E+02  0.51100000000E-03 0. -1.
        -11    1    3    3    0    0 -0.73582844299E+00 -0.24092373507E+01 -0.88650652332E+01  0.92160322243E+01  0.51100000000E-03 0.  1.
        -12    1    3    3    0    0  0.14768109356E+02 -0.67538882399E+01 -0.60272753595E+01  0.17321665871E+02  0.00000000000E+00 0.  1.
</event>
<event>
 7    1  0.5041278E-013  0.5052887E+02  0.7816164E-02  0.1300439E+00
        -11   -1    0    0    0    0  0.00000000000E+00  0.00000000000E+00  0.45593999997E+02  0.45594000000E+02  0.51100000000E-03 0.  1.
         11   -1    0    0    0    0 -0.00000000000E+00 -0.00000000000E+00 -0.45593999997E+02  0.45594000000E+02  0.51100000000E-03 0. -1.
    9900012    2    1    2    0    0  0.28661838264E+02 -0.16095653818E+02 -0.23928930625E+02  0.50528871070E+02  0.30000034106E+02 0.  0.
        -12    1    1    2    0    0 -0.28661838264E+02  0.16095653818E+02  0.23928930625E+02  0.40659128930E+02  0.00000000000E+00 0.  1.
         11    1    3    3    0    0  0.14523367732E+01  0.43671684589E+01 -0.46803124264E+01  0.65640511211E+01  0.51100000000E-03 0.  1.
        -11    1    3    3    0    0  0.17150633792E+02 -0.23432702810E+02 -0.14238357553E+02  0.32341407306E+02  0.51100000000E-03 0. -1.
         12    1    3    3    0    0  0.10058867698E+02  0.29698805331E+01 -0.50102606450E+01  0.11623412643E+02  0.00000000000E+00 0. -1.
</event>
<event>
 7    1  0.5041278E-013  0.5052886E+02  0.7816164E-02  0.1300439E+00
        -11   -1    0    0    0    0  0.00000000000E+00  0.00000000000E+00  0.45593999997E+02  0.45594000000E+02  0.51100000000E-03 0.  1.
         11   -1    0    0    0    0 -0.00000000000E+00 -0.00000000000E+00 -0.45593999997E+02  0.45594000000E+02  0.51100000000E-03 0. -1.
    9900012    2    1    2    0    0  0.28016701493E+02  0.10031209246E+02 -0.27705680897E+02  0.50528862337E+02  0.30000007561E+02 0.  0.
        -12    1    1    2    0    0 -0.28016701493E+02 -0.10031209246E+02  0.27705680897E+02  0.40659137663E+02  0.00000000000E+00 0.  1.
         11    1    3    3    0    0 -0.21419236712E+01  0.42059077549E+01 -0.13426883623E+01  0.49071691794E+01  0.51100000000E-03 0.  1.
        -11    1    3    3    0    0  0.12872301539E+01 -0.38034897365E+01 -0.10625464454E+02  0.11358872777E+02  0.51100000000E-03 0. -1.
         12    1    3    3    0    0  0.28871395010E+02  0.96287912272E+01 -0.15737528081E+02  0.34262820381E+02  0.00000000000E+00 0. -1.
</event>
<event>
 7    1  0.5041278E-013  0.5052886E+02  0.7816164E-02  0.1300439E+00
        -11   -1    0    0    0    0  0.00000000000E+00  0.00000000000E+00  0.45593999997E+02  0.45594000000E+02  0.51100000000E-03 0.  1.
         11   -1    0    0    0    0 -0.00000000000E+00 -0.00000000000E+00 -0.45593999997E+02  0.45594000000E+02  0.51100000000E-03 0. -1.
    9900012    2    1    2    0    0  0.13175334321E+02  0.34981472307E+02  0.15996022290E+02  0.50528861196E+02  0.30000004090E+02 0.  0.
        -12    1    1    2    0    0 -0.13175334321E+02 -0.34981472307E+02 -0.15996022290E+02  0.40659138804E+02  0.00000000000E+00 0.  1.
         11    1    3    3    0    0  0.62654613520E+01  0.21589673743E+01  0.46445729724E+01  0.80925400484E+01  0.51100000000E-03 0. -1.
        -11    1    3    3    0    0 -0.88752880315E+00  0.50994702437E+01 -0.66858088437E+01  0.84553145595E+01  0.51100000000E-03 0.  1.
        -12    1    3    3    0    0  0.77974017723E+01  0.27723034689E+02  0.18037258161E+02  0.33981006588E+02  0.00000000000E+00 0.  1.
</event>
<event>
 7    1  0.5041278E-013  0.5052884E+02  0.7816164E-02  0.1300439E+00
        -11   -1    0    0    0    0  0.00000000000E+00  0.00000000000E+00  0.45593999997E+02  0.45594000000E+02  0.51100000000E-03 0. -1.
         11   -1    0    0    0    0 -0.00000000000E+00 -0.00000000000E+00 -0.45593999997E+02  0.45594000000E+02  0.51100000000E-03 0.  1.
    9900012    2    1    2    0    0 -0.14097426517E+02 -0.31731856587E+02 -0.21154654441E+02  0.50528836686E+02  0.29999929592E+02 0.  0.
        -12    1    1    2    0    0  0.14097426517E+02  0.31731856587E+02  0.21154654441E+02  0.40659163314E+02  0.00000000000E+00 0.  1.
         11    1    3    3    0    0  0.53920381963E+01 -0.61505406462E+01  0.95494203812E+00  0.82349948821E+01  0.51100000000E-03 0.  1.
        -11    1    3    3    0    0 -0.47904495428E+01  0.11228578707E+01 -0.53560980713E+00  0.49493529624E+01  0.51100000000E-03 0. -1.
         12    1    3    3    0    0 -0.14699015170E+02 -0.26704173811E+02 -0.21573986672E+02  0.37344488842E+02  0.00000000000E+00 0. -1.
</event>
<event>
 7    1  0.5041278E-013  0.5052885E+02  0.7816164E-02  0.1300439E+00
        -11   -1    0    0    0    0  0.00000000000E+00  0.00000000000E+00  0.45593999997E+02  0.45594000000E+02  0.51100000000E-03 0.  1.
         11   -1    0    0    0    0 -0.00000000000E+00 -0.00000000000E+00 -0.45593999997E+02  0.45594000000E+02  0.51100000000E-03 0. -1.
    9900012    2    1    2    0    0 -0.14297198175E+02 -0.12839477155E+02 -0.35831606533E+02  0.50528854952E+02  0.29999985113E+02 0.  0.
        -12    1    1    2    0    0  0.14297198175E+02  0.12839477155E+02  0.35831606533E+02  0.40659145048E+02  0.00000000000E+00 0.  1.
         11    1    3    3    0    0 -0.48072832231E+01  0.13509159361E+01 -0.74540174398E+01  0.89720299881E+01  0.51100000000E-03 0. -1.
        -11    1    3    3    0    0 -0.99345821139E+01 -0.19668279173E+01  0.55737256460E+00  0.10142731302E+02  0.51100000000E-03 0.  1.
         12    1    3    3    0    0  0.44466716185E+00 -0.12223565174E+02 -0.28934961658E+02  0.31414093662E+02  0.00000000000E+00 0. -1.
</event>
<event>
 7    1  0.5041278E-013  0.5052886E+02  0.7816164E-02  0.1300439E+00
        -11   -1    0    0    0    0  0.00000000000E+00  0.00000000000E+00  0.45593999997E+02  0.45594000000E+02  0.51100000000E-03 0.  1.
         11   -1    0    0    0    0 -0.00000000000E+00 -0.00000000000E+00 -0.45593999997E+02  0.45594000000E+02  0.51100000000E-03 0. -1.
    9900012    2    1    2    0    0 -0.36052471443E+02  0.15470551646E+02  0.10679283386E+02  0.50528858850E+02  0.29999996961E+02 0.  0.
        -12    1    1    2    0    0  0.36052471443E+02 -0.15470551646E+02 -0.10679283386E+02  0.40659141150E+02  0.00000000000E+00 0.  1.
         11    1    3    3    0    0 -0.22129585773E+02  0.16343088825E+02  0.14227663612E+02  0.30971624609E+02  0.51100000000E-03 0. -1.
        -11    1    3    3    0    0 -0.85796541736E+01  0.36848060643E+01  0.31477370603E+01  0.98537561535E+01  0.51100000000E-03 0.  1.
        -12    1    3    3    0    0 -0.53432314970E+01 -0.45573432433E+01 -0.66961172869E+01  0.97034780872E+01  0.00000000000E+00 0.  1.
</event>
<event>
 7    1  0.5041278E-013  0.5052886E+02  0.7816164E-02  0.1300439E+00
        -11   -1    0    0    0    0  0.00000000000E+00  0.00000000000E+00  0.45593999997E+02  0.45594000000E+02  0.51100000000E-03 0. -1.
         11   -1    0    0    0    0 -0.00000000000E+00 -0.00000000000E+00 -0.45593999997E+02  0.45594000000E+02  0.51100000000E-03 0.  1.
    9900012    2    1    2    0    0 -0.17738141433E+01  0.87405032442E+00  0.40611026819E+02  0.50528857364E+02  0.29999992444E+02 0.  0.
        -12    1    1    2    0    0  0.17738141433E+01 -0.87405032442E+00 -0.40611026819E+02  0.40659142636E+02  0.00000000000E+00 0.  1.
         11    1    3    3    0    0  0.82922917251E+01  0.19612043312E+01  0.27715255172E+02  0.28995582318E+02  0.51100000000E-03 0. -1.
        -11    1    3    3    0    0 -0.26586485970E+01 -0.17438972084E+01  0.13690079718E+02  0.14054460957E+02  0.51100000000E-03 0.  1.
        -12    1    3    3    0    0 -0.74074572714E+01  0.65674320163E+00 -0.79430807092E+00  0.74788140886E+01  0.00000000000E+00 0.  1.
</event>
<event>
 7    1  0.5041278E-013  0.5052887E+02  0.7816164E-02  0.1300439E+00
        -11   -1    0    0    0    0  0.00000000000E+00  0.00000000000E+00  0.45593999997E+02  0.45594000000E+02  0.51100000000E-03 0.  1.
         11   -1    0    0    0    0 -0.00000000000E+00 -0.00000000000E+00 -0.45593999997E+02  0.45594000000E+02  0.51100000000E-03 0. -1.
    9900012    2    1    2    0    0  0.24395516185E+02  0.32277656719E+02 -0.40220527058E+01  0.50528865219E+02  0.30000016320E+02 0.  0.
        -12    1    1    2    0    0 -0.24395516185E+02 -0.32277656719E+02  0.40220527058E+01  0.40659134781E+02  0.00000000000E+00 0.  1.
         11    1    3    3    0    0 -0.20934567252E+01  0.73549709378E+01 -0.75093926361E+01  0.10717702020E+02  0.51100000000E-03 0. -1.
        -11    1    3    3    0    0  0.11193019342E+02  0.32680887679E+01 -0.38895302799E+01  0.12291970234E+02  0.51100000000E-03 0.  1.
        -12    1    3    3    0    0  0.15295953568E+02  0.21654597013E+02  0.73768702103E+01  0.27519192965E+02  0.00000000000E+00 0.  1.
</event>
<event>
 7    1  0.5041278E-013  0.5052883E+02  0.7816164E-02  0.1300439E+00
        -11   -1    0    0    0    0  0.00000000000E+00  0.00000000000E+00  0.45593999997E+02  0.45594000000E+02  0.51100000000E-03 0. -1.
         11   -1    0    0    0    0 -0.00000000000E+00 -0.00000000000E+00 -0.45593999997E+02  0.45594000000E+02  0.51100000000E-03 0.  1.
    9900012    2    1    2    0    0  0.24541395395E+02  0.32029429552E+02 -0.50003381297E+01  0.50528833423E+02  0.29999919673E+02 0.  0.
        -12    1    1    2    0    0 -0.24541395395E+02 -0.32029429552E+02  0.50003381297E+01  0.40659166577E+02  0.00000000000E+00 0.  1.
         11    1    3    3    0    0  0.26211677539E+02  0.16810226882E+02 -0.10786944408E+01  0.31157653140E+02  0.51100000000E-03 0. -1.
        -11    1    3    3    0    0  0.10269016638E+01  0.19375289536E+01 -0.53124492534E+01  0.57472308815E+01  0.51100000000E-03 0.  1.
        -12    1    3    3    0    0 -0.26971838080E+01  0.13281673716E+02  0.13908055646E+01  0.13623949402E+02  0.00000000000E+00 0.  1.
</event>
<event>
 7    1  0.5041278E-013  0.5052886E+02  0.7816164E-02  0.1300439E+00
        -11   -1    0    0    0    0  0.00000000000E+00  0.00000000000E+00  0.45593999997E+02  0.45594000000E+02  0.51100000000E-03 0.  1.
         11   -1    0    0    0    0 -0.00000000000E+00 -0.00000000000E+00 -0.45593999997E+02  0.45594000000E+02  0.51100000000E-03 0. -1.
    9900012    2    1    2    0    0 -0.34132947895E+00 -0.36996379699E+02 -0.16861711519E+02  0.50528856723E+02  0.29999990496E+02 0.  0.
        -12    1    1    2    0    0  0.34132947895E+00  0.36996379699E+02  0.16861711519E+02  0.40659143277E+02  0.00000000000E+00 0.  1.
         11    1    3    3    0    0  0.58196590578E+00 -0.74533608311E+01  0.28686860569E+01  0.80075359474E+01  0.51100000000E-03 0. -1.
        -11    1    3    3    0    0 -0.20068356785E+01 -0.23949544864E+02 -0.22531655730E+01  0.24138865839E+02  0.51100000000E-03 0.  1.
         12    1    3    3    0    0  0.10835402937E+01 -0.55934740036E+01 -0.17477232003E+02  0.18382454936E+02  0.00000000000E+00 0. -1.
</event>
<event>
 7    1  0.5041278E-013  0.5052886E+02  0.7816164E-02  0.1300439E+00
        -11   -1    0    0    0    0  0.00000000000E+00  0.00000000000E+00  0.45593999997E+02  0.45594000000E+02  0.51100000000E-03 0.  1.
         11   -1    0    0    0    0 -0.00000000000E+00 -0.00000000000E+00 -0.45593999997E+02  0.45594000000E+02  0.51100000000E-03 0. -1.
    9900012    2    1    2    0    0  0.13443565512E+02  0.75919967254E+01 -0.37613801551E+02  0.50528856685E+02  0.29999990381E+02 0.  0.
        -12    1    1    2    0    0 -0.13443565512E+02 -0.75919967254E+01  0.37613801551E+02  0.40659143315E+02  0.00000000000E+00 0.  1.
         11    1    3    3    0    0 -0.92812675680E+00 -0.50801319214E+00 -0.24132815907E+02  0.24155999266E+02  0.51100000000E-03 0. -1.
        -11    1    3    3    0    0  0.11112338214E+02  0.79755781585E+00 -0.14527762018E+02  0.18307813320E+02  0.51100000000E-03 0.  1.
        -12    1    3    3    0    0  0.32593540541E+01  0.73024521017E+01  0.10467763734E+01  0.80650440993E+01  0.00000000000E+00 0.  1.
</event>
<event>
 7    1  0.5041278E-013  0.5052883E+02  0.7816164E-02  0.1300439E+00
        -11   -1    0    0    0    0  0.00000000000E+00  0.00000000000E+00  0.45593999997E+02  0.45594000000E+02  0.51100000000E-03 0.  1.
         11   -1    0    0    0    0 -0.00000000000E+00 -0.00000000000E+00 -0.45593999997E+02  0.45594000000E+02  0.51100000000E-03 0. -1.
    9900012    2    1    2    0    0  0.62429890663E+01 -0.40154463338E+02  0.13460616235E+01  0.50528834731E+02  0.29999923650E+02 0.  0.
        -12    1    1    2    0    0 -0.62429890663E+01  0.40154463338E+02 -0.13460616235E+01  0.40659165269E+02  0.00000000000E+00 0.  1.
         11    1    3    3    0    0 -0.47393691723E+01 -0.21350840501E+01 -0.40348707431E+00  0.52137324569E+01  0.51100000000E-03 0. -1.
        -11    1    3    3    0    0 -0.51765823466E+00 -0.13840124692E+02  0.10242416515E+02  0.17225681927E+02  0.51100000000E-03 0.  1.
        -12    1    3    3    0    0  0.11500016473E+02 -0.24179254596E+02 -0.84928678168E+01  0.28089420347E+02  0.00000000000E+00 0.  1.
</event>
<event>
 7    1  0.5041278E-013  0.5052885E+02  0.7816164E-02  0.1300439E+00
        -11   -1    0    0    0    0  0.00000000000E+00  0.00000000000E+00  0.45593999997E+02  0.45594000000E+02  0.51100000000E-03 0. -1.
         11   -1    0    0    0    0 -0.00000000000E+00 -0.00000000000E+00 -0.45593999997E+02  0.45594000000E+02  0.51100000000E-03 0.  1.
    9900012    2    1    2    0    0 -0.29237054867E+02 -0.16790782327E+02  0.22725107532E+02  0.50528852680E+02  0.29999978205E+02 0.  0.
        -12    1    1    2    0    0  0.29237054867E+02  0.16790782327E+02 -0.22725107532E+02  0.40659147320E+02  0.00000000000E+00 0.  1.
         11    1    3    3    0    0 -0.14323800067E+02 -0.83467334216E+01  0.11883142101E+02  0.20397261424E+02  0.51100000000E-03 0. -1.
        -11    1    3    3    0    0 -0.30543746623E+01 -0.14446072264E+02  0.47493380586E+01  0.15510461653E+02  0.51100000000E-03 0.  1.
         12    1    3    3    0    0 -0.11858880139E+02  0.60020233588E+01  0.60926273727E+01  0.14621129602E+02  0.00000000000E+00 0. -1.
</event>
<event>
 7    1  0.5041278E-013  0.5052885E+02  0.7816164E-02  0.1300439E+00
        -11   -1    0    0    0    0  0.00000000000E+00  0.00000000000E+00  0.45593999997E+02  0.45594000000E+02  0.51100000000E-03 0. -1.
         11   -1    0    0    0    0 -0.00000000000E+00 -0.00000000000E+00 -0.45593999997E+02  0.45594000000E+02  0.51100000000E-03 0.  1.
    9900012    2    1    2    0    0  0.73851158790E+01  0.15171174943E+02  0.36992726970E+02  0.50528851775E+02  0.29999975455E+02 0.  0.
        -12    1    1    2    0    0 -0.73851158790E+01 -0.15171174943E+02 -0.36992726970E+02  0.40659148225E+02  0.00000000000E+00 0.  1.
         11    1    3    3    0    0  0.17396778314E+02  0.25886886044E+01  0.18858387377E+02  0.25787360840E+02  0.51100000000E-03 0.  1.
        -11    1    3    3    0    0 -0.11193310676E+01  0.40293059066E+01  0.26836268187E+01  0.49689094670E+01  0.51100000000E-03 0. -1.
        -12    1    3    3    0    0 -0.88923313673E+01  0.85531804324E+01  0.15450712774E+02  0.19772581468E+02  0.00000000000E+00 0.  1.
</event>
<event>
 7    1  0.5041278E-013  0.5052886E+02  0.7816164E-02  0.1300439E+00
        -11   -1    0    0    0    0  0.00000000000E+00  0.00000000000E+00  0.45593999997E+02  0.45594000000E+02  0.51100000000E-03 0.  1.
         11   -1    0    0    0    0 -0.00000000000E+00 -0.00000000000E+00 -0.45593999997E+02  0.45594000000E+02  0.51100000000E-03 0. -1.
    9900012    2    1    2    0    0 -0.31085607003E+01  0.38796079879E+02 -0.11762946898E+02  0.50528857322E+02  0.29999992315E+02 0.  0.
        -12    1    1    2    0    0  0.31085607003E+01 -0.38796079879E+02  0.11762946898E+02  0.40659142678E+02  0.00000000000E+00 0.  1.
         11    1    3    3    0    0 -0.13955294850E+01  0.22455084528E+01 -0.60287803398E+01  0.65830086891E+01  0.51100000000E-03 0. -1.
        -11    1    3    3    0    0 -0.49182502295E+01  0.20896775093E+01  0.53923589922E+01  0.75916713031E+01  0.51100000000E-03 0.  1.
        -12    1    3    3    0    0  0.32052190142E+01  0.34460893917E+02 -0.11126525550E+02  0.36354177330E+02  0.00000000000E+00 0.  1.
</event>
<event>
 7    1  0.5041278E-013  0.5052885E+02  0.7816164E-02  0.1300439E+00
        -11   -1    0    0    0    0  0.00000000000E+00  0.00000000000E+00  0.45593999997E+02  0.45594000000E+02  0.51100000000E-03 0.  1.
         11   -1    0    0    0    0 -0.00000000000E+00 -0.00000000000E+00 -0.45593999997E+02  0.45594000000E+02  0.51100000000E-03 0. -1.
    9900012    2    1    2    0    0  0.50848911233E+00 -0.25470504851E+02 -0.31688506331E+02  0.50528848360E+02  0.29999965076E+02 0.  0.
        -12    1    1    2    0    0 -0.50848911233E+00  0.25470504851E+02  0.31688506331E+02  0.40659151640E+02  0.00000000000E+00 0.  1.
         11    1    3    3    0    0  0.30741162792E+01 -0.38027250210E+01 -0.77267723901E+01  0.91440647588E+01  0.51100000000E-03 0. -1.
        -11    1    3    3    0    0 -0.72570039617E+01  0.27865445980E+01 -0.10543008831E+02  0.13099006557E+02  0.51100000000E-03 0.  1.
         12    1    3    3    0    0  0.46913767948E+01 -0.24454324428E+02 -0.13418725110E+02  0.28285777045E+02  0.00000000000E+00 0. -1.
</event>
<event>
 7    1  0.5041278E-013  0.5052886E+02  0.7816164E-02  0.1300439E+00
        -11   -1    0    0    0    0  0.00000000000E+00  0.00000000000E+00  0.45593999997E+02  0.45594000000E+02  0.51100000000E-03 0.  1.
         11   -1    0    0    0    0 -0.00000000000E+00 -0.00000000000E+00 -0.45593999997E+02  0.45594000000E+02  0.51100000000E-03 0. -1.
    9900012    2    1    2    0    0 -0.12921513480E+02 -0.22305661948E+02 -0.31442928342E+02  0.50528858245E+02  0.29999995121E+02 0.  0.
        -12    1    1    2    0    0  0.12921513480E+02  0.22305661948E+02  0.31442928342E+02  0.40659141755E+02  0.00000000000E+00 0.  1.
         11    1    3    3    0    0 -0.65770873265E+01 -0.19967602248E+02 -0.94967442555E+01  0.23068406294E+02  0.51100000000E-03 0. -1.
        -11    1    3    3    0    0 -0.80865047109E+01 -0.75924501686E+00 -0.34649632308E+01  0.88302877579E+01  0.51100000000E-03 0.  1.
         12    1    3    3    0    0  0.17420785579E+01 -0.15788146826E+01 -0.18481220856E+02  0.18630164192E+02  0.00000000000E+00 0. -1.
</event>
<event>
 7    1  0.5041278E-013  0.5052886E+02  0.7816164E-02  0.1300439E+00
        -11   -1    0    0    0    0  0.00000000000E+00  0.00000000000E+00  0.45593999997E+02  0.45594000000E+02  0.51100000000E-03 0. -1.
         11   -1    0    0    0    0 -0.00000000000E+00 -0.00000000000E+00 -0.45593999997E+02  0.45594000000E+02  0.51100000000E-03 0.  1.
    9900012    2    1    2    0    0  0.28746109361E+02  0.53318328748E+01 -0.28255949756E+02  0.50528856602E+02  0.29999990129E+02 0.  0.
        -12    1    1    2    0    0 -0.28746109361E+02 -0.53318328748E+01  0.28255949756E+02  0.40659143398E+02  0.00000000000E+00 0.  1.
         11    1    3    3    0    0  0.91660761685E+00 -0.57694939536E+01 -0.84282221148E+01  0.10254860227E+02  0.51100000000E-03 0. -1.
        -11    1    3    3    0    0  0.77481081899E+01  0.97838116053E+01 -0.15121388108E+02  0.19606440999E+02  0.51100000000E-03 0.  1.
         12    1    3    3    0    0  0.20081393554E+02  0.13175152230E+01 -0.47063395333E+01  0.20667555377E+02  0.00000000000E+00 0. -1.
</event>
<event>
 7    1  0.5041278E-013  0.5052888E+02  0.7816164E-02  0.1300439E+00
        -11   -1    0    0    0    0  0.00000000000E+00  0.00000000000E+00  0.45593999997E+02  0.45594000000E+02  0.51100000000E-03 0.  1.
         11   -1    0    0    0    0 -0.00000000000E+00 -0.00000000000E+00 -0.45593999997E+02  0.45594000000E+02  0.51100000000E-03 0. -1.
    9900012    2    1    2    0    0  0.45842864185E+01 -0.38041524476E+02 -0.13601141070E+02  0.50528876733E+02  0.30000051319E+02 0.  0.
        -12    1    1    2    0    0 -0.45842864185E+01  0.38041524476E+02  0.13601141070E+02  0.40659123267E+02  0.00000000000E+00 0.  1.
         11    1    3    3    0    0 -0.14861582970E+01 -0.29910838034E+01 -0.10300437776E+02  0.10828400964E+02  0.51100000000E-03 0. -1.
        -11    1    3    3    0    0 -0.25291515533E+01 -0.22165088360E+02  0.38493355499E+01  0.22638576236E+02  0.51100000000E-03 0.  1.
         12    1    3    3    0    0  0.85995962687E+01 -0.12885352313E+02 -0.71500388434E+01  0.17061899533E+02  0.00000000000E+00 0. -1.
</event>
<event>
 7    1  0.5041278E-013  0.5052887E+02  0.7816164E-02  0.1300439E+00
        -11   -1    0    0    0    0  0.00000000000E+00  0.00000000000E+00  0.45593999997E+02  0.45594000000E+02  0.51100000000E-03 0. -1.
         11   -1    0    0    0    0 -0.00000000000E+00 -0.00000000000E+00 -0.45593999997E+02  0.45594000000E+02  0.51100000000E-03 0.  1.
    9900012    2    1    2    0    0  0.12924641222E+02  0.38354842993E+02  0.38761903540E+01  0.50528865929E+02  0.30000018477E+02 0.  0.
        -12    1    1    2    0    0 -0.12924641222E+02 -0.38354842993E+02 -0.38761903540E+01  0.40659134071E+02  0.00000000000E+00 0.  1.
         11    1    3    3    0    0 -0.37376132604E-01  0.13033340954E+02  0.94184898719E+01  0.16080339708E+02  0.51100000000E-03 0. -1.
        -11    1    3    3    0    0  0.95808964125E+01  0.27039161932E+02 -0.12397618511E+01  0.28713182752E+02  0.51100000000E-03 0.  1.
        -12    1    3    3    0    0  0.33811209423E+01 -0.17176598922E+01 -0.43025376669E+01  0.57353434690E+01  0.00000000000E+00 0.  1.
</event>
<event>
 7    1  0.5041278E-013  0.5052886E+02  0.7816164E-02  0.1300439E+00
        -11   -1    0    0    0    0  0.00000000000E+00  0.00000000000E+00  0.45593999997E+02  0.45594000000E+02  0.51100000000E-03 0.  1.
         11   -1    0    0    0    0 -0.00000000000E+00 -0.00000000000E+00 -0.45593999997E+02  0.45594000000E+02  0.51100000000E-03 0. -1.
    9900012    2    1    2    0    0 -0.28643798206E+01 -0.12129474194E+02 -0.38701894448E+02  0.50528862653E+02  0.30000008520E+02 0.  0.
        -12    1    1    2    0    0  0.28643798206E+01  0.12129474194E+02  0.38701894448E+02  0.40659137347E+02  0.00000000000E+00 0.  1.
         11    1    3    3    0    0 -0.12264147595E+02 -0.15346408490E+02 -0.28678654053E+02  0.34761857952E+02  0.51100000000E-03 0. -1.
        -11    1    3    3    0    0  0.61151358473E+01 -0.14565131876E+01 -0.39233679656E+01  0.74100697399E+01  0.51100000000E-03 0.  1.
        -12    1    3    3    0    0  0.32846319269E+01  0.46734474838E+01 -0.60998724296E+01  0.83569349607E+01  0.00000000000E+00 0.  1.
</event>
<event>
 7    1  0.5041278E-013  0.5052886E+02  0.7816164E-02  0.1300439E+00
        -11   -1    0    0    0    0  0.00000000000E+00  0.00000000000E+00  0.45593999997E+02  0.45594000000E+02  0.51100000000E-03 0. -1.
         11   -1    0    0    0    0 -0.00000000000E+00 -0.00000000000E+00 -0.45593999997E+02  0.45594000000E+02  0.51100000000E-03 0.  1.
    9900012    2    1    2    0    0  0.18834559746E+02 -0.35892233868E+02 -0.31894488905E+01  0.50528859858E+02  0.30000000024E+02 0.  0.
        -12    1    1    2    0    0 -0.18834559746E+02  0.35892233868E+02  0.31894488905E+01  0.40659140142E+02  0.00000000000E+00 0.  1.
         11    1    3    3    0    0  0.32641365564E+01 -0.22259947740E+02 -0.52032754418E+01  0.23091858661E+02  0.51100000000E-03 0. -1.
        -11    1    3    3    0    0  0.12746775153E+02 -0.17841136989E+02  0.33848416484E+01  0.22186563482E+02  0.51100000000E-03 0.  1.
        -12    1    3    3    0    0  0.28236480361E+01  0.42088508611E+01 -0.13710150971E+01  0.52504377150E+01  0.00000000000E+00 0.  1.
</event>
<event>
 7    1  0.5041278E-013  0.5052888E+02  0.7816164E-02  0.1300439E+00
        -11   -1    0    0    0    0  0.00000000000E+00  0.00000000000E+00  0.45593999997E+02  0.45594000000E+02  0.51100000000E-03 0. -1.
         11   -1    0    0    0    0 -0.00000000000E+00 -0.00000000000E+00 -0.45593999997E+02  0.45594000000E+02  0.51100000000E-03 0.  1.
    9900012    2    1    2    0    0  0.57535744808E+01 -0.29966599444E+02  0.26871236857E+02  0.50528879599E+02  0.30000060030E+02 0.  0.
        -12    1    1    2    0    0 -0.57535744808E+01  0.29966599444E+02 -0.26871236857E+02  0.40659120401E+02  0.00000000000E+00 0.  1.
         11    1    3    3    0    0  0.25992684921E+01 -0.12360774471E+02  0.27367790525E+02  0.30142012221E+02  0.51100000000E-03 0. -1.
        -11    1    3    3    0    0 -0.78066120137E-01  0.12048840039E+01 -0.48305279189E+00  0.13004537834E+01  0.51100000000E-03 0.  1.
        -12    1    3    3    0    0  0.32323721089E+01 -0.18810708977E+02 -0.13500875996E-01  0.19086413595E+02  0.00000000000E+00 0.  1.
</event>
<event>
 7    1  0.5041278E-013  0.5052886E+02  0.7816164E-02  0.1300439E+00
        -11   -1    0    0    0    0  0.00000000000E+00  0.00000000000E+00  0.45593999997E+02  0.45594000000E+02  0.51100000000E-03 0.  1.
         11   -1    0    0    0    0 -0.00000000000E+00 -0.00000000000E+00 -0.45593999997E+02  0.45594000000E+02  0.51100000000E-03 0. -1.
    9900012    2    1    2    0    0 -0.30981940628E+02  0.26189294834E+02 -0.27213947115E+01  0.50528858369E+02  0.29999995499E+02 0.  0.
        -12    1    1    2    0    0  0.30981940628E+02 -0.26189294834E+02  0.27213947115E+01  0.40659141631E+02  0.00000000000E+00 0.  1.
         11    1    3    3    0    0 -0.66373574191E+01  0.15485736735E+02  0.91512886511E+00  0.16873055942E+02  0.51100000000E-03 0.  1.
        -11    1    3    3    0    0  0.33167855602E+01 -0.23778535887E+00 -0.19643740502E+01  0.38621721867E+01  0.51100000000E-03 0. -1.
         12    1    3    3    0    0 -0.27661368769E+02  0.10941343457E+02 -0.16721495264E+01  0.29793630240E+02  0.00000000000E+00 0. -1.
</event>
<event>
 7    1  0.5041278E-013  0.5052883E+02  0.7816164E-02  0.1300439E+00
        -11   -1    0    0    0    0  0.00000000000E+00  0.00000000000E+00  0.45593999997E+02  0.45594000000E+02  0.51100000000E-03 0. -1.
         11   -1    0    0    0    0 -0.00000000000E+00 -0.00000000000E+00 -0.45593999997E+02  0.45594000000E+02  0.51100000000E-03 0.  1.
    9900012    2    1    2    0    0  0.29290986891E+02 -0.25385549169E+02  0.12279257211E+02  0.50528829112E+02  0.29999906569E+02 0.  0.
        -12    1    1    2    0    0 -0.29290986891E+02  0.25385549169E+02 -0.12279257211E+02  0.40659170888E+02  0.00000000000E+00 0.  1.
         11    1    3    3    0    0  0.19579665780E+02 -0.18455765010E+02  0.41071825483E+01  0.27218514341E+02  0.51100000000E-03 0.  1.
        -11    1    3    3    0    0  0.14840333188E+02 -0.73597071779E+01  0.72466468472E+01  0.18080781777E+02  0.51100000000E-03 0. -1.
        -12    1    3    3    0    0 -0.51290120775E+01  0.42992301943E+00  0.92542781538E+00  0.52295329940E+01  0.00000000000E+00 0.  1.
</event>
<event>
 7    1  0.5041278E-013  0.5052886E+02  0.7816164E-02  0.1300439E+00
        -11   -1    0    0    0    0  0.00000000000E+00  0.00000000000E+00  0.45593999997E+02  0.45594000000E+02  0.51100000000E-03 0.  1.
         11   -1    0    0    0    0 -0.00000000000E+00 -0.00000000000E+00 -0.45593999997E+02  0.45594000000E+02  0.51100000000E-03 0. -1.
    9900012    2    1    2    0    0 -0.31152244214E+01  0.18046734346E+02 -0.36301190460E+02  0.50528859914E+02  0.30000000195E+02 0.  0.
        -12    1    1    2    0    0  0.31152244214E+01 -0.18046734346E+02  0.36301190460E+02  0.40659140086E+02  0.00000000000E+00 0.  1.
         11    1    3    3    0    0  0.50222488189E+01  0.12351542236E+02 -0.72469100894E+01  0.15175680707E+02  0.51100000000E-03 0. -1.
        -11    1    3    3    0    0  0.37793629500E+01 -0.14231318254E+01 -0.11693278168E+01  0.42043092541E+01  0.51100000000E-03 0.  1.
         12    1    3    3    0    0 -0.11916836190E+02  0.71183239345E+01 -0.27884952554E+02  0.31148869953E+02  0.00000000000E+00 0. -1.
</event>
<event>
 7    1  0.5041278E-013  0.5052886E+02  0.7816164E-02  0.1300439E+00
        -11   -1    0    0    0    0  0.00000000000E+00  0.00000000000E+00  0.45593999997E+02  0.45594000000E+02  0.51100000000E-03 0. -1.
         11   -1    0    0    0    0 -0.00000000000E+00 -0.00000000000E+00 -0.45593999997E+02  0.45594000000E+02  0.51100000000E-03 0.  1.
    9900012    2    1    2    0    0 -0.30410659329E+02  0.26641967404E+01  0.26856278924E+02  0.50528857575E+02  0.29999993084E+02 0.  0.
        -12    1    1    2    0    0  0.30410659329E+02 -0.26641967404E+01 -0.26856278924E+02  0.40659142425E+02  0.00000000000E+00 0.  1.
         11    1    3    3    0    0 -0.16387419429E+02  0.21981912306E+01  0.32828682189E+01  0.16856950621E+02  0.51100000000E-03 0. -1.
        -11    1    3    3    0    0 -0.98067498857E+01 -0.82740538793E+01  0.19043367234E+02  0.22962624997E+02  0.51100000000E-03 0.  1.
         12    1    3    3    0    0 -0.42164900142E+01  0.87400593891E+01  0.45300434715E+01  0.10709281956E+02  0.00000000000E+00 0. -1.
</event>
<event>
 7    1  0.5041278E-013  0.5052885E+02  0.7816164E-02  0.1300439E+00
        -11   -1    0    0    0    0  0.00000000000E+00  0.00000000000E+00  0.45593999997E+02  0.45594000000E+02  0.51100000000E-03 0.  1.
         11   -1    0    0    0    0 -0.00000000000E+00 -0.00000000000E+00 -0.45593999997E+02  0.45594000000E+02  0.51100000000E-03 0. -1.
    9900012    2    1    2    0    0  0.14527634623E+02 -0.25622878665E+02 -0.28028242459E+02  0.50528850302E+02  0.29999970979E+02 0.  0.
        -12    1    1    2    0    0 -0.14527634623E+02  0.25622878665E+02  0.28028242459E+02  0.40659149698E+02  0.00000000000E+00 0.  1.
         11    1    3    3    0    0  0.12112665586E+01 -0.83491819372E+01 -0.17612077487E+02  0.19528473555E+02  0.51100000000E-03 0. -1.
        -11    1    3    3    0    0  0.14189536774E+02 -0.88849062744E+01 -0.14012074419E+02  0.21831691257E+02  0.51100000000E-03 0.  1.
        -12    1    3    3    0    0 -0.87316871043E+00 -0.83887904532E+01  0.35959094471E+01  0.91686854901E+01  0.00000000000E+00 0.  1.
</event>
<event>
 7    1  0.5041278E-013  0.5052889E+02  0.7816164E-02  0.1300439E+00
        -11   -1    0    0    0    0  0.00000000000E+00  0.00000000000E+00  0.45593999997E+02  0.45594000000E+02  0.51100000000E-03 0. -1.
         11   -1    0    0    0    0 -0.00000000000E+00 -0.00000000000E+00 -0.45593999997E+02  0.45594000000E+02  0.51100000000E-03 0.  1.
    9900012    2    1    2    0    0 -0.36466189048E+02  0.15123757386E+02  0.97289549043E+01  0.50528886081E+02  0.30000079733E+02 0.  0.
        -12    1    1    2    0    0  0.36466189048E+02 -0.15123757386E+02 -0.97289549043E+01  0.40659113919E+02  0.00000000000E+00 0.  1.
         11    1    3    3    0    0 -0.27536320020E+02  0.66993325028E+01 -0.20952456839E+01  0.28416896927E+02  0.51100000000E-03 0. -1.
        -11    1    3    3    0    0 -0.76092782305E+01  0.95549348207E+01  0.22985937555E+01  0.12429055802E+02  0.51100000000E-03 0.  1.
         12    1    3    3    0    0 -0.13205907970E+01 -0.11305099379E+01  0.95256068327E+01  0.96829333522E+01  0.00000000000E+00 0. -1.
</event>
<event>
 7    1  0.5041278E-013  0.5052891E+02  0.7816164E-02  0.1300439E+00
        -11   -1    0    0    0    0  0.00000000000E+00  0.00000000000E+00  0.45593999997E+02  0.45594000000E+02  0.51100000000E-03 0. -1.
         11   -1    0    0    0    0 -0.00000000000E+00 -0.00000000000E+00 -0.45593999997E+02  0.45594000000E+02  0.51100000000E-03 0.  1.
    9900012    2    1    2    0    0 -0.78894375962E+01  0.37637964427E+02 -0.13202362720E+02  0.50528905407E+02  0.30000138474E+02 0.  0.
        -12    1    1    2    0    0  0.78894375962E+01 -0.37637964427E+02  0.13202362720E+02  0.40659094593E+02  0.00000000000E+00 0.  1.
         11    1    3    3    0    0  0.88695932811E+01  0.69939885118E+01 -0.84470392036E+00  0.11326918612E+02  0.51100000000E-03 0. -1.
        -11    1    3    3    0    0  0.20904045816E+01  0.40649637154E+01 -0.21864611267E+01  0.50669846894E+01  0.51100000000E-03 0.  1.
        -12    1    3    3    0    0 -0.18849435459E+02  0.26579012199E+02 -0.10171197673E+02  0.34135002105E+02  0.00000000000E+00 0.  1.
</event>
<event>
 7    1  0.5041278E-013  0.5052888E+02  0.7816164E-02  0.1300439E+00
        -11   -1    0    0    0    0  0.00000000000E+00  0.00000000000E+00  0.45593999997E+02  0.45594000000E+02  0.51100000000E-03 0.  1.
         11   -1    0    0    0    0 -0.00000000000E+00 -0.00000000000E+00 -0.45593999997E+02  0.45594000000E+02  0.51100000000E-03 0. -1.
    9900012    2    1    2    0    0  0.37182204256E+02  0.89401794935E+01  0.13810177743E+02  0.50528878858E+02  0.30000057778E+02 0.  0.
        -12    1    1    2    0    0 -0.37182204256E+02 -0.89401794935E+01 -0.13810177743E+02  0.40659121142E+02  0.00000000000E+00 0.  1.
         11    1    3    3    0    0  0.23654159089E+02  0.10435892870E+02  0.52218990056E+00  0.25859230165E+02  0.51100000000E-03 0. -1.
        -11    1    3    3    0    0  0.11799249481E+02  0.54003693507E+01  0.11499801789E+02  0.17338734639E+02  0.51100000000E-03 0.  1.
        -12    1    3    3    0    0  0.17287956864E+01 -0.68960827271E+01  0.17881860529E+01  0.73309140538E+01  0.00000000000E+00 0.  1.
</event>
<event>
 7    1  0.5041278E-013  0.5052885E+02  0.7816164E-02  0.1300439E+00
        -11   -1    0    0    0    0  0.00000000000E+00  0.00000000000E+00  0.45593999997E+02  0.45594000000E+02  0.51100000000E-03 0.  1.
         11   -1    0    0    0    0 -0.00000000000E+00 -0.00000000000E+00 -0.45593999997E+02  0.45594000000E+02  0.51100000000E-03 0. -1.
    9900012    2    1    2    0    0 -0.55988385719E+01  0.45521279577E+01 -0.40013712928E+02  0.50528854846E+02  0.29999984791E+02 0.  0.
        -12    1    1    2    0    0  0.55988385719E+01 -0.45521279577E+01  0.40013712928E+02  0.40659145154E+02  0.00000000000E+00 0.  1.
         11    1    3    3    0    0 -0.62697588237E+01  0.34048208033E+00 -0.18985193678E+02  0.19996584284E+02  0.51100000000E-03 0. -1.
        -11    1    3    3    0    0 -0.76846819237E+01  0.95045762900E+01 -0.10930562633E+02  0.16397210325E+02  0.51100000000E-03 0.  1.
        -12    1    3    3    0    0  0.83556021756E+01 -0.52929304127E+01 -0.10097956617E+02  0.14135060237E+02  0.00000000000E+00 0.  1.
</event>
<event>
 7    1  0.5041278E-013  0.5052886E+02  0.7816164E-02  0.1300439E+00
        -11   -1    0    0    0    0  0.00000000000E+00  0.00000000000E+00  0.45593999997E+02  0.45594000000E+02  0.51100000000E-03 0.  1.
         11   -1    0    0    0    0 -0.00000000000E+00 -0.00000000000E+00 -0.45593999997E+02  0.45594000000E+02  0.51100000000E-03 0. -1.
    9900012    2    1    2    0    0  0.15027891116E+02 -0.19771353257E+02 -0.32193502429E+02  0.50528861794E+02  0.30000005909E+02 0.  0.
        -12    1    1    2    0    0 -0.15027891116E+02  0.19771353257E+02  0.32193502429E+02  0.40659138206E+02  0.00000000000E+00 0.  1.
         11    1    3    3    0    0  0.18193469125E+02 -0.14552017756E+02 -0.11882469480E+02  0.26152564325E+02  0.51100000000E-03 0. -1.
        -11    1    3    3    0    0  0.38528310885E+01 -0.46567172270E+01 -0.12341721526E+02  0.13742176436E+02  0.51100000000E-03 0.  1.
        -12    1    3    3    0    0 -0.70184090971E+01 -0.56261827424E+00 -0.79693114231E+01  0.10634121033E+02  0.00000000000E+00 0.  1.
</event>
<event>
 7    1  0.5041278E-013  0.5052890E+02  0.7816164E-02  0.1300439E+00
        -11   -1    0    0    0    0  0.00000000000E+00  0.00000000000E+00  0.45593999997E+02  0.45594000000E+02  0.51100000000E-03 0. -1.
         11   -1    0    0    0    0 -0.00000000000E+00 -0.00000000000E+00 -0.45593999997E+02  0.45594000000E+02  0.51100000000E-03 0.  1.
    9900012    2    1    2    0    0  0.38857462210E+02  0.11525686130E+02  0.32278368074E+01  0.50528895969E+02  0.30000109786E+02 0.  0.
        -12    1    1    2    0    0 -0.38857462210E+02 -0.11525686130E+02 -0.32278368074E+01  0.40659104031E+02  0.00000000000E+00 0.  1.
         11    1    3    3    0    0  0.11045003934E+02  0.14665374437E+01  0.56771501846E+01  0.12504914172E+02  0.51100000000E-03 0. -1.
        -11    1    3    3    0    0  0.17213933784E+02  0.12106979511E+02  0.84552797392E+01  0.22680172507E+02  0.51100000000E-03 0.  1.
         12    1    3    3    0    0  0.10598524491E+02 -0.20478308245E+01 -0.10904593116E+02  0.15343809290E+02  0.00000000000E+00 0. -1.
</event>
<event>
 7    1  0.5580896E-013  0.5052886E+02  0.7816164E-02  0.1300439E+00
        -11   -1    0    0    0    0  0.00000000000E+00  0.00000000000E+00  0.45593999997E+02  0.45594000000E+02  0.51100000000E-03 0. -1.
         11   -1    0    0    0    0 -0.00000000000E+00 -0.00000000000E+00 -0.45593999997E+02  0.45594000000E+02  0.51100000000E-03 0.  1.
    9900012    2    1    2    0    0 -0.16268114782E+02 -0.21203662649E+02  0.30641777837E+02  0.50528863053E+02  0.30000009734E+02 0.  0.
        -12    1    1    2    0    0  0.16268114782E+02  0.21203662649E+02 -0.30641777837E+02  0.40659136947E+02  0.00000000000E+00 0.  1.
         11    1    3    3    0    0 -0.93514223421E+01 -0.10123783975E+01  0.56879913190E+01  0.10992145166E+02  0.51100000000E-03 0. -1.
        -11    1    3    3    0    0  0.55693937063E+01  0.12562773462E+01  0.32611647906E+01  0.65750722490E+01  0.51100000000E-03 0.  1.
         12    1    3    3    0    0 -0.12486086147E+02 -0.21447561597E+02  0.21692621727E+02  0.32961645638E+02  0.00000000000E+00 0. -1.
</event>
<event>
 7    1  0.5041278E-013  0.5052894E+02  0.7816164E-02  0.1300439E+00
        -11   -1    0    0    0    0  0.00000000000E+00  0.00000000000E+00  0.45593999997E+02  0.45594000000E+02  0.51100000000E-03 0.  1.
         11   -1    0    0    0    0 -0.00000000000E+00 -0.00000000000E+00 -0.45593999997E+02  0.45594000000E+02  0.51100000000E-03 0. -1.
    9900012    2    1    2    0    0  0.25136919071E+02  0.50686918116E+01 -0.31553178459E+02  0.50528936953E+02  0.30000234361E+02 0.  0.
        -12    1    1    2    0    0 -0.25136919071E+02 -0.50686918116E+01  0.31553178459E+02  0.40659063047E+02  0.00000000000E+00 0.  1.
         11    1    3    3    0    0  0.34270250571E+01 -0.21065291495E+00 -0.55007699773E+01  0.64843924925E+01  0.51100000000E-03 0. -1.
        -11    1    3    3    0    0  0.27916980785E+01  0.11250714804E+02 -0.37711521480E+00  0.11598033363E+02  0.51100000000E-03 0.  1.
        -12    1    3    3    0    0  0.18918195935E+02 -0.59713700770E+01 -0.25675293266E+02  0.32446511097E+02  0.00000000000E+00 0.  1.
</event>
<event>
 7    1  0.5041278E-013  0.5052885E+02  0.7816164E-02  0.1300439E+00
        -11   -1    0    0    0    0  0.00000000000E+00  0.00000000000E+00  0.45593999997E+02  0.45594000000E+02  0.51100000000E-03 0. -1.
         11   -1    0    0    0    0 -0.00000000000E+00 -0.00000000000E+00 -0.45593999997E+02  0.45594000000E+02  0.51100000000E-03 0.  1.
    9900012    2    1    2    0    0 -0.34386089582E+02 -0.81070273698E+01  0.20125587664E+02  0.50528851849E+02  0.29999975681E+02 0.  0.
        -12    1    1    2    0    0  0.34386089582E+02  0.81070273698E+01 -0.20125587664E+02  0.40659148151E+02  0.00000000000E+00 0.  1.
         11    1    3    3    0    0 -0.29453485202E+02 -0.60765500759E+00  0.85283757006E+01  0.30669369532E+02  0.51100000000E-03 0. -1.
        -11    1    3    3    0    0 -0.77334536889E+01 -0.59199368871E+00  0.91927697123E+01  0.12027625607E+02  0.51100000000E-03 0.  1.
        -12    1    3    3    0    0  0.28008493089E+01 -0.69073786735E+01  0.24044422514E+01  0.78318567103E+01  0.00000000000E+00 0.  1.
</event>
<event>
 7    1  0.5041278E-013  0.5052886E+02  0.7816164E-02  0.1300439E+00
        -11   -1    0    0    0    0  0.00000000000E+00  0.00000000000E+00  0.45593999997E+02  0.45594000000E+02  0.51100000000E-03 0. -1.
         11   -1    0    0    0    0 -0.00000000000E+00 -0.00000000000E+00 -0.45593999997E+02  0.45594000000E+02  0.51100000000E-03 0.  1.
    9900012    2    1    2    0    0  0.25728786343E+02  0.53352009064E+01 -0.31027906582E+02  0.50528858319E+02  0.29999995345E+02 0.  0.
        -12    1    1    2    0    0 -0.25728786343E+02 -0.53352009064E+01  0.31027906582E+02  0.40659141681E+02  0.00000000000E+00 0.  1.
         11    1    3    3    0    0  0.10653479088E+01  0.72438440150E+01 -0.79681267341E+00  0.73649951106E+01  0.51100000000E-03 0. -1.
        -11    1    3    3    0    0  0.13219777455E+02  0.51359996648E+01 -0.58842892019E+01  0.15354669263E+02  0.51100000000E-03 0.  1.
        -12    1    3    3    0    0  0.11443660979E+02 -0.70446427734E+01 -0.24346804707E+02  0.27809193945E+02  0.00000000000E+00 0.  1.
</event>
<event>
 7    1  0.5041278E-013  0.5052886E+02  0.7816164E-02  0.1300439E+00
        -11   -1    0    0    0    0  0.00000000000E+00  0.00000000000E+00  0.45593999997E+02  0.45594000000E+02  0.51100000000E-03 0.  1.
         11   -1    0    0    0    0 -0.00000000000E+00 -0.00000000000E+00 -0.45593999997E+02  0.45594000000E+02  0.51100000000E-03 0. -1.
    9900012    2    1    2    0    0  0.38349963411E+02 -0.69716148867E+01 -0.11569032182E+02  0.50528860641E+02  0.30000002405E+02 0.  0.
        -12    1    1    2    0    0 -0.38349963411E+02  0.69716148867E+01  0.11569032182E+02  0.40659139359E+02  0.00000000000E+00 0.  1.
         11    1    3    3    0    0  0.10747843381E+02  0.64608385664E+01 -0.75421493519E+01  0.14633611633E+02  0.51100000000E-03 0. -1.
        -11    1    3    3    0    0 -0.13486083194E+01 -0.36795327581E+01  0.25107159474E+01  0.46541809749E+01  0.51100000000E-03 0.  1.
        -12    1    3    3    0    0  0.28950728350E+02 -0.97529206950E+01 -0.65375987776E+01  0.31241068033E+02  0.00000000000E+00 0.  1.
</event>
<event>
 7    1  0.5041278E-013  0.5052885E+02  0.7816164E-02  0.1300439E+00
        -11   -1    0    0    0    0  0.00000000000E+00  0.00000000000E+00  0.45593999997E+02  0.45594000000E+02  0.51100000000E-03 0.  1.
         11   -1    0    0    0    0 -0.00000000000E+00 -0.00000000000E+00 -0.45593999997E+02  0.45594000000E+02  0.51100000000E-03 0. -1.
    9900012    2    1    2    0    0 -0.80486279665E+01  0.39624623392E+02  0.42749403424E+01  0.50528852124E+02  0.29999976516E+02 0.  0.
        -12    1    1    2    0    0  0.80486279665E+01 -0.39624623392E+02 -0.42749403424E+01  0.40659147876E+02  0.00000000000E+00 0.  1.
         11    1    3    3    0    0 -0.14813401207E+02  0.26792005376E+02  0.13306298975E+01  0.30643416643E+02  0.51100000000E-03 0. -1.
        -11    1    3    3    0    0  0.24765838048E+01  0.90025617588E+01  0.79493025603E+01  0.12262585250E+02  0.51100000000E-03 0.  1.
        -12    1    3    3    0    0  0.42881894353E+01  0.38300562565E+01 -0.50049921153E+01  0.76228502304E+01  0.00000000000E+00 0.  1.
</event>
<event>
 7    1  0.5041278E-013  0.5052886E+02  0.7816164E-02  0.1300439E+00
        -11   -1    0    0    0    0  0.00000000000E+00  0.00000000000E+00  0.45593999997E+02  0.45594000000E+02  0.51100000000E-03 0.  1.
         11   -1    0    0    0    0 -0.00000000000E+00 -0.00000000000E+00 -0.45593999997E+02  0.45594000000E+02  0.51100000000E-03 0. -1.
    9900012    2    1    2    0    0 -0.31167744715E+02 -0.94407045357E+01  0.24343594163E+02  0.50528858475E+02  0.29999995822E+02 0.  0.
        -12    1    1    2    0    0  0.31167744715E+02  0.94407045357E+01 -0.24343594163E+02  0.40659141525E+02  0.00000000000E+00 0.  1.
         11    1    3    3    0    0 -0.81697066610E+01 -0.66782879723E+01  0.15519153187E+02  0.18766666009E+02  0.51100000000E-03 0. -1.
        -11    1    3    3    0    0  0.35075471387E+01 -0.19058180123E+01  0.10968592717E+01  0.41398224297E+01  0.51100000000E-03 0.  1.
        -12    1    3    3    0    0 -0.26505585192E+02 -0.85659855109E+00  0.77275817043E+01  0.27622370037E+02  0.00000000000E+00 0.  1.
</event>
<event>
 7    1  0.5041278E-013  0.5052886E+02  0.7816164E-02  0.1300439E+00
        -11   -1    0    0    0    0  0.00000000000E+00  0.00000000000E+00  0.45593999997E+02  0.45594000000E+02  0.51100000000E-03 0. -1.
         11   -1    0    0    0    0 -0.00000000000E+00 -0.00000000000E+00 -0.45593999997E+02  0.45594000000E+02  0.51100000000E-03 0.  1.
    9900012    2    1    2    0    0  0.12005694120E+02 -0.26325791991E+02 -0.28565387090E+02  0.50528863821E+02  0.30000012070E+02 0.  0.
        -12    1    1    2    0    0 -0.12005694120E+02  0.26325791991E+02  0.28565387090E+02  0.40659136179E+02  0.00000000000E+00 0.  1.
         11    1    3    3    0    0  0.41810232878E+01 -0.11252067290E+01 -0.14345252963E+02  0.14984436217E+02  0.51100000000E-03 0.  1.
        -11    1    3    3    0    0  0.29475874010E+01 -0.26324221391E+02 -0.15058507727E+02  0.30469846711E+02  0.51100000000E-03 0. -1.
         12    1    3    3    0    0  0.48770834311E+01  0.11236361299E+01  0.83837359984E+00  0.50745808930E+01  0.00000000000E+00 0. -1.
</event>
<event>
 7    1  0.5041278E-013  0.5052885E+02  0.7816164E-02  0.1300439E+00
        -11   -1    0    0    0    0  0.00000000000E+00  0.00000000000E+00  0.45593999997E+02  0.45594000000E+02  0.51100000000E-03 0. -1.
         11   -1    0    0    0    0 -0.00000000000E+00 -0.00000000000E+00 -0.45593999997E+02  0.45594000000E+02  0.51100000000E-03 0.  1.
    9900012    2    1    2    0    0 -0.33366370499E+02 -0.16636264177E+02  0.16219932560E+02  0.50528853695E+02  0.29999981290E+02 0.  0.
        -12    1    1    2    0    0  0.33366370499E+02  0.16636264177E+02 -0.16219932560E+02  0.40659146305E+02  0.00000000000E+00 0.  1.
         11    1    3    3    0    0 -0.17261612917E+02 -0.39244301677E+01  0.12681946187E+02  0.21776046289E+02  0.51100000000E-03 0. -1.
        -11    1    3    3    0    0 -0.87503109403E+01 -0.13878268571E+02  0.97243712301E+01  0.19071908037E+02  0.51100000000E-03 0.  1.
         12    1    3    3    0    0 -0.73544466410E+01  0.11664345620E+01 -0.61863848567E+01  0.96808993682E+01  0.00000000000E+00 0. -1.
</event>
<event>
 7    1  0.5041278E-013  0.5052888E+02  0.7816164E-02  0.1300439E+00
        -11   -1    0    0    0    0  0.00000000000E+00  0.00000000000E+00  0.45593999997E+02  0.45594000000E+02  0.51100000000E-03 0. -1.
         11   -1    0    0    0    0 -0.00000000000E+00 -0.00000000000E+00 -0.45593999997E+02  0.45594000000E+02  0.51100000000E-03 0.  1.
    9900012    2    1    2    0    0  0.11943077471E+02 -0.38858586149E+02 -0.73321376492E+00  0.50528875325E+02  0.30000047037E+02 0.  0.
        -12    1    1    2    0    0 -0.11943077471E+02  0.38858586149E+02  0.73321376492E+00  0.40659124675E+02  0.00000000000E+00 0.  1.
         11    1    3    3    0    0  0.19146918923E+02 -0.27652772887E+02  0.29549533056E+01  0.33764065246E+02  0.51100000000E-03 0. -1.
        -11    1    3    3    0    0  0.10005346787E+01 -0.40924129184E+01 -0.41265408503E+01  0.58972241596E+01  0.51100000000E-03 0.  1.
        -12    1    3    3    0    0 -0.82043761313E+01 -0.71134003429E+01  0.43837377987E+00  0.10867585919E+02  0.00000000000E+00 0.  1.
</event>
<event>
 7    1  0.5097412E-013  0.5052885E+02  0.7816164E-02  0.1300439E+00
        -11   -1    0    0    0    0  0.00000000000E+00  0.00000000000E+00  0.45593999997E+02  0.45594000000E+02  0.51100000000E-03 0.  1.
         11   -1    0    0    0    0 -0.00000000000E+00 -0.00000000000E+00 -0.45593999997E+02  0.45594000000E+02  0.51100000000E-03 0. -1.
    9900012    2    1    2    0    0 -0.39925771242E+02 -0.73596575981E+01 -0.22213303051E+01  0.50528854933E+02  0.29999985054E+02 0.  0.
        -12    1    1    2    0    0  0.39925771242E+02  0.73596575981E+01  0.22213303051E+01  0.40659145067E+02  0.00000000000E+00 0.  1.
         11    1    3    3    0    0 -0.77044466050E+01 -0.69720146952E+01  0.34205547222E+01  0.10939272429E+02  0.51100000000E-03 0. -1.
        -11    1    3    3    0    0 -0.37383676270E+01  0.71695059920E+01  0.33908494798E+01  0.87678429012E+01  0.51100000000E-03 0.  1.
         12    1    3    3    0    0 -0.28482957010E+02 -0.75571488949E+01 -0.90327345071E+01  0.30821739603E+02  0.00000000000E+00 0. -1.
</event>
<event>
 7    1  0.5041278E-013  0.5052886E+02  0.7816164E-02  0.1300439E+00
        -11   -1    0    0    0    0  0.00000000000E+00  0.00000000000E+00  0.45593999997E+02  0.45594000000E+02  0.51100000000E-03 0.  1.
         11   -1    0    0    0    0 -0.00000000000E+00 -0.00000000000E+00 -0.45593999997E+02  0.45594000000E+02  0.51100000000E-03 0. -1.
    9900012    2    1    2    0    0  0.19792113858E+01  0.23842757122E+02 -0.32875092647E+02  0.50528855132E+02  0.29999985658E+02 0.  0.
        -12    1    1    2    0    0 -0.19792113858E+01 -0.23842757122E+02  0.32875092647E+02  0.40659144868E+02  0.00000000000E+00 0.  1.
         11    1    3    3    0    0  0.91473203642E+00  0.54074541564E+01 -0.10088076341E+02  0.11482446589E+02  0.51100000000E-03 0. -1.
        -11    1    3    3    0    0  0.65756587528E+01  0.23165440590E+02 -0.19868794809E+02  0.31219319871E+02  0.51100000000E-03 0.  1.
         12    1    3    3    0    0 -0.55111794034E+01 -0.47301376252E+01 -0.29182214978E+01  0.78270886720E+01  0.00000000000E+00 0. -1.
</event>
<event>
 7    1  0.5041278E-013  0.5052886E+02  0.7816164E-02  0.1300439E+00
        -11   -1    0    0    0    0  0.00000000000E+00  0.00000000000E+00  0.45593999997E+02  0.45594000000E+02  0.51100000000E-03 0.  1.
         11   -1    0    0    0    0 -0.00000000000E+00 -0.00000000000E+00 -0.45593999997E+02  0.45594000000E+02  0.51100000000E-03 0. -1.
    9900012    2    1    2    0    0 -0.28401072169E+02  0.19138798938E+02 -0.21914640470E+02  0.50528855984E+02  0.29999988250E+02 0.  0.
        -12    1    1    2    0    0  0.28401072169E+02 -0.19138798938E+02  0.21914640470E+02  0.40659144016E+02  0.00000000000E+00 0.  1.
         11    1    3    3    0    0 -0.14446147465E+02 -0.34561894226E+00  0.93419053074E+00  0.14480446859E+02  0.51100000000E-03 0.  1.
        -11    1    3    3    0    0 -0.40325197180E+01  0.36071579909E+01 -0.14635139598E+02  0.15603208496E+02  0.51100000000E-03 0. -1.
        -12    1    3    3    0    0 -0.99224049858E+01  0.15877259890E+02 -0.82136914026E+01  0.20445200629E+02  0.00000000000E+00 0.  1.
</event>
<event>
 7    1  0.5041278E-013  0.5052886E+02  0.7816164E-02  0.1300439E+00
        -11   -1    0    0    0    0  0.00000000000E+00  0.00000000000E+00  0.45593999997E+02  0.45594000000E+02  0.51100000000E-03 0. -1.
         11   -1    0    0    0    0 -0.00000000000E+00 -0.00000000000E+00 -0.45593999997E+02  0.45594000000E+02  0.51100000000E-03 0.  1.
    9900012    2    1    2    0    0  0.27955133164E+02 -0.28650515991E+02  0.71291242802E+01  0.50528856505E+02  0.29999989832E+02 0.  0.
        -12    1    1    2    0    0 -0.27955133164E+02  0.28650515991E+02 -0.71291242802E+01  0.40659143495E+02  0.00000000000E+00 0.  1.
         11    1    3    3    0    0  0.18785002329E+02 -0.84125657500E+01  0.10377590947E+02  0.23050856147E+02  0.51100000000E-03 0. -1.
        -11    1    3    3    0    0  0.10375121848E+02 -0.44916821832E+01 -0.29442484189E+01  0.11682763423E+02  0.51100000000E-03 0.  1.
        -12    1    3    3    0    0 -0.12049910124E+01 -0.15746268058E+02 -0.30421824759E+00  0.15795236935E+02  0.00000000000E+00 0.  1.
</event>
<event>
 7    1  0.5041278E-013  0.5052885E+02  0.7816164E-02  0.1300439E+00
        -11   -1    0    0    0    0  0.00000000000E+00  0.00000000000E+00  0.45593999997E+02  0.45594000000E+02  0.51100000000E-03 0.  1.
         11   -1    0    0    0    0 -0.00000000000E+00 -0.00000000000E+00 -0.45593999997E+02  0.45594000000E+02  0.51100000000E-03 0. -1.
    9900012    2    1    2    0    0  0.25074689047E+02  0.74611652784E+01 -0.31124863043E+02  0.50528854442E+02  0.29999983561E+02 0.  0.
        -12    1    1    2    0    0 -0.25074689047E+02 -0.74611652784E+01  0.31124863043E+02  0.40659145558E+02  0.00000000000E+00 0.  1.
         11    1    3    3    0    0  0.21373322789E+02  0.84522849009E+01 -0.24937378971E+02  0.33913609618E+02  0.51100000000E-03 0. -1.
        -11    1    3    3    0    0  0.72552404690E+01 -0.59014042208E+01 -0.35188640948E+01  0.99923716313E+01  0.51100000000E-03 0.  1.
        -12    1    3    3    0    0 -0.35538742112E+01  0.49102845983E+01 -0.26686199769E+01  0.66228731927E+01  0.00000000000E+00 0.  1.
</event>
<event>
 7    1  0.5041278E-013  0.5052886E+02  0.7816164E-02  0.1300439E+00
        -11   -1    0    0    0    0  0.00000000000E+00  0.00000000000E+00  0.45593999997E+02  0.45594000000E+02  0.51100000000E-03 0. -1.
         11   -1    0    0    0    0 -0.00000000000E+00 -0.00000000000E+00 -0.45593999997E+02  0.45594000000E+02  0.51100000000E-03 0.  1.
    9900012    2    1    2    0    0 -0.13363466022E+02 -0.10322369904E+02  0.36986916421E+02  0.50528861656E+02  0.30000005491E+02 0.  0.
        -12    1    1    2    0    0  0.13363466022E+02  0.10322369904E+02 -0.36986916421E+02  0.40659138344E+02  0.00000000000E+00 0.  1.
         11    1    3    3    0    0 -0.10249213659E+02 -0.16684426118E+02  0.26124598489E+02  0.32648294013E+02  0.51100000000E-03 0. -1.
        -11    1    3    3    0    0 -0.51141667734E+01  0.30875970944E+00 -0.18382004898E+00  0.51267752453E+01  0.51100000000E-03 0.  1.
        -12    1    3    3    0    0  0.19999144109E+01  0.60532965053E+01  0.11046137981E+02  0.12753792398E+02  0.00000000000E+00 0.  1.
</event>
<event>
 7    1  0.5041278E-013  0.5052888E+02  0.7816164E-02  0.1300439E+00
        -11   -1    0    0    0    0  0.00000000000E+00  0.00000000000E+00  0.45593999997E+02  0.45594000000E+02  0.51100000000E-03 0.  1.
         11   -1    0    0    0    0 -0.00000000000E+00 -0.00000000000E+00 -0.45593999997E+02  0.45594000000E+02  0.51100000000E-03 0. -1.
    9900012    2    1    2    0    0 -0.36339564884E+01  0.15800466620E+02 -0.37286779058E+02  0.50528877067E+02  0.30000052334E+02 0.  0.
        -12    1    1    2    0    0  0.36339564884E+01 -0.15800466620E+02  0.37286779058E+02  0.40659122933E+02  0.00000000000E+00 0.  1.
         11    1    3    3    0    0 -0.37162257947E+01 -0.86290341075E+00 -0.12987154984E+01  0.40300866815E+01  0.51100000000E-03 0. -1.
        -11    1    3    3    0    0 -0.36092909715E+01  0.16100902536E+02 -0.81355949972E+01  0.18397117981E+02  0.51100000000E-03 0.  1.
        -12    1    3    3    0    0  0.36915602778E+01  0.56246749492E+00 -0.27852468562E+02  0.28101672405E+02  0.00000000000E+00 0.  1.
</event>
<event>
 7    1  0.5041278E-013  0.5052878E+02  0.7816164E-02  0.1300439E+00
        -11   -1    0    0    0    0  0.00000000000E+00  0.00000000000E+00  0.45593999997E+02  0.45594000000E+02  0.51100000000E-03 0.  1.
         11   -1    0    0    0    0 -0.00000000000E+00 -0.00000000000E+00 -0.45593999997E+02  0.45594000000E+02  0.51100000000E-03 0. -1.
    9900012    2    1    2    0    0 -0.89337062202E-01  0.40399994623E+02 -0.45830653305E+01  0.50528781679E+02  0.29999762391E+02 0.  0.
        -12    1    1    2    0    0  0.89337062202E-01 -0.40399994623E+02  0.45830653305E+01  0.40659218321E+02  0.00000000000E+00 0.  1.
         11    1    3    3    0    0  0.86104868895E+01  0.66348135560E+01 -0.32685089110E+01  0.11350964107E+02  0.51100000000E-03 0.  1.
        -11    1    3    3    0    0 -0.13517499316E+02  0.29965541209E+02  0.13312668652E+00  0.32873609031E+02  0.51100000000E-03 0. -1.
         12    1    3    3    0    0  0.48176753641E+01  0.37996398573E+01 -0.14476831060E+01  0.63042085415E+01  0.00000000000E+00 0. -1.
</event>
<event>
 7    1  0.5041278E-013  0.5052887E+02  0.7816164E-02  0.1300439E+00
        -11   -1    0    0    0    0  0.00000000000E+00  0.00000000000E+00  0.45593999997E+02  0.45594000000E+02  0.51100000000E-03 0.  1.
         11   -1    0    0    0    0 -0.00000000000E+00 -0.00000000000E+00 -0.45593999997E+02  0.45594000000E+02  0.51100000000E-03 0. -1.
    9900012    2    1    2    0    0  0.29513279157E+02 -0.17584169846E+02 -0.21746908050E+02  0.50528872052E+02  0.30000037089E+02 0.  0.
        -12    1    1    2    0    0 -0.29513279157E+02  0.17584169846E+02  0.21746908050E+02  0.40659127948E+02  0.00000000000E+00 0.  1.
         11    1    3    3    0    0  0.72063972955E+01 -0.13304625691E+01 -0.13307729038E+02  0.15192035579E+02  0.51100000000E-03 0. -1.
        -11    1    3    3    0    0  0.29355975456E+00  0.35743813593E+01  0.17714017723E+01  0.40000304913E+01  0.51100000000E-03 0.  1.
        -12    1    3    3    0    0  0.22013322107E+02 -0.19828088636E+02 -0.10210580784E+02  0.31336805981E+02  0.00000000000E+00 0.  1.
</event>
<event>
 7    1  0.5041278E-013  0.5052886E+02  0.7816164E-02  0.1300439E+00
        -11   -1    0    0    0    0  0.00000000000E+00  0.00000000000E+00  0.45593999997E+02  0.45594000000E+02  0.51100000000E-03 0.  1.
         11   -1    0    0    0    0 -0.00000000000E+00 -0.00000000000E+00 -0.45593999997E+02  0.45594000000E+02  0.51100000000E-03 0. -1.
    9900012    2    1    2    0    0 -0.26996473221E+02 -0.30363856581E+02 -0.15467267712E+01  0.50528859372E+02  0.29999998548E+02 0.  0.
        -12    1    1    2    0    0  0.26996473221E+02  0.30363856581E+02  0.15467267712E+01  0.40659140628E+02  0.00000000000E+00 0.  1.
         11    1    3    3    0    0 -0.11474106038E+02 -0.34577872642E+01  0.30199495361E+01  0.12358458544E+02  0.51100000000E-03 0. -1.
        -11    1    3    3    0    0 -0.20132937795E+02 -0.26250381592E+02 -0.28400869453E+01  0.33203671665E+02  0.51100000000E-03 0.  1.
        -12    1    3    3    0    0  0.46105706108E+01 -0.65568772554E+00 -0.17265893620E+01  0.49667291627E+01  0.00000000000E+00 0.  1.
</event>
<event>
 7    1  0.5041278E-013  0.5052885E+02  0.7816164E-02  0.1300439E+00
        -11   -1    0    0    0    0  0.00000000000E+00  0.00000000000E+00  0.45593999997E+02  0.45594000000E+02  0.51100000000E-03 0.  1.
         11   -1    0    0    0    0 -0.00000000000E+00 -0.00000000000E+00 -0.45593999997E+02  0.45594000000E+02  0.51100000000E-03 0. -1.
    9900012    2    1    2    0    0 -0.13566896317E+01 -0.52366930473E+00 -0.40633132811E+02  0.50528851972E+02  0.29999976054E+02 0.  0.
        -12    1    1    2    0    0  0.13566896317E+01  0.52366930473E+00  0.40633132811E+02  0.40659148028E+02  0.00000000000E+00 0.  1.
         11    1    3    3    0    0 -0.37196090052E+01  0.54651363051E+01 -0.52796746705E+00  0.66318893154E+01  0.51100000000E-03 0. -1.
        -11    1    3    3    0    0 -0.40832236552E-01 -0.99501943652E+01 -0.12857031973E+02  0.16257653785E+02  0.51100000000E-03 0.  1.
         12    1    3    3    0    0  0.24037516101E+01  0.39613887553E+01 -0.27248133371E+02  0.27639308871E+02  0.00000000000E+00 0. -1.
</event>
<event>
 7    1  0.5041278E-013  0.5052887E+02  0.7816164E-02  0.1300439E+00
        -11   -1    0    0    0    0  0.00000000000E+00  0.00000000000E+00  0.45593999997E+02  0.45594000000E+02  0.51100000000E-03 0. -1.
         11   -1    0    0    0    0 -0.00000000000E+00 -0.00000000000E+00 -0.45593999997E+02  0.45594000000E+02  0.51100000000E-03 0.  1.
    9900012    2    1    2    0    0  0.57237887020E+01  0.40148969914E+02  0.29092251454E+01  0.50528866546E+02  0.30000020354E+02 0.  0.
        -12    1    1    2    0    0 -0.57237887020E+01 -0.40148969914E+02 -0.29092251454E+01  0.40659133454E+02  0.00000000000E+00 0.  1.
         11    1    3    3    0    0 -0.47486609889E+01  0.32494834694E+01  0.31575263807E+01  0.65634516157E+01  0.51100000000E-03 0. -1.
        -11    1    3    3    0    0  0.43134651376E+01 -0.21673680628E+00 -0.43363626962E+01  0.61202122537E+01  0.51100000000E-03 0.  1.
        -12    1    3    3    0    0  0.61589845533E+01  0.37116223251E+02  0.40880614610E+01  0.37845202677E+02  0.00000000000E+00 0.  1.
</event>
<event>
 7    1  0.5041278E-013  0.5052887E+02  0.7816164E-02  0.1300439E+00
        -11   -1    0    0    0    0  0.00000000000E+00  0.00000000000E+00  0.45593999997E+02  0.45594000000E+02  0.51100000000E-03 0.  1.
         11   -1    0    0    0    0 -0.00000000000E+00 -0.00000000000E+00 -0.45593999997E+02  0.45594000000E+02  0.51100000000E-03 0. -1.
    9900012    2    1    2    0    0 -0.17016362668E+02  0.25269943253E+02 -0.26926527140E+02  0.50528874403E+02  0.30000044237E+02 0.  0.
        -12    1    1    2    0    0  0.17016362668E+02 -0.25269943253E+02  0.26926527140E+02  0.40659125597E+02  0.00000000000E+00 0.  1.
         11    1    3    3    0    0 -0.45898080202E+01 -0.99204329127E+00 -0.13334848922E+02  0.14137492125E+02  0.51100000000E-03 0. -1.
        -11    1    3    3    0    0  0.10744815452E+01 -0.26669459674E+00  0.23696160300E+01  0.26154764365E+01  0.51100000000E-03 0.  1.
         12    1    3    3    0    0 -0.13501036193E+02  0.26528681141E+02 -0.15961294248E+02  0.33775905842E+02  0.00000000000E+00 0. -1.
</event>
<event>
 7    1  0.5041278E-013  0.5052886E+02  0.7816164E-02  0.1300439E+00
        -11   -1    0    0    0    0  0.00000000000E+00  0.00000000000E+00  0.45593999997E+02  0.45594000000E+02  0.51100000000E-03 0.  1.
         11   -1    0    0    0    0 -0.00000000000E+00 -0.00000000000E+00 -0.45593999997E+02  0.45594000000E+02  0.51100000000E-03 0. -1.
    9900012    2    1    2    0    0 -0.19808560502E+02 -0.69143612220E+01 -0.34827834782E+02  0.50528861595E+02  0.30000005303E+02 0.  0.
        -12    1    1    2    0    0  0.19808560502E+02  0.69143612220E+01  0.34827834782E+02  0.40659138405E+02  0.00000000000E+00 0.  1.
         11    1    3    3    0    0 -0.70014264138E+01 -0.70651484914E+01 -0.67461563004E+01  0.12018607246E+02  0.51100000000E-03 0. -1.
        -11    1    3    3    0    0 -0.17126238583E+02  0.18987978705E+01 -0.10183276599E+02  0.20015309239E+02  0.51100000000E-03 0.  1.
         12    1    3    3    0    0  0.43191044947E+01 -0.17480106012E+01 -0.17898401882E+02  0.18494945111E+02  0.00000000000E+00 0. -1.
</event>
<event>
 7    1  0.5041278E-013  0.5052885E+02  0.7816164E-02  0.1300439E+00
        -11   -1    0    0    0    0  0.00000000000E+00  0.00000000000E+00  0.45593999997E+02  0.45594000000E+02  0.51100000000E-03 0.  1.
         11   -1    0    0    0    0 -0.00000000000E+00 -0.00000000000E+00 -0.45593999997E+02  0.45594000000E+02  0.51100000000E-03 0. -1.
    9900012    2    1    2    0    0 -0.98005033260E+01  0.17588462611E+02 -0.35323678143E+02  0.50528854411E+02  0.29999983469E+02 0.  0.
        -12    1    1    2    0    0  0.98005033260E+01 -0.17588462611E+02  0.35323678143E+02  0.40659145589E+02  0.00000000000E+00 0.  1.
         11    1    3    3    0    0  0.35413178639E+00  0.77477602114E+01 -0.34154529519E+01  0.84745806235E+01  0.51100000000E-03 0. -1.
        -11    1    3    3    0    0 -0.16010210536E+02  0.12871465421E+02 -0.21524630738E+02  0.29754179407E+02  0.51100000000E-03 0.  1.
        -12    1    3    3    0    0  0.58555754237E+01 -0.30307630212E+01 -0.10383594452E+02  0.12300094381E+02  0.00000000000E+00 0.  1.
</event>
<event>
 7    1  0.5041278E-013  0.5052885E+02  0.7816164E-02  0.1300439E+00
        -11   -1    0    0    0    0  0.00000000000E+00  0.00000000000E+00  0.45593999997E+02  0.45594000000E+02  0.51100000000E-03 0.  1.
         11   -1    0    0    0    0 -0.00000000000E+00 -0.00000000000E+00 -0.45593999997E+02  0.45594000000E+02  0.51100000000E-03 0. -1.
    9900012    2    1    2    0    0 -0.13456662373E+02 -0.18865567333E+02 -0.33409207104E+02  0.50528849586E+02  0.29999968803E+02 0.  0.
        -12    1    1    2    0    0  0.13456662373E+02  0.18865567333E+02  0.33409207104E+02  0.40659150414E+02  0.00000000000E+00 0.  1.
         11    1    3    3    0    0  0.19524123727E+01 -0.17496048400E+02 -0.14184447017E+02  0.22608010995E+02  0.51100000000E-03 0. -1.
        -11    1    3    3    0    0  0.10115298132E+01  0.23247879860E+01 -0.60068224206E+01  0.65199499688E+01  0.51100000000E-03 0.  1.
        -12    1    3    3    0    0 -0.16420604559E+02 -0.36943069191E+01 -0.13217937666E+02  0.21400888623E+02  0.00000000000E+00 0.  1.
</event>
<event>
 7    1  0.5041278E-013  0.5052886E+02  0.7816164E-02  0.1300439E+00
        -11   -1    0    0    0    0  0.00000000000E+00  0.00000000000E+00  0.45593999997E+02  0.45594000000E+02  0.51100000000E-03 0. -1.
         11   -1    0    0    0    0 -0.00000000000E+00 -0.00000000000E+00 -0.45593999997E+02  0.45594000000E+02  0.51100000000E-03 0.  1.
    9900012    2    1    2    0    0  0.32349772483E+02 -0.19962798427E+02 -0.14427218539E+02  0.50528859139E+02  0.29999997840E+02 0.  0.
        -12    1    1    2    0    0 -0.32349772483E+02  0.19962798427E+02  0.14427218539E+02  0.40659140861E+02  0.00000000000E+00 0.  1.
         11    1    3    3    0    0  0.18463187381E+02 -0.37153970371E+01  0.22941210390E+01  0.18972518415E+02  0.51100000000E-03 0. -1.
        -11    1    3    3    0    0 -0.14808669898E+01  0.28908089280E+00 -0.66816340319E+01  0.68498736048E+01  0.51100000000E-03 0.  1.
         12    1    3    3    0    0  0.15367452092E+02 -0.16536482283E+02 -0.10039705546E+02  0.24706467120E+02  0.00000000000E+00 0. -1.
</event>
<event>
 7    1  0.5041278E-013  0.5052885E+02  0.7816164E-02  0.1300439E+00
        -11   -1    0    0    0    0  0.00000000000E+00  0.00000000000E+00  0.45593999997E+02  0.45594000000E+02  0.51100000000E-03 0. -1.
         11   -1    0    0    0    0 -0.00000000000E+00 -0.00000000000E+00 -0.45593999997E+02  0.45594000000E+02  0.51100000000E-03 0.  1.
    9900012    2    1    2    0    0 -0.70460939077E+01 -0.39969508919E+02  0.24406961303E+01  0.50528854901E+02  0.29999984958E+02 0.  0.
        -12    1    1    2    0    0  0.70460939077E+01  0.39969508919E+02 -0.24406961303E+01  0.40659145099E+02  0.00000000000E+00 0.  1.
         11    1    3    3    0    0 -0.78693224160E+01 -0.19160586578E+02  0.65413752979E+01  0.21721968243E+02  0.51100000000E-03 0. -1.
        -11    1    3    3    0    0 -0.11794453838E+01  0.36514560328E+01  0.39075881333E+00  0.38570604460E+01  0.51100000000E-03 0.  1.
         12    1    3    3    0    0  0.20026738921E+01 -0.24460378374E+02 -0.44914379809E+01  0.24949826212E+02  0.00000000000E+00 0. -1.
</event>
<event>
 7    1  0.5041278E-013  0.5052882E+02  0.7816164E-02  0.1300439E+00
        -11   -1    0    0    0    0  0.00000000000E+00  0.00000000000E+00  0.45593999997E+02  0.45594000000E+02  0.51100000000E-03 0.  1.
         11   -1    0    0    0    0 -0.00000000000E+00 -0.00000000000E+00 -0.45593999997E+02  0.45594000000E+02  0.51100000000E-03 0. -1.
    9900012    2    1    2    0    0 -0.37574615603E+01 -0.22725049456E+02 -0.33505562315E+02  0.50528817812E+02  0.29999872220E+02 0.  0.
        -12    1    1    2    0    0  0.37574615603E+01  0.22725049456E+02  0.33505562315E+02  0.40659182188E+02  0.00000000000E+00 0.  1.
         11    1    3    3    0    0  0.21530136946E+01 -0.13185298193E+02 -0.84067041918E+01  0.15784810168E+02  0.51100000000E-03 0. -1.
        -11    1    3    3    0    0 -0.10955347640E+02 -0.40887411011E+01 -0.39720649504E+01  0.12349686066E+02  0.51100000000E-03 0.  1.
        -12    1    3    3    0    0  0.50448723849E+01 -0.54510101624E+01 -0.21126793173E+02  0.22394321578E+02  0.00000000000E+00 0.  1.
</event>
<event>
 7    1  0.5041278E-013  0.5052887E+02  0.7816164E-02  0.1300439E+00
        -11   -1    0    0    0    0  0.00000000000E+00  0.00000000000E+00  0.45593999997E+02  0.45594000000E+02  0.51100000000E-03 0. -1.
         11   -1    0    0    0    0 -0.00000000000E+00 -0.00000000000E+00 -0.45593999997E+02  0.45594000000E+02  0.51100000000E-03 0.  1.
    9900012    2    1    2    0    0 -0.54418707011E+01 -0.28562723934E+02  0.28420443171E+02  0.50528871317E+02  0.30000034854E+02 0.  0.
        -12    1    1    2    0    0  0.54418707011E+01  0.28562723934E+02 -0.28420443171E+02  0.40659128683E+02  0.00000000000E+00 0.  1.
         11    1    3    3    0    0  0.27090844662E+01 -0.23060919398E+02  0.23035521667E+02  0.32707497624E+02  0.51100000000E-03 0. -1.
        -11    1    3    3    0    0 -0.15000928215E+01 -0.59560323795E+01  0.84807178954E+01  0.10471254770E+02  0.51100000000E-03 0.  1.
        -12    1    3    3    0    0 -0.66508623457E+01  0.45422784427E+00 -0.30957963908E+01  0.73501189222E+01  0.00000000000E+00 0.  1.
</event>
<event>
 7    1  0.5041278E-013  0.5052885E+02  0.7816164E-02  0.1300439E+00
        -11   -1    0    0    0    0  0.00000000000E+00  0.00000000000E+00  0.45593999997E+02  0.45594000000E+02  0.51100000000E-03 0.  1.
         11   -1    0    0    0    0 -0.00000000000E+00 -0.00000000000E+00 -0.45593999997E+02  0.45594000000E+02  0.51100000000E-03 0. -1.
    9900012    2    1    2    0    0  0.22585584880E+02 -0.41192586434E+01 -0.33557259837E+02  0.50528848215E+02  0.29999964633E+02 0.  0.
        -12    1    1    2    0    0 -0.22585584880E+02  0.41192586434E+01  0.33557259837E+02  0.40659151785E+02  0.00000000000E+00 0.  1.
         11    1    3    3    0    0  0.93091433113E+01 -0.13824904112E+02 -0.23515072772E+02  0.28822678061E+02  0.51100000000E-03 0. -1.
        -11    1    3    3    0    0  0.95640662470E-01  0.42661752030E+01 -0.25326928229E-02  0.42672479040E+01  0.51100000000E-03 0.  1.
        -12    1    3    3    0    0  0.13180800906E+02  0.54394702660E+01 -0.10039654372E+02  0.17438922249E+02  0.00000000000E+00 0.  1.
</event>
<event>
 7    1  0.5041278E-013  0.5052886E+02  0.7816164E-02  0.1300439E+00
        -11   -1    0    0    0    0  0.00000000000E+00  0.00000000000E+00  0.45593999997E+02  0.45594000000E+02  0.51100000000E-03 0.  1.
         11   -1    0    0    0    0 -0.00000000000E+00 -0.00000000000E+00 -0.45593999997E+02  0.45594000000E+02  0.51100000000E-03 0. -1.
    9900012    2    1    2    0    0 -0.29922100849E+02 -0.19793435181E+02 -0.19132522836E+02  0.50528860492E+02  0.30000001952E+02 0.  0.
        -12    1    1    2    0    0  0.29922100849E+02  0.19793435181E+02  0.19132522836E+02  0.40659139508E+02  0.00000000000E+00 0.  1.
         11    1    3    3    0    0 -0.52393042956E+01  0.10779602582E+01 -0.75710948693E+01  0.92700477669E+01  0.51100000000E-03 0. -1.
        -11    1    3    3    0    0 -0.18824513783E+02 -0.12281410631E+01 -0.32635364358E+01  0.19144746537E+02  0.51100000000E-03 0.  1.
         12    1    3    3    0    0 -0.58582827696E+01 -0.19643254376E+02 -0.82978915306E+01  0.22114066188E+02  0.00000000000E+00 0. -1.
</event>
<event>
 7    1  0.5041278E-013  0.5052886E+02  0.7816164E-02  0.1300439E+00
        -11   -1    0    0    0    0  0.00000000000E+00  0.00000000000E+00  0.45593999997E+02  0.45594000000E+02  0.51100000000E-03 0. -1.
         11   -1    0    0    0    0 -0.00000000000E+00 -0.00000000000E+00 -0.45593999997E+02  0.45594000000E+02  0.51100000000E-03 0.  1.
    9900012    2    1    2    0    0  0.95114849467E+01 -0.39416876643E+02 -0.30012564739E+01  0.50528855265E+02  0.29999986064E+02 0.  0.
        -12    1    1    2    0    0 -0.95114849467E+01  0.39416876643E+02  0.30012564739E+01  0.40659144735E+02  0.00000000000E+00 0.  1.
         11    1    3    3    0    0  0.38659492863E+01 -0.26752474681E+02  0.43689203841E+00  0.27033892438E+02  0.51100000000E-03 0. -1.
        -11    1    3    3    0    0 -0.32984600017E+01 -0.42871431157E+01 -0.86307136538E+01  0.10185708268E+02  0.51100000000E-03 0.  1.
         12    1    3    3    0    0  0.89439956621E+01 -0.83772588460E+01  0.51925651415E+01  0.13309254559E+02  0.00000000000E+00 0. -1.
</event>
<event>
 7    1  0.5041278E-013  0.5052886E+02  0.7816164E-02  0.1300439E+00
        -11   -1    0    0    0    0  0.00000000000E+00  0.00000000000E+00  0.45593999997E+02  0.45594000000E+02  0.51100000000E-03 0.  1.
         11   -1    0    0    0    0 -0.00000000000E+00 -0.00000000000E+00 -0.45593999997E+02  0.45594000000E+02  0.51100000000E-03 0. -1.
    9900012    2    1    2    0    0 -0.33741210670E+02 -0.21968102130E+02 -0.56655609783E+01  0.50528863390E+02  0.30000010759E+02 0.  0.
        -12    1    1    2    0    0  0.33741210670E+02  0.21968102130E+02  0.56655609783E+01  0.40659136610E+02  0.00000000000E+00 0.  1.
         11    1    3    3    0    0 -0.15525377617E+02 -0.57517350984E+01 -0.58366870269E+01  0.17555247720E+02  0.51100000000E-03 0. -1.
        -11    1    3    3    0    0  0.31901490607E+01 -0.10263064907E+02 -0.26975639110E+00  0.10750828856E+02  0.51100000000E-03 0.  1.
         12    1    3    3    0    0 -0.21405982114E+02 -0.59533021250E+01  0.44088243977E+00  0.22222786814E+02  0.00000000000E+00 0. -1.
</event>
<event>
 7    1  0.5041278E-013  0.5052886E+02  0.7816164E-02  0.1300439E+00
        -11   -1    0    0    0    0  0.00000000000E+00  0.00000000000E+00  0.45593999997E+02  0.45594000000E+02  0.51100000000E-03 0. -1.
         11   -1    0    0    0    0 -0.00000000000E+00 -0.00000000000E+00 -0.45593999997E+02  0.45594000000E+02  0.51100000000E-03 0.  1.
    9900012    2    1    2    0    0 -0.31695746380E+01 -0.40136371100E+02 -0.56737315437E+01  0.50528859354E+02  0.29999998492E+02 0.  0.
        -12    1    1    2    0    0  0.31695746380E+01  0.40136371100E+02  0.56737315437E+01  0.40659140646E+02  0.00000000000E+00 0.  1.
         11    1    3    3    0    0 -0.34042271385E+01 -0.93263181673E+01 -0.70564809196E+01  0.12180430871E+02  0.51100000000E-03 0. -1.
        -11    1    3    3    0    0  0.12908561472E+01 -0.22205823160E+01  0.84898540708E+01  0.88698882642E+01  0.51100000000E-03 0.  1.
         12    1    3    3    0    0 -0.10562036467E+01 -0.28589470617E+02 -0.71071046949E+01  0.29478540219E+02  0.00000000000E+00 0. -1.
</event>
<event>
 7    1  0.5041278E-013  0.5052886E+02  0.7816164E-02  0.1300439E+00
        -11   -1    0    0    0    0  0.00000000000E+00  0.00000000000E+00  0.45593999997E+02  0.45594000000E+02  0.51100000000E-03 0.  1.
         11   -1    0    0    0    0 -0.00000000000E+00 -0.00000000000E+00 -0.45593999997E+02  0.45594000000E+02  0.51100000000E-03 0. -1.
    9900012    2    1    2    0    0  0.17207789150E+02 -0.32932182387E+01 -0.36690769554E+02  0.50528857556E+02  0.29999993028E+02 0.  0.
        -12    1    1    2    0    0 -0.17207789150E+02  0.32932182387E+01  0.36690769554E+02  0.40659142444E+02  0.00000000000E+00 0.  1.
         11    1    3    3    0    0  0.10134971306E+02  0.34093373094E+01 -0.14669967565E+02  0.18153489275E+02  0.51100000000E-03 0. -1.
        -11    1    3    3    0    0 -0.13203597926E+01  0.62254966493E+01 -0.13105920722E+02  0.14569327945E+02  0.51100000000E-03 0.  1.
        -12    1    3    3    0    0  0.83931776365E+01 -0.12928052198E+02 -0.89148812667E+01  0.17806040336E+02  0.00000000000E+00 0.  1.
</event>
<event>
 7    1  0.5041278E-013  0.5052886E+02  0.7816164E-02  0.1300439E+00
        -11   -1    0    0    0    0  0.00000000000E+00  0.00000000000E+00  0.45593999997E+02  0.45594000000E+02  0.51100000000E-03 0.  1.
         11   -1    0    0    0    0 -0.00000000000E+00 -0.00000000000E+00 -0.45593999997E+02  0.45594000000E+02  0.51100000000E-03 0. -1.
    9900012    2    1    2    0    0 -0.19687037902E+02  0.21637208961E+02 -0.28238579639E+02  0.50528860154E+02  0.30000000925E+02 0.  0.
        -12    1    1    2    0    0  0.19687037902E+02 -0.21637208961E+02  0.28238579639E+02  0.40659139846E+02  0.00000000000E+00 0.  1.
         11    1    3    3    0    0 -0.10888152794E+02  0.13442771371E+02  0.66671507669E+00  0.17311975123E+02  0.51100000000E-03 0. -1.
        -11    1    3    3    0    0  0.58595827375E+00  0.54122044388E+01 -0.50259446947E+01  0.74091446416E+01  0.51100000000E-03 0.  1.
         12    1    3    3    0    0 -0.93848433811E+01  0.27822331518E+01 -0.23879350021E+02  0.25807740390E+02  0.00000000000E+00 0. -1.
</event>
<event>
 7    1  0.5041278E-013  0.5052886E+02  0.7816164E-02  0.1300439E+00
        -11   -1    0    0    0    0  0.00000000000E+00  0.00000000000E+00  0.45593999997E+02  0.45594000000E+02  0.51100000000E-03 0. -1.
         11   -1    0    0    0    0 -0.00000000000E+00 -0.00000000000E+00 -0.45593999997E+02  0.45594000000E+02  0.51100000000E-03 0.  1.
    9900012    2    1    2    0    0 -0.24870291500E+02  0.30678419148E+02 -0.96679381267E+01  0.50528857998E+02  0.29999994371E+02 0.  0.
        -12    1    1    2    0    0  0.24870291500E+02 -0.30678419148E+02  0.96679381267E+01  0.40659142002E+02  0.00000000000E+00 0.  1.
         11    1    3    3    0    0 -0.96146584119E+01  0.26713653493E+02 -0.86057149873E+01  0.29666804176E+02  0.51100000000E-03 0.  1.
        -11    1    3    3    0    0 -0.63442580041E+01  0.78331538673E+01  0.27141675595E+01  0.10439090714E+02  0.51100000000E-03 0. -1.
        -12    1    3    3    0    0 -0.89113750841E+01 -0.38683882120E+01 -0.37763906988E+01  0.10422963108E+02  0.00000000000E+00 0.  1.
</event>
<event>
 7    1  0.5041278E-013  0.5052888E+02  0.7816164E-02  0.1300439E+00
        -11   -1    0    0    0    0  0.00000000000E+00  0.00000000000E+00  0.45593999997E+02  0.45594000000E+02  0.51100000000E-03 0.  1.
         11   -1    0    0    0    0 -0.00000000000E+00 -0.00000000000E+00 -0.45593999997E+02  0.45594000000E+02  0.51100000000E-03 0. -1.
    9900012    2    1    2    0    0  0.73614733122E+01  0.37904240385E+01 -0.39807107783E+02  0.50528875148E+02  0.30000046499E+02 0.  0.
        -12    1    1    2    0    0 -0.73614733122E+01 -0.37904240385E+01  0.39807107783E+02  0.40659124852E+02  0.00000000000E+00 0.  1.
         11    1    3    3    0    0  0.74140219880E+01  0.85002068681E+01 -0.68743550638E+01  0.13209011948E+02  0.51100000000E-03 0. -1.
        -11    1    3    3    0    0  0.76273054798E+01  0.96717980241E+00 -0.18262319553E+02  0.19814730414E+02  0.51100000000E-03 0.  1.
        -12    1    3    3    0    0 -0.76798541556E+01 -0.56769626321E+01 -0.14670433166E+02  0.17505132786E+02  0.00000000000E+00 0.  1.
</event>
<event>
 7    1  0.5041278E-013  0.5052887E+02  0.7816164E-02  0.1300439E+00
        -11   -1    0    0    0    0  0.00000000000E+00  0.00000000000E+00  0.45593999997E+02  0.45594000000E+02  0.51100000000E-03 0.  1.
         11   -1    0    0    0    0 -0.00000000000E+00 -0.00000000000E+00 -0.45593999997E+02  0.45594000000E+02  0.51100000000E-03 0. -1.
    9900012    2    1    2    0    0  0.17898005880E+01  0.25256122077E+02 -0.31813363979E+02  0.50528865526E+02  0.30000017254E+02 0.  0.
        -12    1    1    2    0    0 -0.17898005880E+01 -0.25256122077E+02  0.31813363979E+02  0.40659134474E+02  0.00000000000E+00 0.  1.
         11    1    3    3    0    0 -0.53212394708E+01  0.60888417022E+01 -0.11637148352E+02  0.14170843475E+02  0.51100000000E-03 0. -1.
        -11    1    3    3    0    0 -0.45865876286E+01  0.16368038887E+02 -0.16720000784E+02  0.23843403900E+02  0.51100000000E-03 0.  1.
        -12    1    3    3    0    0  0.11697627687E+02  0.27992414882E+01 -0.34562148429E+01  0.12514618151E+02  0.00000000000E+00 0.  1.
</event>
<event>
 7    1  0.5041278E-013  0.5052889E+02  0.7816164E-02  0.1300439E+00
        -11   -1    0    0    0    0  0.00000000000E+00  0.00000000000E+00  0.45593999997E+02  0.45594000000E+02  0.51100000000E-03 0.  1.
         11   -1    0    0    0    0 -0.00000000000E+00 -0.00000000000E+00 -0.45593999997E+02  0.45594000000E+02  0.51100000000E-03 0. -1.
    9900012    2    1    2    0    0 -0.47284796587E+01 -0.15777490248E+02 -0.37173588453E+02  0.50528887898E+02  0.30000085256E+02 0.  0.
        -12    1    1    2    0    0  0.47284796587E+01  0.15777490248E+02  0.37173588453E+02  0.40659112102E+02  0.00000000000E+00 0.  1.
         11    1    3    3    0    0 -0.11154769152E+01 -0.16243468049E+01 -0.12303301568E+02  0.12460097151E+02  0.51100000000E-03 0. -1.
        -11    1    3    3    0    0  0.10438221126E+02 -0.84969340854E+01 -0.14032342999E+02  0.19443790768E+02  0.51100000000E-03 0.  1.
        -12    1    3    3    0    0 -0.14051223870E+02 -0.56562093577E+01 -0.10837943887E+02  0.18624999979E+02  0.00000000000E+00 0.  1.
</event>
<event>
 7    1  0.5041278E-013  0.5052886E+02  0.7816164E-02  0.1300439E+00
        -11   -1    0    0    0    0  0.00000000000E+00  0.00000000000E+00  0.45593999997E+02  0.45594000000E+02  0.51100000000E-03 0.  1.
         11   -1    0    0    0    0 -0.00000000000E+00 -0.00000000000E+00 -0.45593999997E+02  0.45594000000E+02  0.51100000000E-03 0. -1.
    9900012    2    1    2    0    0  0.16910431896E+02  0.22915731693E+01 -0.36904632080E+02  0.50528857320E+02  0.29999992310E+02 0.  0.
        -12    1    1    2    0    0 -0.16910431896E+02 -0.22915731693E+01  0.36904632080E+02  0.40659142680E+02  0.00000000000E+00 0.  1.
         11    1    3    3    0    0  0.56015257909E+01  0.88601322147E+01 -0.86900720093E+01  0.13616034145E+02  0.51100000000E-03 0. -1.
        -11    1    3    3    0    0  0.76194812554E+01  0.40697418987E+01 -0.27426930703E+01  0.90632035872E+01  0.51100000000E-03 0.  1.
         12    1    3    3    0    0  0.36894248494E+01 -0.10638300944E+02 -0.25471867001E+02  0.27849619588E+02  0.00000000000E+00 0. -1.
</event>
<event>
 7    1  0.5041278E-013  0.5052887E+02  0.7816164E-02  0.1300439E+00
        -11   -1    0    0    0    0  0.00000000000E+00  0.00000000000E+00  0.45593999997E+02  0.45594000000E+02  0.51100000000E-03 0.  1.
         11   -1    0    0    0    0 -0.00000000000E+00 -0.00000000000E+00 -0.45593999997E+02  0.45594000000E+02  0.51100000000E-03 0. -1.
    9900012    2    1    2    0    0 -0.12545200897E+02  0.90148119476E+00 -0.38664845482E+02  0.50528868061E+02  0.30000024958E+02 0.  0.
        -12    1    1    2    0    0  0.12545200897E+02 -0.90148119476E+00  0.38664845482E+02  0.40659131939E+02  0.00000000000E+00 0.  1.
         11    1    3    3    0    0  0.90140087696E+00 -0.48852132383E+01 -0.14217993512E+02  0.15060848970E+02  0.51100000000E-03 0. -1.
        -11    1    3    3    0    0 -0.17776906994E+02  0.34198977941E+01 -0.24585329449E+02  0.30531173374E+02  0.51100000000E-03 0.  1.
        -12    1    3    3    0    0  0.43303052193E+01  0.23667966390E+01  0.13847747964E+00  0.49368457172E+01  0.00000000000E+00 0.  1.
</event>
<event>
 7    1  0.5041278E-013  0.5052886E+02  0.7816164E-02  0.1300439E+00
        -11   -1    0    0    0    0  0.00000000000E+00  0.00000000000E+00  0.45593999997E+02  0.45594000000E+02  0.51100000000E-03 0.  1.
         11   -1    0    0    0    0 -0.00000000000E+00 -0.00000000000E+00 -0.45593999997E+02  0.45594000000E+02  0.51100000000E-03 0. -1.
    9900012    2    1    2    0    0 -0.15971771886E+02  0.26221104588E+02  0.26655608097E+02  0.50528864913E+02  0.30000015390E+02 0.  0.
        -12    1    1    2    0    0  0.15971771886E+02 -0.26221104588E+02 -0.26655608097E+02  0.40659135087E+02  0.00000000000E+00 0.  1.
         11    1    3    3    0    0 -0.35043429390E+01  0.20515460331E+00 -0.13737106567E+01  0.37695608597E+01  0.51100000000E-03 0. -1.
        -11    1    3    3    0    0  0.51289719484E+01  0.12599891851E+02  0.41924995808E+01  0.14235191635E+02  0.51100000000E-03 0.  1.
        -12    1    3    3    0    0 -0.17596400895E+02  0.13416058134E+02  0.23836819173E+02  0.32524112418E+02  0.00000000000E+00 0.  1.
</event>
<event>
 7    1  0.5041278E-013  0.5052879E+02  0.7816164E-02  0.1300439E+00
        -11   -1    0    0    0    0  0.00000000000E+00  0.00000000000E+00  0.45593999997E+02  0.45594000000E+02  0.51100000000E-03 0.  1.
         11   -1    0    0    0    0 -0.00000000000E+00 -0.00000000000E+00 -0.45593999997E+02  0.45594000000E+02  0.51100000000E-03 0. -1.
    9900012    2    1    2    0    0 -0.71678997692E+01  0.24605509051E+02 -0.31565195505E+02  0.50528789112E+02  0.29999784985E+02 0.  0.
        -12    1    1    2    0    0  0.71678997692E+01 -0.24605509051E+02  0.31565195505E+02  0.40659210888E+02  0.00000000000E+00 0.  1.
         11    1    3    3    0    0  0.37277075829E+01  0.12519464609E+02 -0.10286762751E+02  0.16626794222E+02  0.51100000000E-03 0. -1.
        -11    1    3    3    0    0 -0.55331669376E+01  0.92083673768E+01  0.10169596285E+01  0.10790930138E+02  0.51100000000E-03 0.  1.
        -12    1    3    3    0    0 -0.53624404146E+01  0.28776770644E+01 -0.22295392383E+02  0.23111064752E+02  0.00000000000E+00 0.  1.
</event>
<event>
 7    1  0.5041278E-013  0.5052886E+02  0.7816164E-02  0.1300439E+00
        -11   -1    0    0    0    0  0.00000000000E+00  0.00000000000E+00  0.45593999997E+02  0.45594000000E+02  0.51100000000E-03 0.  1.
         11   -1    0    0    0    0 -0.00000000000E+00 -0.00000000000E+00 -0.45593999997E+02  0.45594000000E+02  0.51100000000E-03 0. -1.
    9900012    2    1    2    0    0 -0.37219928681E+02 -0.37236961608E+01 -0.15936639449E+02  0.50528862268E+02  0.30000007351E+02 0.  0.
        -12    1    1    2    0    0  0.37219928681E+02  0.37236961608E+01  0.15936639449E+02  0.40659137732E+02  0.00000000000E+00 0.  1.
         11    1    3    3    0    0 -0.32240089463E+02  0.44414943013E+01 -0.19505379506E+02  0.37942193797E+02  0.51100000000E-03 0. -1.
        -11    1    3    3    0    0 -0.24105880767E+01  0.94427656317E+00  0.50011328184E+00  0.26367985625E+01  0.51100000000E-03 0.  1.
         12    1    3    3    0    0 -0.25692511415E+01 -0.91094670253E+01  0.30686267748E+01  0.99498699085E+01  0.00000000000E+00 0. -1.
</event>
<event>
 7    1  0.5041278E-013  0.5052890E+02  0.7816164E-02  0.1300439E+00
        -11   -1    0    0    0    0  0.00000000000E+00  0.00000000000E+00  0.45593999997E+02  0.45594000000E+02  0.51100000000E-03 0. -1.
         11   -1    0    0    0    0 -0.00000000000E+00 -0.00000000000E+00 -0.45593999997E+02  0.45594000000E+02  0.51100000000E-03 0.  1.
    9900012    2    1    2    0    0 -0.81973568414E+00  0.61611103274E+01  0.40181228663E+02  0.50528900355E+02  0.30000123120E+02 0.  0.
        -12    1    1    2    0    0  0.81973568414E+00 -0.61611103274E+01 -0.40181228663E+02  0.40659099645E+02  0.00000000000E+00 0.  1.
         11    1    3    3    0    0 -0.10563344790E+02 -0.91474117776E+00  0.17306295826E+02  0.20296031140E+02  0.51100000000E-03 0. -1.
        -11    1    3    3    0    0  0.28104753851E+01 -0.49024434980E+01  0.44714329369E+01  0.72060000632E+01  0.51100000000E-03 0.  1.
        -12    1    3    3    0    0  0.69331337206E+01  0.11978295003E+02  0.18403499900E+02  0.23026869152E+02  0.00000000000E+00 0.  1.
</event>
<event>
 7    1  0.5041278E-013  0.5052886E+02  0.7816164E-02  0.1300439E+00
        -11   -1    0    0    0    0  0.00000000000E+00  0.00000000000E+00  0.45593999997E+02  0.45594000000E+02  0.51100000000E-03 0.  1.
         11   -1    0    0    0    0 -0.00000000000E+00 -0.00000000000E+00 -0.45593999997E+02  0.45594000000E+02  0.51100000000E-03 0. -1.
    9900012    2    1    2    0    0 -0.20575710224E+02 -0.12438680519E+02 -0.32788487483E+02  0.50528861596E+02  0.30000005308E+02 0.  0.
        -12    1    1    2    0    0  0.20575710224E+02  0.12438680519E+02  0.32788487483E+02  0.40659138404E+02  0.00000000000E+00 0.  1.
         11    1    3    3    0    0 -0.14041176390E+02  0.47760170112E+01 -0.81286139924E+01  0.16912697556E+02  0.51100000000E-03 0. -1.
        -11    1    3    3    0    0  0.34272557336E+01 -0.69096817961E+00 -0.29792994483E+01  0.45934458038E+01  0.51100000000E-03 0.  1.
        -12    1    3    3    0    0 -0.99617895679E+01 -0.16523729350E+02 -0.21680574043E+02  0.29022718237E+02  0.00000000000E+00 0.  1.
</event>
<event>
 7    1  0.5041278E-013  0.5052886E+02  0.7816164E-02  0.1300439E+00
        -11   -1    0    0    0    0  0.00000000000E+00  0.00000000000E+00  0.45593999997E+02  0.45594000000E+02  0.51100000000E-03 0. -1.
         11   -1    0    0    0    0 -0.00000000000E+00 -0.00000000000E+00 -0.45593999997E+02  0.45594000000E+02  0.51100000000E-03 0.  1.
    9900012    2    1    2    0    0 -0.47779435169E+01  0.17020171027E+02  0.36614899006E+02  0.50528858405E+02  0.29999995607E+02 0.  0.
        -12    1    1    2    0    0  0.47779435169E+01 -0.17020171027E+02 -0.36614899006E+02  0.40659141595E+02  0.00000000000E+00 0.  1.
         11    1    3    3    0    0 -0.11095549851E+02  0.15952570583E+02  0.27066849462E+02  0.33319815047E+02  0.51100000000E-03 0. -1.
        -11    1    3    3    0    0  0.26349619556E+01  0.61026742065E+01  0.86462321549E+01  0.10906098648E+02  0.51100000000E-03 0.  1.
        -12    1    3    3    0    0  0.36826443782E+01 -0.50350737628E+01  0.90181738901E+00  0.63029447099E+01  0.00000000000E+00 0.  1.
</event>
<event>
 7    1  0.5041278E-013  0.5052885E+02  0.7816164E-02  0.1300439E+00
        -11   -1    0    0    0    0  0.00000000000E+00  0.00000000000E+00  0.45593999997E+02  0.45594000000E+02  0.51100000000E-03 0. -1.
         11   -1    0    0    0    0 -0.00000000000E+00 -0.00000000000E+00 -0.45593999997E+02  0.45594000000E+02  0.51100000000E-03 0.  1.
    9900012    2    1    2    0    0 -0.21505950407E+01 -0.15896595078E+02  0.37360933481E+02  0.50528854108E+02  0.29999982546E+02 0.  0.
        -12    1    1    2    0    0  0.21505950407E+01  0.15896595078E+02 -0.37360933481E+02  0.40659145892E+02  0.00000000000E+00 0.  1.
         11    1    3    3    0    0 -0.79894766987E+01 -0.22371499609E+01  0.10876313397E+02  0.13679574966E+02  0.51100000000E-03 0. -1.
        -11    1    3    3    0    0  0.15371803516E+01 -0.47554996598E+01 -0.29462490879E+01  0.58015587903E+01  0.51100000000E-03 0.  1.
         12    1    3    3    0    0  0.43017013063E+01 -0.89039454578E+01  0.29430869172E+02  0.31047720352E+02  0.00000000000E+00 0. -1.
</event>
<event>
 7    1  0.5041278E-013  0.5052885E+02  0.7816164E-02  0.1300439E+00
        -11   -1    0    0    0    0  0.00000000000E+00  0.00000000000E+00  0.45593999997E+02  0.45594000000E+02  0.51100000000E-03 0. -1.
         11   -1    0    0    0    0 -0.00000000000E+00 -0.00000000000E+00 -0.45593999997E+02  0.45594000000E+02  0.51100000000E-03 0.  1.
    9900012    2    1    2    0    0 -0.11722019703E+02 -0.79140237274E+01  0.38119927502E+02  0.50528851088E+02  0.29999973366E+02 0.  0.
        -12    1    1    2    0    0  0.11722019703E+02  0.79140237274E+01 -0.38119927502E+02  0.40659148912E+02  0.00000000000E+00 0.  1.
         11    1    3    3    0    0 -0.20054594985E+01 -0.69649570511E+01  0.24990547617E+02  0.26020375958E+02  0.51100000000E-03 0. -1.
        -11    1    3    3    0    0  0.31544796837E+01 -0.44234296341E+01 -0.48381832119E+00  0.54544983483E+01  0.51100000000E-03 0.  1.
         12    1    3    3    0    0 -0.12871039889E+02  0.34743629577E+01  0.13613198206E+02  0.19053976781E+02  0.00000000000E+00 0. -1.
</event>
<event>
 7    1  0.5041278E-013  0.5052887E+02  0.7816164E-02  0.1300439E+00
        -11   -1    0    0    0    0  0.00000000000E+00  0.00000000000E+00  0.45593999997E+02  0.45594000000E+02  0.51100000000E-03 0. -1.
         11   -1    0    0    0    0 -0.00000000000E+00 -0.00000000000E+00 -0.45593999997E+02  0.45594000000E+02  0.51100000000E-03 0.  1.
    9900012    2    1    2    0    0 -0.28482656836E+02 -0.23828634732E+02  0.16555952674E+02  0.50528866431E+02  0.30000020003E+02 0.  0.
        -12    1    1    2    0    0  0.28482656836E+02  0.23828634732E+02 -0.16555952674E+02  0.40659133569E+02  0.00000000000E+00 0.  1.
         11    1    3    3    0    0 -0.24215344442E+02 -0.16269511870E+02  0.10224008777E+02  0.30912946781E+02  0.51100000000E-03 0. -1.
        -11    1    3    3    0    0 -0.96184567821E+00 -0.10606543690E+02 -0.13295260962E+01  0.10732732926E+02  0.51100000000E-03 0.  1.
        -12    1    3    3    0    0 -0.33054667157E+01  0.30474208277E+01  0.76614699939E+01  0.88831867242E+01  0.00000000000E+00 0.  1.
</event>
<event>
 7    1  0.5041278E-013  0.5052882E+02  0.7816164E-02  0.1300439E+00
        -11   -1    0    0    0    0  0.00000000000E+00  0.00000000000E+00  0.45593999997E+02  0.45594000000E+02  0.51100000000E-03 0. -1.
         11   -1    0    0    0    0 -0.00000000000E+00 -0.00000000000E+00 -0.45593999997E+02  0.45594000000E+02  0.51100000000E-03 0.  1.
    9900012    2    1    2    0    0 -0.23962011902E+01 -0.38257084882E+02  0.13558109449E+02  0.50528823230E+02  0.29999888689E+02 0.  0.
        -12    1    1    2    0    0  0.23962011902E+01  0.38257084882E+02 -0.13558109449E+02  0.40659176770E+02  0.00000000000E+00 0.  1.
         11    1    3    3    0    0 -0.69227604425E+01 -0.25641704733E+02  0.21711053914E+01  0.26648364539E+02  0.51100000000E-03 0. -1.
        -11    1    3    3    0    0 -0.19346370655E+01 -0.13311824805E+02  0.10988973068E+02  0.17369658303E+02  0.51100000000E-03 0.  1.
        -12    1    3    3    0    0  0.64611963178E+01  0.69644465575E+00  0.39803098941E+00  0.65108003874E+01  0.00000000000E+00 0.  1.
</event>
<event>
 7    1  0.5041278E-013  0.5052886E+02  0.7816164E-02  0.1300439E+00
        -11   -1    0    0    0    0  0.00000000000E+00  0.00000000000E+00  0.45593999997E+02  0.45594000000E+02  0.51100000000E-03 0.  1.
         11   -1    0    0    0    0 -0.00000000000E+00 -0.00000000000E+00 -0.45593999997E+02  0.45594000000E+02  0.51100000000E-03 0. -1.
    9900012    2    1    2    0    0  0.39860303331E+02 -0.41294064780E+01 -0.68752913748E+01  0.50528863130E+02  0.30000009969E+02 0.  0.
        -12    1    1    2    0    0 -0.39860303331E+02  0.41294064780E+01  0.68752913748E+01  0.40659136870E+02  0.00000000000E+00 0.  1.
         11    1    3    3    0    0  0.59686785371E+01 -0.47234925326E+01 -0.54100533537E+01  0.93383715248E+01  0.51100000000E-03 0. -1.
        -11    1    3    3    0    0  0.53214397287E+01 -0.89212507079E+01 -0.36198320163E+01  0.11000437222E+02  0.51100000000E-03 0.  1.
         12    1    3    3    0    0  0.28570185066E+02  0.95153367625E+01  0.21545939951E+01  0.30190054383E+02  0.00000000000E+00 0. -1.
</event>
<event>
 7    1  0.5041278E-013  0.5052886E+02  0.7816164E-02  0.1300439E+00
        -11   -1    0    0    0    0  0.00000000000E+00  0.00000000000E+00  0.45593999997E+02  0.45594000000E+02  0.51100000000E-03 0.  1.
         11   -1    0    0    0    0 -0.00000000000E+00 -0.00000000000E+00 -0.45593999997E+02  0.45594000000E+02  0.51100000000E-03 0. -1.
    9900012    2    1    2    0    0 -0.29510939523E+02  0.49923795718E+01 -0.27519929917E+02  0.50528856527E+02  0.29999989900E+02 0.  0.
        -12    1    1    2    0    0  0.29510939523E+02 -0.49923795718E+01  0.27519929917E+02  0.40659143473E+02  0.00000000000E+00 0.  1.
         11    1    3    3    0    0 -0.73897973323E+01  0.10285712292E+01 -0.82187969395E+01  0.11100256158E+02  0.51100000000E-03 0. -1.
        -11    1    3    3    0    0 -0.16787050938E+02  0.67669686544E+01 -0.25179960985E+02  0.31010117372E+02  0.51100000000E-03 0.  1.
        -12    1    3    3    0    0 -0.53340912523E+01 -0.28031603117E+01  0.58788280077E+01  0.84184829967E+01  0.00000000000E+00 0.  1.
</event>
<event>
 7    1  0.5041278E-013  0.5052884E+02  0.7816164E-02  0.1300439E+00
        -11   -1    0    0    0    0  0.00000000000E+00  0.00000000000E+00  0.45593999997E+02  0.45594000000E+02  0.51100000000E-03 0. -1.
         11   -1    0    0    0    0 -0.00000000000E+00 -0.00000000000E+00 -0.45593999997E+02  0.45594000000E+02  0.51100000000E-03 0.  1.
    9900012    2    1    2    0    0  0.51020498775E+01  0.38340404356E+02  0.12535923322E+02  0.50528844910E+02  0.29999954589E+02 0.  0.
        -12    1    1    2    0    0 -0.51020498775E+01 -0.38340404356E+02 -0.12535923322E+02  0.40659155090E+02  0.00000000000E+00 0.  1.
         11    1    3    3    0    0  0.53756765089E+01  0.12354181698E+02  0.14632989956E+02  0.19890904923E+02  0.51100000000E-03 0. -1.
        -11    1    3    3    0    0 -0.14051160670E+01  0.17366138603E+02  0.63231293506E+01  0.18534807422E+02  0.51100000000E-03 0.  1.
        -12    1    3    3    0    0  0.11314894356E+01  0.86200840545E+01 -0.84201959847E+01  0.12103132564E+02  0.00000000000E+00 0.  1.
</event>
<event>
 7    1  0.5041278E-013  0.5052886E+02  0.7816164E-02  0.1300439E+00
        -11   -1    0    0    0    0  0.00000000000E+00  0.00000000000E+00  0.45593999997E+02  0.45594000000E+02  0.51100000000E-03 0.  1.
         11   -1    0    0    0    0 -0.00000000000E+00 -0.00000000000E+00 -0.45593999997E+02  0.45594000000E+02  0.51100000000E-03 0. -1.
    9900012    2    1    2    0    0 -0.27341845365E+02 -0.41085324499E+01 -0.29811223956E+02  0.50528860552E+02  0.30000002134E+02 0.  0.
        -12    1    1    2    0    0  0.27341845365E+02  0.41085324499E+01  0.29811223956E+02  0.40659139448E+02  0.00000000000E+00 0.  1.
         11    1    3    3    0    0 -0.10399080530E+02  0.30798670190E+00 -0.13625416193E+02  0.17143153105E+02  0.51100000000E-03 0. -1.
        -11    1    3    3    0    0 -0.19452033016E+01 -0.97405480028E+01 -0.14226611322E+02  0.17351039198E+02  0.51100000000E-03 0.  1.
        -12    1    3    3    0    0 -0.14997561534E+02  0.53240288510E+01 -0.19591964406E+01  0.16034668249E+02  0.00000000000E+00 0.  1.
</event>
<event>
 7    1  0.5041278E-013  0.5052887E+02  0.7816164E-02  0.1300439E+00
        -11   -1    0    0    0    0  0.00000000000E+00  0.00000000000E+00  0.45593999997E+02  0.45594000000E+02  0.51100000000E-03 0.  1.
         11   -1    0    0    0    0 -0.00000000000E+00 -0.00000000000E+00 -0.45593999997E+02  0.45594000000E+02  0.51100000000E-03 0. -1.
    9900012    2    1    2    0    0 -0.16845860703E+02  0.33577066438E+02 -0.15555135603E+02  0.50528872402E+02  0.30000038152E+02 0.  0.
        -12    1    1    2    0    0  0.16845860703E+02 -0.33577066438E+02  0.15555135603E+02  0.40659127598E+02  0.00000000000E+00 0.  1.
         11    1    3    3    0    0 -0.53689629967E+01  0.16620021637E+01 -0.46145043725E+00  0.56392332474E+01  0.51100000000E-03 0.  1.
        -11    1    3    3    0    0 -0.59130528834E+01  0.33654239431E+02 -0.17725537325E+02  0.38493722862E+02  0.51100000000E-03 0. -1.
         12    1    3    3    0    0 -0.55638448225E+01 -0.17391751562E+01  0.26318521587E+01  0.63959162923E+01  0.00000000000E+00 0. -1.
</event>
<event>
 7    1  0.5041278E-013  0.5052887E+02  0.7816164E-02  0.1300439E+00
        -11   -1    0    0    0    0  0.00000000000E+00  0.00000000000E+00  0.45593999997E+02  0.45594000000E+02  0.51100000000E-03 0.  1.
         11   -1    0    0    0    0 -0.00000000000E+00 -0.00000000000E+00 -0.45593999997E+02  0.45594000000E+02  0.51100000000E-03 0. -1.
    9900012    2    1    2    0    0 -0.36996701978E+02 -0.14460969380E+02 -0.86769507291E+01  0.50528867365E+02  0.30000022842E+02 0.  0.
        -12    1    1    2    0    0  0.36996701978E+02  0.14460969380E+02  0.86769507291E+01  0.40659132635E+02  0.00000000000E+00 0.  1.
         11    1    3    3    0    0 -0.23952775539E+02 -0.10667292854E+02 -0.12708604684E+02  0.29138209041E+02  0.51100000000E-03 0. -1.
        -11    1    3    3    0    0 -0.23698456769E+01 -0.70192392627E+01 -0.32319235513E+01  0.80827729439E+01  0.51100000000E-03 0.  1.
        -12    1    3    3    0    0 -0.10674080762E+02  0.32255627366E+01  0.72635775061E+01  0.13307885379E+02  0.00000000000E+00 0.  1.
</event>
<event>
 7    1  0.5041278E-013  0.5052887E+02  0.7816164E-02  0.1300439E+00
        -11   -1    0    0    0    0  0.00000000000E+00  0.00000000000E+00  0.45593999997E+02  0.45594000000E+02  0.51100000000E-03 0.  1.
         11   -1    0    0    0    0 -0.00000000000E+00 -0.00000000000E+00 -0.45593999997E+02  0.45594000000E+02  0.51100000000E-03 0. -1.
    9900012    2    1    2    0    0 -0.36214405522E+02 -0.23353892708E+00 -0.18483163693E+02  0.50528867596E+02  0.30000023546E+02 0.  0.
        -12    1    1    2    0    0  0.36214405522E+02  0.23353892708E+00  0.18483163693E+02  0.40659132404E+02  0.00000000000E+00 0.  1.
         11    1    3    3    0    0  0.11675140541E+01 -0.14588608224E+01  0.33402965609E+01  0.38273940667E+01  0.51100000000E-03 0. -1.
        -11    1    3    3    0    0 -0.12004131846E+02  0.83931039852E+01 -0.10394317544E+02  0.17960657375E+02  0.51100000000E-03 0.  1.
         12    1    3    3    0    0 -0.25377787730E+02 -0.71677820899E+01 -0.11429142709E+02  0.28740816154E+02  0.00000000000E+00 0. -1.
</event>
<event>
 7    1  0.5041278E-013  0.5052886E+02  0.7816164E-02  0.1300439E+00
        -11   -1    0    0    0    0  0.00000000000E+00  0.00000000000E+00  0.45593999997E+02  0.45594000000E+02  0.51100000000E-03 0. -1.
         11   -1    0    0    0    0 -0.00000000000E+00 -0.00000000000E+00 -0.45593999997E+02  0.45594000000E+02  0.51100000000E-03 0.  1.
    9900012    2    1    2    0    0  0.40540094068E+02 -0.36673689427E+00 -0.30874447278E+01  0.50528855420E+02  0.29999986536E+02 0.  0.
        -12    1    1    2    0    0 -0.40540094068E+02  0.36673689427E+00  0.30874447278E+01  0.40659144580E+02  0.00000000000E+00 0.  1.
         11    1    3    3    0    0  0.28317969901E+01 -0.31233956118E+00 -0.38513310828E+01  0.47905512799E+01  0.51100000000E-03 0.  1.
        -11    1    3    3    0    0  0.26341329392E+02  0.31867668940E+01  0.12278624989E+02  0.29236719194E+02  0.51100000000E-03 0. -1.
         12    1    3    3    0    0  0.11366967686E+02 -0.32411642270E+01 -0.11514738634E+02  0.16501584946E+02  0.00000000000E+00 0. -1.
</event>
<event>
 7    1  0.5041278E-013  0.5052887E+02  0.7816164E-02  0.1300439E+00
        -11   -1    0    0    0    0  0.00000000000E+00  0.00000000000E+00  0.45593999997E+02  0.45594000000E+02  0.51100000000E-03 0.  1.
         11   -1    0    0    0    0 -0.00000000000E+00 -0.00000000000E+00 -0.45593999997E+02  0.45594000000E+02  0.51100000000E-03 0. -1.
    9900012    2    1    2    0    0 -0.32438031281E+02 -0.13990007157E+02 -0.20130051878E+02  0.50528866190E+02  0.30000019270E+02 0.  0.
        -12    1    1    2    0    0  0.32438031281E+02  0.13990007157E+02  0.20130051878E+02  0.40659133810E+02  0.00000000000E+00 0.  1.
         11    1    3    3    0    0 -0.54009751662E+01  0.49184369434E+01 -0.60868766466E+01  0.95085026311E+01  0.51100000000E-03 0. -1.
        -11    1    3    3    0    0 -0.63957292417E+01 -0.16577948579E+02 -0.63952055750E+01  0.18884713030E+02  0.51100000000E-03 0.  1.
        -12    1    3    3    0    0 -0.20641326873E+02 -0.23304955209E+01 -0.76479696563E+01  0.22135650528E+02  0.00000000000E+00 0.  1.
</event>
<event>
 7    1  0.5041278E-013  0.5052887E+02  0.7816164E-02  0.1300439E+00
        -11   -1    0    0    0    0  0.00000000000E+00  0.00000000000E+00  0.45593999997E+02  0.45594000000E+02  0.51100000000E-03 0.  1.
         11   -1    0    0    0    0 -0.00000000000E+00 -0.00000000000E+00 -0.45593999997E+02  0.45594000000E+02  0.51100000000E-03 0. -1.
    9900012    2    1    2    0    0 -0.29369846945E+02 -0.70316667013E+01 -0.27223743591E+02  0.50528874809E+02  0.30000045470E+02 0.  0.
        -12    1    1    2    0    0  0.29369846945E+02  0.70316667013E+01  0.27223743591E+02  0.40659125191E+02  0.00000000000E+00 0.  1.
         11    1    3    3    0    0 -0.18675226159E+02  0.47472165071E+01 -0.10319832558E+02  0.21858615714E+02  0.51100000000E-03 0.  1.
        -11    1    3    3    0    0 -0.14535819020E+02 -0.88799834257E+01 -0.16698759742E+02  0.23853568232E+02  0.51100000000E-03 0. -1.
         12    1    3    3    0    0  0.38411982335E+01 -0.28988997827E+01 -0.20515129080E+00  0.48166908631E+01  0.00000000000E+00 0. -1.
</event>
<event>
 7    1  0.5041278E-013  0.5052886E+02  0.7816164E-02  0.1300439E+00
        -11   -1    0    0    0    0  0.00000000000E+00  0.00000000000E+00  0.45593999997E+02  0.45594000000E+02  0.51100000000E-03 0.  1.
         11   -1    0    0    0    0 -0.00000000000E+00 -0.00000000000E+00 -0.45593999997E+02  0.45594000000E+02  0.51100000000E-03 0. -1.
    9900012    2    1    2    0    0  0.34094282652E+02  0.32679125532E+01 -0.21910406693E+02  0.50528864699E+02  0.30000014739E+02 0.  0.
        -12    1    1    2    0    0 -0.34094282652E+02 -0.32679125532E+01  0.21910406693E+02  0.40659135301E+02  0.00000000000E+00 0.  1.
         11    1    3    3    0    0  0.16310756824E+02 -0.38875586360E+01 -0.27159301705E+01  0.16986176064E+02  0.51100000000E-03 0. -1.
        -11    1    3    3    0    0  0.19269531198E+02  0.73978169015E+01 -0.78254920365E+01  0.22074438914E+02  0.51100000000E-03 0.  1.
         12    1    3    3    0    0 -0.14860053710E+01 -0.24234571232E+00 -0.11368984486E+02  0.11468249720E+02  0.00000000000E+00 0. -1.
</event>
<event>
 7    1  0.5041278E-013  0.5052886E+02  0.7816164E-02  0.1300439E+00
        -11   -1    0    0    0    0  0.00000000000E+00  0.00000000000E+00  0.45593999997E+02  0.45594000000E+02  0.51100000000E-03 0.  1.
         11   -1    0    0    0    0 -0.00000000000E+00 -0.00000000000E+00 -0.45593999997E+02  0.45594000000E+02  0.51100000000E-03 0. -1.
    9900012    2    1    2    0    0  0.32094745595E+02 -0.11865965053E+02 -0.21961136579E+02  0.50528863987E+02  0.30000012575E+02 0.  0.
        -12    1    1    2    0    0 -0.32094745595E+02  0.11865965053E+02  0.21961136579E+02  0.40659136013E+02  0.00000000000E+00 0.  1.
         11    1    3    3    0    0 -0.21992918379E+01  0.43775656834E+00  0.14658138330E+01  0.26790158371E+01  0.51100000000E-03 0. -1.
        -11    1    3    3    0    0  0.64146554150E+01  0.50532722463E+01 -0.84633265517E+01  0.11760580813E+02  0.51100000000E-03 0.  1.
         12    1    3    3    0    0  0.27879382018E+02 -0.17356993868E+02 -0.14963623861E+02  0.36089267336E+02  0.00000000000E+00 0. -1.
</event>
<event>
 7    1  0.5944947E-013  0.5052887E+02  0.7816164E-02  0.1300439E+00
        -11   -1    0    0    0    0  0.00000000000E+00  0.00000000000E+00  0.45593999997E+02  0.45594000000E+02  0.51100000000E-03 0.  1.
         11   -1    0    0    0    0 -0.00000000000E+00 -0.00000000000E+00 -0.45593999997E+02  0.45594000000E+02  0.51100000000E-03 0. -1.
    9900012    2    1    2    0    0  0.47122329721E+00 -0.19029687072E+02 -0.35927901273E+02  0.50528866569E+02  0.30000020423E+02 0.  0.
        -12    1    1    2    0    0 -0.47122329721E+00  0.19029687072E+02  0.35927901273E+02  0.40659133431E+02  0.00000000000E+00 0.  1.
         11    1    3    3    0    0  0.67900929292E+01  0.23658143870E+01 -0.66836615493E+01  0.98170143969E+01  0.51100000000E-03 0. -1.
        -11    1    3    3    0    0 -0.32470869548E+01 -0.43367504976E+00  0.13126268068E+01  0.35291127973E+01  0.51100000000E-03 0.  1.
         12    1    3    3    0    0 -0.30717826772E+01 -0.20961826409E+02 -0.30556866531E+02  0.37182739375E+02  0.00000000000E+00 0. -1.
</event>
<event>
 7    1  0.5041278E-013  0.5052886E+02  0.7816164E-02  0.1300439E+00
        -11   -1    0    0    0    0  0.00000000000E+00  0.00000000000E+00  0.45593999997E+02  0.45594000000E+02  0.51100000000E-03 0. -1.
         11   -1    0    0    0    0 -0.00000000000E+00 -0.00000000000E+00 -0.45593999997E+02  0.45594000000E+02  0.51100000000E-03 0.  1.
    9900012    2    1    2    0    0  0.28018672007E+02  0.21974923268E+02  0.19627082954E+02  0.50528860573E+02  0.30000002198E+02 0.  0.
        -12    1    1    2    0    0 -0.28018672007E+02 -0.21974923268E+02 -0.19627082954E+02  0.40659139427E+02  0.00000000000E+00 0.  1.
         11    1    3    3    0    0  0.57760847265E+01  0.83174454768E+01  0.18865681078E+02  0.21411608459E+02  0.51100000000E-03 0. -1.
        -11    1    3    3    0    0  0.61829405876E+01  0.10995921289E+02  0.20794782755E+01  0.12785275494E+02  0.51100000000E-03 0.  1.
        -12    1    3    3    0    0  0.16059646693E+02  0.26615565022E+01 -0.13180763991E+01  0.16331976620E+02  0.00000000000E+00 0.  1.
</event>
<event>
 7    1  0.5041278E-013  0.5052886E+02  0.7816164E-02  0.1300439E+00
        -11   -1    0    0    0    0  0.00000000000E+00  0.00000000000E+00  0.45593999997E+02  0.45594000000E+02  0.51100000000E-03 0.  1.
         11   -1    0    0    0    0 -0.00000000000E+00 -0.00000000000E+00 -0.45593999997E+02  0.45594000000E+02  0.51100000000E-03 0. -1.
    9900012    2    1    2    0    0 -0.84702545841E+01  0.39759457106E+02  0.77830191016E+00  0.50528863315E+02  0.30000010534E+02 0.  0.
        -12    1    1    2    0    0  0.84702545841E+01 -0.39759457106E+02 -0.77830191016E+00  0.40659136685E+02  0.00000000000E+00 0.  1.
         11    1    3    3    0    0 -0.36977074028E+01  0.19975060795E+02 -0.37866384752E+01  0.20664334613E+02  0.51100000000E-03 0. -1.
        -11    1    3    3    0    0 -0.20959806919E+01  0.19779660578E+02  0.11117384961E+02  0.22786495041E+02  0.51100000000E-03 0.  1.
        -12    1    3    3    0    0 -0.26765664894E+01  0.47357331377E-02 -0.65524445753E+01  0.70780336614E+01  0.00000000000E+00 0.  1.
</event>
<event>
 7    1  0.5041278E-013  0.5052886E+02  0.7816164E-02  0.1300439E+00
        -11   -1    0    0    0    0  0.00000000000E+00  0.00000000000E+00  0.45593999997E+02  0.45594000000E+02  0.51100000000E-03 0.  1.
         11   -1    0    0    0    0 -0.00000000000E+00 -0.00000000000E+00 -0.45593999997E+02  0.45594000000E+02  0.51100000000E-03 0. -1.
    9900012    2    1    2    0    0 -0.38633158017E+01  0.30358179369E+02 -0.26769785865E+02  0.50528859591E+02  0.29999999211E+02 0.  0.
        -12    1    1    2    0    0  0.38633158017E+01 -0.30358179369E+02  0.26769785865E+02  0.40659140409E+02  0.00000000000E+00 0.  1.
         11    1    3    3    0    0 -0.45796380441E+01  0.30400392937E+02 -0.19806988783E+02  0.36571488625E+02  0.51100000000E-03 0. -1.
        -11    1    3    3    0    0 -0.38909092422E+01  0.23364540246E+01 -0.74772681894E+01  0.87468698388E+01  0.51100000000E-03 0.  1.
         12    1    3    3    0    0  0.46072314846E+01 -0.23786675927E+01  0.51447110756E+00  0.52105011266E+01  0.00000000000E+00 0. -1.
</event>
<event>
 7    1  0.5041278E-013  0.5052886E+02  0.7816164E-02  0.1300439E+00
        -11   -1    0    0    0    0  0.00000000000E+00  0.00000000000E+00  0.45593999997E+02  0.45594000000E+02  0.51100000000E-03 0.  1.
         11   -1    0    0    0    0 -0.00000000000E+00 -0.00000000000E+00 -0.45593999997E+02  0.45594000000E+02  0.51100000000E-03 0. -1.
    9900012    2    1    2    0    0 -0.17197475449E+01 -0.31361258661E+02 -0.25820132010E+02  0.50528864576E+02  0.30000014366E+02 0.  0.
        -12    1    1    2    0    0  0.17197475449E+01  0.31361258661E+02  0.25820132010E+02  0.40659135424E+02  0.00000000000E+00 0.  1.
         11    1    3    3    0    0  0.36344344058E+01  0.90226605069E+00 -0.48254664104E+01  0.61080540121E+01  0.51100000000E-03 0.  1.
        -11    1    3    3    0    0 -0.94951852439E+01 -0.72023409213E+01 -0.13347187064E+02  0.17893564775E+02  0.51100000000E-03 0. -1.
        -12    1    3    3    0    0  0.41410032933E+01 -0.25061183790E+02 -0.76474785354E+01  0.26527245789E+02  0.00000000000E+00 0.  1.
</event>
<event>
 7    1  0.5041278E-013  0.5052885E+02  0.7816164E-02  0.1300439E+00
        -11   -1    0    0    0    0  0.00000000000E+00  0.00000000000E+00  0.45593999997E+02  0.45594000000E+02  0.51100000000E-03 0.  1.
         11   -1    0    0    0    0 -0.00000000000E+00 -0.00000000000E+00 -0.45593999997E+02  0.45594000000E+02  0.51100000000E-03 0. -1.
    9900012    2    1    2    0    0 -0.53090624099E+00  0.35897626961E+02 -0.19085193838E+02  0.50528854575E+02  0.29999983965E+02 0.  0.
        -12    1    1    2    0    0  0.53090624099E+00 -0.35897626961E+02  0.19085193838E+02  0.40659145425E+02  0.00000000000E+00 0.  1.
         11    1    3    3    0    0  0.84628695763E+01  0.42329800162E+01 -0.36634995378E+00  0.94695561582E+01  0.51100000000E-03 0. -1.
        -11    1    3    3    0    0 -0.70758116722E+00  0.11055841352E+01 -0.72744566436E+01  0.73919352749E+01  0.51100000000E-03 0.  1.
         12    1    3    3    0    0 -0.82861946501E+01  0.30559062810E+02 -0.11444387241E+02  0.33667363142E+02  0.00000000000E+00 0. -1.
</event>
<event>
 7    1  0.5699512E-013  0.5052886E+02  0.7816164E-02  0.1300439E+00
        -11   -1    0    0    0    0  0.00000000000E+00  0.00000000000E+00  0.45593999997E+02  0.45594000000E+02  0.51100000000E-03 0. -1.
         11   -1    0    0    0    0 -0.00000000000E+00 -0.00000000000E+00 -0.45593999997E+02  0.45594000000E+02  0.51100000000E-03 0.  1.
    9900012    2    1    2    0    0 -0.15802699535E+02  0.49749093465E+01  0.37130724473E+02  0.50528859139E+02  0.29999997840E+02 0.  0.
        -12    1    1    2    0    0  0.15802699535E+02 -0.49749093465E+01 -0.37130724473E+02  0.40659140861E+02  0.00000000000E+00 0.  1.
         11    1    3    3    0    0  0.28107117657E+01 -0.58250367150E+01  0.93597216389E+01  0.11376974237E+02  0.51100000000E-03 0. -1.
        -11    1    3    3    0    0 -0.16447396102E+01 -0.48155225952E+00 -0.22748440237E+01  0.28481531836E+01  0.51100000000E-03 0.  1.
         12    1    3    3    0    0 -0.16968671691E+02  0.11281498321E+02  0.30045846858E+02  0.36303731719E+02  0.00000000000E+00 0. -1.
</event>
<event>
 7    1  0.5041278E-013  0.5052884E+02  0.7816164E-02  0.1300439E+00
        -11   -1    0    0    0    0  0.00000000000E+00  0.00000000000E+00  0.45593999997E+02  0.45594000000E+02  0.51100000000E-03 0. -1.
         11   -1    0    0    0    0 -0.00000000000E+00 -0.00000000000E+00 -0.45593999997E+02  0.45594000000E+02  0.51100000000E-03 0.  1.
    9900012    2    1    2    0    0  0.23366284639E+02 -0.33190845434E+02  0.23563015081E+01  0.50528835778E+02  0.29999926829E+02 0.  0.
        -12    1    1    2    0    0 -0.23366284639E+02  0.33190845434E+02 -0.23563015081E+01  0.40659164222E+02  0.00000000000E+00 0.  1.
         11    1    3    3    0    0  0.76050783992E+01 -0.13013030663E+02 -0.11546455920E+02  0.18986754043E+02  0.51100000000E-03 0. -1.
        -11    1    3    3    0    0  0.12565148236E+02 -0.11800061500E+02  0.31186299598E+01  0.17517141738E+02  0.51100000000E-03 0.  1.
        -12    1    3    3    0    0  0.31960580037E+01 -0.83777532714E+01  0.10784127469E+02  0.14024939996E+02  0.00000000000E+00 0.  1.
</event>
<event>
 7    1  0.5041278E-013  0.5052887E+02  0.7816164E-02  0.1300439E+00
        -11   -1    0    0    0    0  0.00000000000E+00  0.00000000000E+00  0.45593999997E+02  0.45594000000E+02  0.51100000000E-03 0.  1.
         11   -1    0    0    0    0 -0.00000000000E+00 -0.00000000000E+00 -0.45593999997E+02  0.45594000000E+02  0.51100000000E-03 0. -1.
    9900012    2    1    2    0    0  0.38387527734E+02 -0.13246032278E+02  0.20261747971E+01  0.50528867681E+02  0.30000023803E+02 0.  0.
        -12    1    1    2    0    0 -0.38387527734E+02  0.13246032278E+02 -0.20261747971E+01  0.40659132319E+02  0.00000000000E+00 0.  1.
         11    1    3    3    0    0  0.90544904825E+01 -0.13958516673E+02  0.45512844806E+01  0.17249294951E+02  0.51100000000E-03 0. -1.
        -11    1    3    3    0    0  0.58622878391E+00 -0.39535109567E+01  0.36566447621E+00  0.40134304332E+01  0.51100000000E-03 0.  1.
         12    1    3    3    0    0  0.28746808468E+02  0.46659953523E+01 -0.28907741597E+01  0.29266142297E+02  0.00000000000E+00 0. -1.
</event>
<event>
 7    1  0.5041278E-013  0.5052886E+02  0.7816164E-02  0.1300439E+00
        -11   -1    0    0    0    0  0.00000000000E+00  0.00000000000E+00  0.45593999997E+02  0.45594000000E+02  0.51100000000E-03 0. -1.
         11   -1    0    0    0    0 -0.00000000000E+00 -0.00000000000E+00 -0.45593999997E+02  0.45594000000E+02  0.51100000000E-03 0.  1.
    9900012    2    1    2    0    0 -0.22295031983E+02  0.18844424606E+02  0.28301682054E+02  0.50528855925E+02  0.29999988070E+02 0.  0.
        -12    1    1    2    0    0  0.22295031983E+02 -0.18844424606E+02 -0.28301682054E+02  0.40659144075E+02  0.00000000000E+00 0.  1.
         11    1    3    3    0    0  0.66613944297E+00 -0.21344485824E+01  0.11712964778E+02  0.11924477207E+02  0.51100000000E-03 0.  1.
        -11    1    3    3    0    0  0.11009437977E+01  0.67859984253E+01  0.24855727052E+01  0.73102615417E+01  0.51100000000E-03 0. -1.
         12    1    3    3    0    0 -0.24062115224E+02  0.14192874763E+02  0.14103144571E+02  0.31294117176E+02  0.00000000000E+00 0. -1.
</event>
<event>
 7    1  0.5041278E-013  0.5052890E+02  0.7816164E-02  0.1300439E+00
        -11   -1    0    0    0    0  0.00000000000E+00  0.00000000000E+00  0.45593999997E+02  0.45594000000E+02  0.51100000000E-03 0.  1.
         11   -1    0    0    0    0 -0.00000000000E+00 -0.00000000000E+00 -0.45593999997E+02  0.45594000000E+02  0.51100000000E-03 0. -1.
    9900012    2    1    2    0    0  0.23515847580E+02  0.21865992736E+02 -0.24940842493E+02  0.50528900773E+02  0.30000124389E+02 0.  0.
        -12    1    1    2    0    0 -0.23515847580E+02 -0.21865992736E+02  0.24940842493E+02  0.40659099227E+02  0.00000000000E+00 0.  1.
         11    1    3    3    0    0  0.10068569185E+01  0.29279782415E+01  0.33777240982E+01  0.45821215373E+01  0.51100000000E-03 0. -1.
        -11    1    3    3    0    0 -0.29002322907E+01  0.71110245167E+01 -0.93720834976E+01  0.12116681326E+02  0.51100000000E-03 0.  1.
        -12    1    3    3    0    0  0.25409222952E+02  0.11826989977E+02 -0.18946483093E+02  0.33830097909E+02  0.00000000000E+00 0.  1.
</event>
<event>
 7    1  0.5041278E-013  0.5052885E+02  0.7816164E-02  0.1300439E+00
        -11   -1    0    0    0    0  0.00000000000E+00  0.00000000000E+00  0.45593999997E+02  0.45594000000E+02  0.51100000000E-03 0.  1.
         11   -1    0    0    0    0 -0.00000000000E+00 -0.00000000000E+00 -0.45593999997E+02  0.45594000000E+02  0.51100000000E-03 0. -1.
    9900012    2    1    2    0    0  0.31381104005E+02  0.28022682350E+01 -0.25700975918E+02  0.50528849013E+02  0.29999967059E+02 0.  0.
        -12    1    1    2    0    0 -0.31381104005E+02 -0.28022682350E+01  0.25700975918E+02  0.40659150987E+02  0.00000000000E+00 0.  1.
         11    1    3    3    0    0  0.13249818832E+02  0.44754630742E+01 -0.11030117048E+02  0.17811539831E+02  0.51100000000E-03 0. -1.
        -11    1    3    3    0    0 -0.29586346914E+01  0.55880009385E+01 -0.62074270996E+01  0.88606673103E+01  0.51100000000E-03 0.  1.
         12    1    3    3    0    0  0.21089919865E+02 -0.72611957777E+01 -0.84634317711E+01  0.23856641871E+02  0.00000000000E+00 0. -1.
</event>
<event>
 7    1  0.5041278E-013  0.5052886E+02  0.7816164E-02  0.1300439E+00
        -11   -1    0    0    0    0  0.00000000000E+00  0.00000000000E+00  0.45593999997E+02  0.45594000000E+02  0.51100000000E-03 0. -1.
         11   -1    0    0    0    0 -0.00000000000E+00 -0.00000000000E+00 -0.45593999997E+02  0.45594000000E+02  0.51100000000E-03 0.  1.
    9900012    2    1    2    0    0  0.54215570667E+01  0.34931365924E+02  0.20089111185E+02  0.50528855954E+02  0.29999988158E+02 0.  0.
        -12    1    1    2    0    0 -0.54215570667E+01 -0.34931365924E+02 -0.20089111185E+02  0.40659144046E+02  0.00000000000E+00 0.  1.
         11    1    3    3    0    0  0.21463124337E+01  0.76790970050E+01  0.13409228750E+01  0.80853733552E+01  0.51100000000E-03 0.  1.
        -11    1    3    3    0    0 -0.10362118441E+02  0.40146815724E+01  0.48244216867E+01  0.12114710545E+02  0.51100000000E-03 0. -1.
         12    1    3    3    0    0  0.13637363074E+02  0.23237587347E+02  0.13923766624E+02  0.30328772054E+02  0.00000000000E+00 0. -1.
</event>
<event>
 7    1  0.5041278E-013  0.5052886E+02  0.7816164E-02  0.1300439E+00
        -11   -1    0    0    0    0  0.00000000000E+00  0.00000000000E+00  0.45593999997E+02  0.45594000000E+02  0.51100000000E-03 0.  1.
         11   -1    0    0    0    0 -0.00000000000E+00 -0.00000000000E+00 -0.45593999997E+02  0.45594000000E+02  0.51100000000E-03 0. -1.
    9900012    2    1    2    0    0  0.38038494553E+01  0.15259905156E+02 -0.37494422519E+02  0.50528859624E+02  0.29999999313E+02 0.  0.
        -12    1    1    2    0    0 -0.38038494553E+01 -0.15259905156E+02  0.37494422519E+02  0.40659140376E+02  0.00000000000E+00 0.  1.
         11    1    3    3    0    0 -0.34755427895E+00  0.12228856731E+02 -0.34746928132E+02  0.36837681059E+02  0.51100000000E-03 0. -1.
        -11    1    3    3    0    0 -0.39076886526E+01  0.14415773352E+01 -0.35027508551E+01  0.54421907017E+01  0.51100000000E-03 0.  1.
        -12    1    3    3    0    0  0.80590923869E+01  0.15894710895E+01  0.75525646743E+00  0.82489878637E+01  0.00000000000E+00 0.  1.
</event>
<event>
 7    1  0.5041278E-013  0.5052887E+02  0.7816164E-02  0.1300439E+00
        -11   -1    0    0    0    0  0.00000000000E+00  0.00000000000E+00  0.45593999997E+02  0.45594000000E+02  0.51100000000E-03 0.  1.
         11   -1    0    0    0    0 -0.00000000000E+00 -0.00000000000E+00 -0.45593999997E+02  0.45594000000E+02  0.51100000000E-03 0. -1.
    9900012    2    1    2    0    0  0.32953032681E+02  0.23411758381E+02  0.43762783659E+01  0.50528873033E+02  0.30000040071E+02 0.  0.
        -12    1    1    2    0    0 -0.32953032681E+02 -0.23411758381E+02 -0.43762783659E+01  0.40659126967E+02  0.00000000000E+00 0.  1.
         11    1    3    3    0    0  0.68832934070E+01 -0.24002636780E+01 -0.59281204308E+01  0.93959356082E+01  0.51100000000E-03 0. -1.
        -11    1    3    3    0    0  0.14518221579E+01  0.66527464994E+01  0.69966496904E+01  0.97631926497E+01  0.51100000000E-03 0.  1.
         12    1    3    3    0    0  0.24617917116E+02  0.19159275560E+02  0.33077491063E+01  0.31369744775E+02  0.00000000000E+00 0. -1.
</event>
<event>
 7    1  0.5041278E-013  0.5052885E+02  0.7816164E-02  0.1300439E+00
        -11   -1    0    0    0    0  0.00000000000E+00  0.00000000000E+00  0.45593999997E+02  0.45594000000E+02  0.51100000000E-03 0. -1.
         11   -1    0    0    0    0 -0.00000000000E+00 -0.00000000000E+00 -0.45593999997E+02  0.45594000000E+02  0.51100000000E-03 0.  1.
    9900012    2    1    2    0    0 -0.34670904786E+02 -0.20485587341E+02  0.56067366410E+01  0.50528850684E+02  0.29999972138E+02 0.  0.
        -12    1    1    2    0    0  0.34670904786E+02  0.20485587341E+02 -0.56067366410E+01  0.40659149316E+02  0.00000000000E+00 0.  1.
         11    1    3    3    0    0 -0.23122750194E+02  0.21812883018E+00 -0.72512249922E+00  0.23135145550E+02  0.51100000000E-03 0. -1.
        -11    1    3    3    0    0 -0.61553972410E+01 -0.31968174103E+01  0.58420084476E+01  0.90684960006E+01  0.51100000000E-03 0.  1.
         12    1    3    3    0    0 -0.53927573507E+01 -0.17506898761E+02  0.48985069263E+00  0.18325209133E+02  0.00000000000E+00 0. -1.
</event>
<event>
 7    1  0.5041278E-013  0.5052886E+02  0.7816164E-02  0.1300439E+00
        -11   -1    0    0    0    0  0.00000000000E+00  0.00000000000E+00  0.45593999997E+02  0.45594000000E+02  0.51100000000E-03 0.  1.
         11   -1    0    0    0    0 -0.00000000000E+00 -0.00000000000E+00 -0.45593999997E+02  0.45594000000E+02  0.51100000000E-03 0. -1.
    9900012    2    1    2    0    0 -0.15632955967E+02  0.16446925062E+02 -0.33738332045E+02  0.50528859509E+02  0.29999998964E+02 0.  0.
        -12    1    1    2    0    0  0.15632955967E+02 -0.16446925062E+02  0.33738332045E+02  0.40659140491E+02  0.00000000000E+00 0.  1.
         11    1    3    3    0    0 -0.16332921707E+00  0.58048446457E+01 -0.17540377061E+02  0.18476680586E+02  0.51100000000E-03 0. -1.
        -11    1    3    3    0    0  0.18043770246E+01  0.97060088834E+01 -0.30799354120E+01  0.10341585338E+02  0.51100000000E-03 0.  1.
         12    1    3    3    0    0 -0.17274003775E+02  0.93607153290E+00 -0.13118019572E+02  0.21710593585E+02  0.00000000000E+00 0. -1.
</event>
<event>
 7    1  0.5041278E-013  0.5052886E+02  0.7816164E-02  0.1300439E+00
        -11   -1    0    0    0    0  0.00000000000E+00  0.00000000000E+00  0.45593999997E+02  0.45594000000E+02  0.51100000000E-03 0.  1.
         11   -1    0    0    0    0 -0.00000000000E+00 -0.00000000000E+00 -0.45593999997E+02  0.45594000000E+02  0.51100000000E-03 0. -1.
    9900012    2    1    2    0    0  0.39037912585E+02 -0.10930936452E+02  0.31179569623E+01  0.50528860237E+02  0.30000001175E+02 0.  0.
        -12    1    1    2    0    0 -0.39037912585E+02  0.10930936452E+02 -0.31179569623E+01  0.40659139763E+02  0.00000000000E+00 0.  1.
         11    1    3    3    0    0  0.21989737802E+02  0.21527728277E+00 -0.24193662325E+01  0.22123477262E+02  0.51100000000E-03 0. -1.
        -11    1    3    3    0    0  0.18643121544E+01 -0.13805019493E+01 -0.63697844023E+01  0.67790559102E+01  0.51100000000E-03 0.  1.
         12    1    3    3    0    0  0.15183862628E+02 -0.97657117852E+01  0.11907107597E+02  0.21626327065E+02  0.00000000000E+00 0. -1.
</event>
<event>
 7    1  0.5041278E-013  0.5052886E+02  0.7816164E-02  0.1300439E+00
        -11   -1    0    0    0    0  0.00000000000E+00  0.00000000000E+00  0.45593999997E+02  0.45594000000E+02  0.51100000000E-03 0.  1.
         11   -1    0    0    0    0 -0.00000000000E+00 -0.00000000000E+00 -0.45593999997E+02  0.45594000000E+02  0.51100000000E-03 0. -1.
    9900012    2    1    2    0    0 -0.10430149863E+02  0.15341481128E+02 -0.36180337399E+02  0.50528857318E+02  0.29999992303E+02 0.  0.
        -12    1    1    2    0    0  0.10430149863E+02 -0.15341481128E+02  0.36180337399E+02  0.40659142682E+02  0.00000000000E+00 0.  1.
         11    1    3    3    0    0 -0.77523277651E+00  0.14070328216E+02 -0.14900947957E+02  0.20508860823E+02  0.51100000000E-03 0. -1.
        -11    1    3    3    0    0 -0.82691456753E-01 -0.48134620811E+01  0.10929719192E+01  0.49366833968E+01  0.51100000000E-03 0.  1.
         12    1    3    3    0    0 -0.95722256293E+01  0.60846149932E+01 -0.22372361361E+02  0.25083313098E+02  0.00000000000E+00 0. -1.
</event>
<event>
 7    1  0.5041278E-013  0.5052887E+02  0.7816164E-02  0.1300439E+00
        -11   -1    0    0    0    0  0.00000000000E+00  0.00000000000E+00  0.45593999997E+02  0.45594000000E+02  0.51100000000E-03 0.  1.
         11   -1    0    0    0    0 -0.00000000000E+00 -0.00000000000E+00 -0.45593999997E+02  0.45594000000E+02  0.51100000000E-03 0. -1.
    9900012    2    1    2    0    0  0.10242040796E+02 -0.35325345116E+02 -0.17331639069E+02  0.50528866709E+02  0.30000020848E+02 0.  0.
        -12    1    1    2    0    0 -0.10242040796E+02  0.35325345116E+02  0.17331639069E+02  0.40659133291E+02  0.00000000000E+00 0.  1.
         11    1    3    3    0    0 -0.85550930038E+00 -0.57380298010E+01 -0.30552109744E+01  0.65567672309E+01  0.51100000000E-03 0. -1.
        -11    1    3    3    0    0  0.22534945829E+01  0.31858199364E+01 -0.87486457027E+01  0.95794826789E+01  0.51100000000E-03 0.  1.
         12    1    3    3    0    0  0.88440555134E+01 -0.32773135251E+02 -0.55277823914E+01  0.34392616799E+02  0.00000000000E+00 0. -1.
</event>
<event>
 7    1  0.5041278E-013  0.5052887E+02  0.7816164E-02  0.1300439E+00
        -11   -1    0    0    0    0  0.00000000000E+00  0.00000000000E+00  0.45593999997E+02  0.45594000000E+02  0.51100000000E-03 0.  1.
         11   -1    0    0    0    0 -0.00000000000E+00 -0.00000000000E+00 -0.45593999997E+02  0.45594000000E+02  0.51100000000E-03 0. -1.
    9900012    2    1    2    0    0 -0.20940854386E+02  0.14011243392E+02 -0.31911295029E+02  0.50528867272E+02  0.30000022559E+02 0.  0.
        -12    1    1    2    0    0  0.20940854386E+02 -0.14011243392E+02  0.31911295029E+02  0.40659132728E+02  0.00000000000E+00 0.  1.
         11    1    3    3    0    0 -0.86075661835E+01 -0.16145900545E+01  0.30077549524E+01  0.92597886997E+01  0.51100000000E-03 0. -1.
        -11    1    3    3    0    0 -0.28192745002E+01  0.51933571740E+01 -0.36127159959E+01  0.69261089055E+01  0.51100000000E-03 0.  1.
         12    1    3    3    0    0 -0.95140137021E+01  0.10432476272E+02 -0.31306333986E+02  0.34342969666E+02  0.00000000000E+00 0. -1.
</event>
<event>
 7    1  0.5041278E-013  0.5052886E+02  0.7816164E-02  0.1300439E+00
        -11   -1    0    0    0    0  0.00000000000E+00  0.00000000000E+00  0.45593999997E+02  0.45594000000E+02  0.51100000000E-03 0. -1.
         11   -1    0    0    0    0 -0.00000000000E+00 -0.00000000000E+00 -0.45593999997E+02  0.45594000000E+02  0.51100000000E-03 0.  1.
    9900012    2    1    2    0    0 -0.37891465161E+02  0.14327688398E+02 -0.34813343485E+01  0.50528862334E+02  0.30000007551E+02 0.  0.
        -12    1    1    2    0    0  0.37891465161E+02 -0.14327688398E+02  0.34813343485E+01  0.40659137666E+02  0.00000000000E+00 0.  1.
         11    1    3    3    0    0 -0.11882726157E+02  0.31504794189E+01 -0.63719471521E+01  0.13846530694E+02  0.51100000000E-03 0. -1.
        -11    1    3    3    0    0 -0.13343238728E+02  0.13886765153E+02  0.10218043572E+02  0.21801208243E+02  0.51100000000E-03 0.  1.
         12    1    3    3    0    0 -0.12665500275E+02 -0.27095561739E+01 -0.73274307680E+01  0.14881123396E+02  0.00000000000E+00 0. -1.
</event>
<event>
 7    1  0.5041278E-013  0.5052886E+02  0.7816164E-02  0.1300439E+00
        -11   -1    0    0    0    0  0.00000000000E+00  0.00000000000E+00  0.45593999997E+02  0.45594000000E+02  0.51100000000E-03 0.  1.
         11   -1    0    0    0    0 -0.00000000000E+00 -0.00000000000E+00 -0.45593999997E+02  0.45594000000E+02  0.51100000000E-03 0. -1.
    9900012    2    1    2    0    0  0.20338913048E+02 -0.29520029126E+02 -0.19184948509E+02  0.50528858926E+02  0.29999997191E+02 0.  0.
        -12    1    1    2    0    0 -0.20338913048E+02  0.29520029126E+02  0.19184948509E+02  0.40659141074E+02  0.00000000000E+00 0.  1.
         11    1    3    3    0    0  0.15392321284E+02 -0.15263584594E+02 -0.15429849674E+00  0.21677739214E+02  0.51100000000E-03 0.  1.
        -11    1    3    3    0    0 -0.24794211526E+01 -0.39125078324E+01  0.13454813540E+01  0.48234393461E+01  0.51100000000E-03 0. -1.
         12    1    3    3    0    0  0.74260129166E+01 -0.10343936700E+02 -0.20376131366E+02  0.24027680366E+02  0.00000000000E+00 0. -1.
</event>
<event>
 7    1  0.5041278E-013  0.5052886E+02  0.7816164E-02  0.1300439E+00
        -11   -1    0    0    0    0  0.00000000000E+00  0.00000000000E+00  0.45593999997E+02  0.45594000000E+02  0.51100000000E-03 0.  1.
         11   -1    0    0    0    0 -0.00000000000E+00 -0.00000000000E+00 -0.45593999997E+02  0.45594000000E+02  0.51100000000E-03 0. -1.
    9900012    2    1    2    0    0 -0.33300744190E+02  0.14716447215E+02 -0.18101159490E+02  0.50528863793E+02  0.30000011984E+02 0.  0.
        -12    1    1    2    0    0  0.33300744190E+02 -0.14716447215E+02  0.18101159490E+02  0.40659136207E+02  0.00000000000E+00 0.  1.
         11    1    3    3    0    0  0.14895656382E+01 -0.25403853303E+01 -0.16581328360E+01  0.33796106551E+01  0.51100000000E-03 0. -1.
        -11    1    3    3    0    0  0.27166227916E+01  0.16674613094E+01  0.33002157817E+00  0.32045875106E+01  0.51100000000E-03 0.  1.
         12    1    3    3    0    0 -0.37506932620E+02  0.15589371235E+02 -0.16773048233E+02  0.43944665627E+02  0.00000000000E+00 0. -1.
</event>
<event>
 7    1  0.5041278E-013  0.5052887E+02  0.7816164E-02  0.1300439E+00
        -11   -1    0    0    0    0  0.00000000000E+00  0.00000000000E+00  0.45593999997E+02  0.45594000000E+02  0.51100000000E-03 0.  1.
         11   -1    0    0    0    0 -0.00000000000E+00 -0.00000000000E+00 -0.45593999997E+02  0.45594000000E+02  0.51100000000E-03 0. -1.
    9900012    2    1    2    0    0  0.17389402805E+02 -0.21160961384E+02 -0.30049747249E+02  0.50528869091E+02  0.30000028088E+02 0.  0.
        -12    1    1    2    0    0 -0.17389402805E+02  0.21160961384E+02  0.30049747249E+02  0.40659130909E+02  0.00000000000E+00 0.  1.
         11    1    3    3    0    0  0.92727204104E+01 -0.16308018092E+02 -0.20764150387E+02  0.27983651289E+02  0.51100000000E-03 0. -1.
        -11    1    3    3    0    0  0.45351364235E+00 -0.61616342659E+01  0.38513095838E+01  0.72803844145E+01  0.51100000000E-03 0.  1.
         12    1    3    3    0    0  0.76631687519E+01  0.13086909744E+01 -0.13136906446E+02  0.15264833388E+02  0.00000000000E+00 0. -1.
</event>
<event>
 7    1  0.5041278E-013  0.5052885E+02  0.7816164E-02  0.1300439E+00
        -11   -1    0    0    0    0  0.00000000000E+00  0.00000000000E+00  0.45593999997E+02  0.45594000000E+02  0.51100000000E-03 0. -1.
         11   -1    0    0    0    0 -0.00000000000E+00 -0.00000000000E+00 -0.45593999997E+02  0.45594000000E+02  0.51100000000E-03 0.  1.
    9900012    2    1    2    0    0  0.46282301724E+00 -0.27600761013E+02  0.29852135828E+02  0.50528853094E+02  0.29999979464E+02 0.  0.
        -12    1    1    2    0    0 -0.46282301724E+00  0.27600761013E+02 -0.29852135828E+02  0.40659146906E+02  0.00000000000E+00 0.  1.
         11    1    3    3    0    0  0.10212891780E+02 -0.18549525518E+02  0.59382877026E+01  0.21992073948E+02  0.51100000000E-03 0.  1.
        -11    1    3    3    0    0 -0.33839693048E+01 -0.99746538004E+00  0.13342282186E+02  0.13800821701E+02  0.51100000000E-03 0. -1.
        -12    1    3    3    0    0 -0.63660994580E+01 -0.80537701149E+01  0.10571565940E+02  0.14735957444E+02  0.00000000000E+00 0.  1.
</event>
<event>
 7    1  0.5041278E-013  0.5052886E+02  0.7816164E-02  0.1300439E+00
        -11   -1    0    0    0    0  0.00000000000E+00  0.00000000000E+00  0.45593999997E+02  0.45594000000E+02  0.51100000000E-03 0.  1.
         11   -1    0    0    0    0 -0.00000000000E+00 -0.00000000000E+00 -0.45593999997E+02  0.45594000000E+02  0.51100000000E-03 0. -1.
    9900012    2    1    2    0    0  0.40343507712E+02  0.48786526888E+01  0.13288226220E+01  0.50528860361E+02  0.30000001554E+02 0.  0.
        -12    1    1    2    0    0 -0.40343507712E+02 -0.48786526888E+01 -0.13288226220E+01  0.40659139639E+02  0.00000000000E+00 0.  1.
         11    1    3    3    0    0  0.24522043661E+02  0.49141415205E+01  0.95628491605E+01  0.26775501798E+02  0.51100000000E-03 0. -1.
        -11    1    3    3    0    0 -0.17891047049E+01 -0.23001168908E+01 -0.48799170220E+01  0.56837508530E+01  0.51100000000E-03 0.  1.
         12    1    3    3    0    0  0.17610568756E+02  0.22646280591E+01 -0.33541095165E+01  0.18069607710E+02  0.00000000000E+00 0. -1.
</event>
<event>
 7    1  0.5041278E-013  0.5052886E+02  0.7816164E-02  0.1300439E+00
        -11   -1    0    0    0    0  0.00000000000E+00  0.00000000000E+00  0.45593999997E+02  0.45594000000E+02  0.51100000000E-03 0.  1.
         11   -1    0    0    0    0 -0.00000000000E+00 -0.00000000000E+00 -0.45593999997E+02  0.45594000000E+02  0.51100000000E-03 0. -1.
    9900012    2    1    2    0    0 -0.72276105632E+01  0.18172820361E+02 -0.35646541000E+02  0.50528860319E+02  0.30000001427E+02 0.  0.
        -12    1    1    2    0    0  0.72276105632E+01 -0.18172820361E+02  0.35646541000E+02  0.40659139681E+02  0.00000000000E+00 0.  1.
         11    1    3    3    0    0  0.37130177564E+01  0.11938658061E+02 -0.11111810156E+02  0.16726935833E+02  0.51100000000E-03 0. -1.
        -11    1    3    3    0    0  0.13134877287E+01 -0.22922611188E+01  0.20287021255E+01  0.33309673708E+01  0.51100000000E-03 0.  1.
         12    1    3    3    0    0 -0.12254116048E+02  0.85264234192E+01 -0.26563432969E+02  0.30470957115E+02  0.00000000000E+00 0. -1.
</event>
<event>
 7    1  0.5041278E-013  0.5052886E+02  0.7816164E-02  0.1300439E+00
        -11   -1    0    0    0    0  0.00000000000E+00  0.00000000000E+00  0.45593999997E+02  0.45594000000E+02  0.51100000000E-03 0.  1.
         11   -1    0    0    0    0 -0.00000000000E+00 -0.00000000000E+00 -0.45593999997E+02  0.45594000000E+02  0.51100000000E-03 0. -1.
    9900012    2    1    2    0    0 -0.27529703063E+02  0.21290577886E+02 -0.21023619656E+02  0.50528857844E+02  0.29999993902E+02 0.  0.
        -12    1    1    2    0    0  0.27529703063E+02 -0.21290577886E+02  0.21023619656E+02  0.40659142156E+02  0.00000000000E+00 0.  1.
         11    1    3    3    0    0 -0.59981574243E+01  0.25018506148E+01  0.37706528317E+01  0.75136523757E+01  0.51100000000E-03 0. -1.
        -11    1    3    3    0    0  0.24492938848E+01 -0.21460407061E+01 -0.15992116864E+01  0.36279483907E+01  0.51100000000E-03 0.  1.
         12    1    3    3    0    0 -0.23980839523E+02  0.20934767978E+02 -0.23195060801E+02  0.39387257077E+02  0.00000000000E+00 0. -1.
</event>
<event>
 7    1  0.5041278E-013  0.5052886E+02  0.7816164E-02  0.1300439E+00
        -11   -1    0    0    0    0  0.00000000000E+00  0.00000000000E+00  0.45593999997E+02  0.45594000000E+02  0.51100000000E-03 0.  1.
         11   -1    0    0    0    0 -0.00000000000E+00 -0.00000000000E+00 -0.45593999997E+02  0.45594000000E+02  0.51100000000E-03 0. -1.
    9900012    2    1    2    0    0  0.37712147688E+02 -0.10729448266E+02 -0.10762840197E+02  0.50528857455E+02  0.29999992721E+02 0.  0.
        -12    1    1    2    0    0 -0.37712147688E+02  0.10729448266E+02  0.10762840197E+02  0.40659142545E+02  0.00000000000E+00 0.  1.
         11    1    3    3    0    0  0.62964334033E+01  0.58801223818E+00 -0.12740201129E+02  0.14223345494E+02  0.51100000000E-03 0. -1.
        -11    1    3    3    0    0  0.61111908693E+01 -0.89122334298E+01 -0.48455186656E-01  0.10806336415E+02  0.51100000000E-03 0.  1.
         12    1    3    3    0    0  0.25304523416E+02 -0.24052270743E+01  0.20258161177E+01  0.25499175546E+02  0.00000000000E+00 0. -1.
</event>
<event>
 7    1  0.5041278E-013  0.5052886E+02  0.7816164E-02  0.1300439E+00
        -11   -1    0    0    0    0  0.00000000000E+00  0.00000000000E+00  0.45593999997E+02  0.45594000000E+02  0.51100000000E-03 0.  1.
         11   -1    0    0    0    0 -0.00000000000E+00 -0.00000000000E+00 -0.45593999997E+02  0.45594000000E+02  0.51100000000E-03 0. -1.
    9900012    2    1    2    0    0 -0.42196723742E+01  0.40003237751E+02  0.59246390146E+01  0.50528855727E+02  0.29999987469E+02 0.  0.
        -12    1    1    2    0    0  0.42196723742E+01 -0.40003237751E+02 -0.59246390146E+01  0.40659144273E+02  0.00000000000E+00 0.  1.
         11    1    3    3    0    0  0.94065401790E+01  0.17162020575E+02  0.54878020327E+01  0.20325696046E+02  0.51100000000E-03 0. -1.
        -11    1    3    3    0    0 -0.85261366272E+01  0.25173802467E+01  0.22517057262E+01  0.91707354139E+01  0.51100000000E-03 0.  1.
        -12    1    3    3    0    0 -0.51000759260E+01  0.20323836930E+02 -0.18148687442E+01  0.21032424267E+02  0.00000000000E+00 0.  1.
</event>
<event>
 7    1  0.5041278E-013  0.5052887E+02  0.7816164E-02  0.1300439E+00
        -11   -1    0    0    0    0  0.00000000000E+00  0.00000000000E+00  0.45593999997E+02  0.45594000000E+02  0.51100000000E-03 0. -1.
         11   -1    0    0    0    0 -0.00000000000E+00 -0.00000000000E+00 -0.45593999997E+02  0.45594000000E+02  0.51100000000E-03 0.  1.
    9900012    2    1    2    0    0  0.27725564322E+02 -0.10781992327E+02  0.27716542723E+02  0.50528867987E+02  0.30000024734E+02 0.  0.
        -12    1    1    2    0    0 -0.27725564322E+02  0.10781992327E+02 -0.27716542723E+02  0.40659132013E+02  0.00000000000E+00 0.  1.
         11    1    3    3    0    0  0.75076127111E+01  0.10468726145E+01  0.59252620628E+01  0.96212744304E+01  0.51100000000E-03 0. -1.
        -11    1    3    3    0    0  0.25293242157E+02 -0.59795299861E+01  0.12584416107E+02  0.28876814345E+02  0.51100000000E-03 0.  1.
        -12    1    3    3    0    0 -0.50752905462E+01 -0.58493349559E+01  0.92068645532E+01  0.12030779212E+02  0.00000000000E+00 0.  1.
</event>
<event>
 7    1  0.5041278E-013  0.5052888E+02  0.7816164E-02  0.1300439E+00
        -11   -1    0    0    0    0  0.00000000000E+00  0.00000000000E+00  0.45593999997E+02  0.45594000000E+02  0.51100000000E-03 0.  1.
         11   -1    0    0    0    0 -0.00000000000E+00 -0.00000000000E+00 -0.45593999997E+02  0.45594000000E+02  0.51100000000E-03 0. -1.
    9900012    2    1    2    0    0 -0.24466624250E+02  0.27586801824E+02 -0.17132335842E+02  0.50528877181E+02  0.30000052678E+02 0.  0.
        -12    1    1    2    0    0  0.24466624250E+02 -0.27586801824E+02  0.17132335842E+02  0.40659122819E+02  0.00000000000E+00 0.  1.
         11    1    3    3    0    0  0.34816705181E+01  0.89830859865E+01 -0.36200568702E+01  0.10291874243E+02  0.51100000000E-03 0. -1.
        -11    1    3    3    0    0 -0.53386726738E+01  0.68921768718E+01  0.37332812238E+01  0.94837185169E+01  0.51100000000E-03 0.  1.
         12    1    3    3    0    0 -0.22609622094E+02  0.11711538965E+02 -0.17245560196E+02  0.30753284420E+02  0.00000000000E+00 0. -1.
</event>
<event>
 7    1  0.5041278E-013  0.5052885E+02  0.7816164E-02  0.1300439E+00
        -11   -1    0    0    0    0  0.00000000000E+00  0.00000000000E+00  0.45593999997E+02  0.45594000000E+02  0.51100000000E-03 0.  1.
         11   -1    0    0    0    0 -0.00000000000E+00 -0.00000000000E+00 -0.45593999997E+02  0.45594000000E+02  0.51100000000E-03 0. -1.
    9900012    2    1    2    0    0  0.14701432067E+02  0.13503610694E+01 -0.37884182564E+02  0.50528845209E+02  0.29999955496E+02 0.  0.
        -12    1    1    2    0    0 -0.14701432067E+02 -0.13503610694E+01  0.37884182564E+02  0.40659154791E+02  0.00000000000E+00 0.  1.
         11    1    3    3    0    0  0.24292809755E+01  0.42385218559E+01 -0.57812263906E+01  0.75689531919E+01  0.51100000000E-03 0. -1.
        -11    1    3    3    0    0  0.74476387471E+01 -0.11902122374E+02 -0.66602397756E+01  0.15539840220E+02  0.51100000000E-03 0.  1.
         12    1    3    3    0    0  0.48245123444E+01  0.90139615880E+01 -0.25442716397E+02  0.27420051797E+02  0.00000000000E+00 0. -1.
</event>
<event>
 7    1  0.5041278E-013  0.5052886E+02  0.7816164E-02  0.1300439E+00
        -11   -1    0    0    0    0  0.00000000000E+00  0.00000000000E+00  0.45593999997E+02  0.45594000000E+02  0.51100000000E-03 0.  1.
         11   -1    0    0    0    0 -0.00000000000E+00 -0.00000000000E+00 -0.45593999997E+02  0.45594000000E+02  0.51100000000E-03 0. -1.
    9900012    2    1    2    0    0 -0.20838527492E+02 -0.26186240535E+02 -0.23091168684E+02  0.50528862127E+02  0.30000006920E+02 0.  0.
        -12    1    1    2    0    0  0.20838527492E+02  0.26186240535E+02  0.23091168684E+02  0.40659137873E+02  0.00000000000E+00 0.  1.
         11    1    3    3    0    0 -0.14104945126E+02 -0.23964636318E+01 -0.39876070209E+01  0.14852391221E+02  0.51100000000E-03 0. -1.
        -11    1    3    3    0    0 -0.73967414979E+01 -0.37363811471E+01 -0.47959903482E+00  0.83007436027E+01  0.51100000000E-03 0.  1.
        -12    1    3    3    0    0  0.66315913201E+00 -0.20053395756E+02 -0.18623962628E+02  0.27375727303E+02  0.00000000000E+00 0.  1.
</event>
<event>
 7    1  0.5041278E-013  0.5052886E+02  0.7816164E-02  0.1300439E+00
        -11   -1    0    0    0    0  0.00000000000E+00  0.00000000000E+00  0.45593999997E+02  0.45594000000E+02  0.51100000000E-03 0.  1.
         11   -1    0    0    0    0 -0.00000000000E+00 -0.00000000000E+00 -0.45593999997E+02  0.45594000000E+02  0.51100000000E-03 0. -1.
    9900012    2    1    2    0    0 -0.60049825391E+01  0.14559396550E+02 -0.37485066501E+02  0.50528855225E+02  0.29999985943E+02 0.  0.
        -12    1    1    2    0    0  0.60049825391E+01 -0.14559396550E+02  0.37485066501E+02  0.40659144775E+02  0.00000000000E+00 0.  1.
         11    1    3    3    0    0  0.19948052342E+01  0.13924314559E+02 -0.11699350174E+02  0.18295916993E+02  0.51100000000E-03 0. -1.
        -11    1    3    3    0    0  0.32251690303E+01 -0.44267219225E+01 -0.14614649058E+02  0.15607227479E+02  0.51100000000E-03 0.  1.
         12    1    3    3    0    0 -0.11224956804E+02  0.50618039140E+01 -0.11171067270E+02  0.16625710753E+02  0.00000000000E+00 0. -1.
</event>
<event>
 7    1  0.5041278E-013  0.5052886E+02  0.7816164E-02  0.1300439E+00
        -11   -1    0    0    0    0  0.00000000000E+00  0.00000000000E+00  0.45593999997E+02  0.45594000000E+02  0.51100000000E-03 0.  1.
         11   -1    0    0    0    0 -0.00000000000E+00 -0.00000000000E+00 -0.45593999997E+02  0.45594000000E+02  0.51100000000E-03 0. -1.
    9900012    2    1    2    0    0 -0.40494960780E-01  0.33878784382E+02 -0.22480925720E+02  0.50528859672E+02  0.29999999458E+02 0.  0.
        -12    1    1    2    0    0  0.40494960780E-01 -0.33878784382E+02  0.22480925720E+02  0.40659140328E+02  0.00000000000E+00 0.  1.
         11    1    3    3    0    0  0.15110238870E+01  0.11635393342E+01 -0.17692896874E+01  0.26014233082E+01  0.51100000000E-03 0.  1.
        -11    1    3    3    0    0  0.56653379222E+01  0.29158517891E+02 -0.24987496566E+02  0.38816107536E+02  0.51100000000E-03 0. -1.
         12    1    3    3    0    0 -0.72168567700E+01  0.35567271562E+01  0.42758605332E+01  0.91113288274E+01  0.00000000000E+00 0. -1.
</event>
<event>
 7    1  0.5041278E-013  0.5052886E+02  0.7816164E-02  0.1300439E+00
        -11   -1    0    0    0    0  0.00000000000E+00  0.00000000000E+00  0.45593999997E+02  0.45594000000E+02  0.51100000000E-03 0.  1.
         11   -1    0    0    0    0 -0.00000000000E+00 -0.00000000000E+00 -0.45593999997E+02  0.45594000000E+02  0.51100000000E-03 0. -1.
    9900012    2    1    2    0    0 -0.12252561975E+02 -0.27870480960E+02 -0.26949527079E+02  0.50528855965E+02  0.29999988191E+02 0.  0.
        -12    1    1    2    0    0  0.12252561975E+02  0.27870480960E+02  0.26949527079E+02  0.40659144035E+02  0.00000000000E+00 0.  1.
         11    1    3    3    0    0 -0.17858316489E+02 -0.96080078911E+01 -0.14410190206E+02  0.24877436875E+02  0.51100000000E-03 0. -1.
        -11    1    3    3    0    0 -0.60916309079E+00 -0.14643801175E+02 -0.56968192502E+01  0.15724685764E+02  0.51100000000E-03 0.  1.
        -12    1    3    3    0    0  0.62149176050E+01 -0.36186718933E+01 -0.68425176230E+01  0.99267333262E+01  0.00000000000E+00 0.  1.
</event>
<event>
 7    1  0.5041278E-013  0.5052886E+02  0.7816164E-02  0.1300439E+00
        -11   -1    0    0    0    0  0.00000000000E+00  0.00000000000E+00  0.45593999997E+02  0.45594000000E+02  0.51100000000E-03 0. -1.
         11   -1    0    0    0    0 -0.00000000000E+00 -0.00000000000E+00 -0.45593999997E+02  0.45594000000E+02  0.51100000000E-03 0.  1.
    9900012    2    1    2    0    0 -0.41397026167E+01 -0.39855189085E+02  0.68986983723E+01  0.50528864815E+02  0.30000015091E+02 0.  0.
        -12    1    1    2    0    0  0.41397026167E+01  0.39855189085E+02 -0.68986983723E+01  0.40659135185E+02  0.00000000000E+00 0.  1.
         11    1    3    3    0    0 -0.53165703244E+01 -0.71805252980E+01  0.88060670931E+01  0.12544826881E+02  0.51100000000E-03 0. -1.
        -11    1    3    3    0    0  0.71949649260E+01 -0.50208952880E+01 -0.39241521809E+01  0.96112371930E+01  0.51100000000E-03 0.  1.
         12    1    3    3    0    0 -0.60180972182E+01 -0.27653768499E+02  0.20167834601E+01  0.28372800741E+02  0.00000000000E+00 0. -1.
</event>
<event>
 7    1  0.5041278E-013  0.5052887E+02  0.7816164E-02  0.1300439E+00
        -11   -1    0    0    0    0  0.00000000000E+00  0.00000000000E+00  0.45593999997E+02  0.45594000000E+02  0.51100000000E-03 0. -1.
         11   -1    0    0    0    0 -0.00000000000E+00 -0.00000000000E+00 -0.45593999997E+02  0.45594000000E+02  0.51100000000E-03 0.  1.
    9900012    2    1    2    0    0 -0.11629801543E+02 -0.38607225020E+02  0.52339696351E+01  0.50528873770E+02  0.30000042310E+02 0.  0.
        -12    1    1    2    0    0  0.11629801543E+02  0.38607225020E+02 -0.52339696351E+01  0.40659126230E+02  0.00000000000E+00 0.  1.
         11    1    3    3    0    0 -0.25724677346E+01 -0.44026900295E+01  0.62552035601E+01  0.80702442082E+01  0.51100000000E-03 0. -1.
        -11    1    3    3    0    0 -0.11177528016E+02 -0.57212803898E+01  0.45550116390E+01  0.13357331812E+02  0.51100000000E-03 0.  1.
         12    1    3    3    0    0  0.21201942075E+01 -0.28483254601E+02 -0.55762455640E+01  0.29101297750E+02  0.00000000000E+00 0. -1.
</event>
<event>
 7    1  0.5041278E-013  0.5052886E+02  0.7816164E-02  0.1300439E+00
        -11   -1    0    0    0    0  0.00000000000E+00  0.00000000000E+00  0.45593999997E+02  0.45594000000E+02  0.51100000000E-03 0.  1.
         11   -1    0    0    0    0 -0.00000000000E+00 -0.00000000000E+00 -0.45593999997E+02  0.45594000000E+02  0.51100000000E-03 0. -1.
    9900012    2    1    2    0    0 -0.15122234912E+02 -0.48671625590E+01 -0.37427189850E+02  0.50528858345E+02  0.29999995425E+02 0.  0.
        -12    1    1    2    0    0  0.15122234912E+02  0.48671625590E+01  0.37427189850E+02  0.40659141655E+02  0.00000000000E+00 0.  1.
         11    1    3    3    0    0 -0.12857796284E+02  0.52592439535E+00 -0.11436721054E+01  0.12919268861E+02  0.51100000000E-03 0.  1.
        -11    1    3    3    0    0 -0.11212368878E+01  0.20396375121E+01 -0.70477083543E+01  0.74220944920E+01  0.51100000000E-03 0. -1.
        -12    1    3    3    0    0 -0.11432017395E+01 -0.74327244664E+01 -0.29235809390E+02  0.30187494992E+02  0.00000000000E+00 0.  1.
</event>
<event>
 7    1  0.5041278E-013  0.5052886E+02  0.7816164E-02  0.1300439E+00
        -11   -1    0    0    0    0  0.00000000000E+00  0.00000000000E+00  0.45593999997E+02  0.45594000000E+02  0.51100000000E-03 0.  1.
         11   -1    0    0    0    0 -0.00000000000E+00 -0.00000000000E+00 -0.45593999997E+02  0.45594000000E+02  0.51100000000E-03 0. -1.
    9900012    2    1    2    0    0 -0.24965450979E+02  0.20235678189E+02 -0.24908017427E+02  0.50528859005E+02  0.29999997431E+02 0.  0.
        -12    1    1    2    0    0  0.24965450979E+02 -0.20235678189E+02  0.24908017427E+02  0.40659140995E+02  0.00000000000E+00 0.  1.
         11    1    3    3    0    0 -0.11351934258E+02  0.15937863382E+02 -0.94150489742E+01  0.21714627513E+02  0.51100000000E-03 0. -1.
        -11    1    3    3    0    0 -0.28628473497E+01  0.87343100301E+01  0.30551805879E+00  0.91965976423E+01  0.51100000000E-03 0.  1.
        -12    1    3    3    0    0 -0.10750669371E+02 -0.44364952233E+01 -0.15798486511E+02  0.19617633849E+02  0.00000000000E+00 0.  1.
</event>
<event>
 7    1  0.5041278E-013  0.5052886E+02  0.7816164E-02  0.1300439E+00
        -11   -1    0    0    0    0  0.00000000000E+00  0.00000000000E+00  0.45593999997E+02  0.45594000000E+02  0.51100000000E-03 0.  1.
         11   -1    0    0    0    0 -0.00000000000E+00 -0.00000000000E+00 -0.45593999997E+02  0.45594000000E+02  0.51100000000E-03 0. -1.
    9900012    2    1    2    0    0  0.31284357674E+02  0.19049212155E+01 -0.25900307256E+02  0.50528859873E+02  0.30000000070E+02 0.  0.
        -12    1    1    2    0    0 -0.31284357674E+02 -0.19049212155E+01  0.25900307256E+02  0.40659140127E+02  0.00000000000E+00 0.  1.
         11    1    3    3    0    0  0.25839430031E+02  0.52234776637E+01 -0.12434295314E+02  0.29147428076E+02  0.51100000000E-03 0. -1.
        -11    1    3    3    0    0  0.95554522541E+01  0.20761936498E+01 -0.87386841348E+01  0.13114185012E+02  0.51100000000E-03 0.  1.
        -12    1    3    3    0    0 -0.41105246117E+01 -0.53947500980E+01 -0.47273278073E+01  0.82672467848E+01  0.00000000000E+00 0.  1.
</event>
<event>
 7    1  0.5041278E-013  0.5052885E+02  0.7816164E-02  0.1300439E+00
        -11   -1    0    0    0    0  0.00000000000E+00  0.00000000000E+00  0.45593999997E+02  0.45594000000E+02  0.51100000000E-03 0.  1.
         11   -1    0    0    0    0 -0.00000000000E+00 -0.00000000000E+00 -0.45593999997E+02  0.45594000000E+02  0.51100000000E-03 0. -1.
    9900012    2    1    2    0    0  0.20692964710E+01 -0.40594322886E+02 -0.99251878549E+00  0.50528854264E+02  0.29999983020E+02 0.  0.
        -12    1    1    2    0    0 -0.20692964710E+01  0.40594322886E+02  0.99251878549E+00  0.40659145736E+02  0.00000000000E+00 0.  1.
         11    1    3    3    0    0 -0.29847239562E+01 -0.24070543348E+02 -0.59809623417E+01  0.24981423998E+02  0.51100000000E-03 0.  1.
        -11    1    3    3    0    0  0.22297577387E+01 -0.35876980822E+01 -0.66769140515E+01  0.79009226432E+01  0.51100000000E-03 0. -1.
        -12    1    3    3    0    0  0.28242626884E+01 -0.12936081456E+02  0.11665357608E+02  0.17646507623E+02  0.00000000000E+00 0.  1.
</event>
<event>
 7    1  0.5041278E-013  0.5052886E+02  0.7816164E-02  0.1300439E+00
        -11   -1    0    0    0    0  0.00000000000E+00  0.00000000000E+00  0.45593999997E+02  0.45594000000E+02  0.51100000000E-03 0.  1.
         11   -1    0    0    0    0 -0.00000000000E+00 -0.00000000000E+00 -0.45593999997E+02  0.45594000000E+02  0.51100000000E-03 0. -1.
    9900012    2    1    2    0    0 -0.34581220171E+01  0.67026977114E+01 -0.39953485473E+02  0.50528858765E+02  0.29999996703E+02 0.  0.
        -12    1    1    2    0    0  0.34581220171E+01 -0.67026977114E+01  0.39953485473E+02  0.40659141235E+02  0.00000000000E+00 0.  1.
         11    1    3    3    0    0 -0.74143446998E+01  0.16623437198E+01 -0.78632477987E+01  0.10934649522E+02  0.51100000000E-03 0. -1.
        -11    1    3    3    0    0  0.52910057967E+01 -0.82686245607E+01 -0.13425286108E+02  0.16631392059E+02  0.51100000000E-03 0.  1.
        -12    1    3    3    0    0 -0.13347831141E+01  0.13308978552E+02 -0.18664951566E+02  0.22962817184E+02  0.00000000000E+00 0.  1.
</event>
<event>
 7    1  0.5041278E-013  0.5052887E+02  0.7816164E-02  0.1300439E+00
        -11   -1    0    0    0    0  0.00000000000E+00  0.00000000000E+00  0.45593999997E+02  0.45594000000E+02  0.51100000000E-03 0.  1.
         11   -1    0    0    0    0 -0.00000000000E+00 -0.00000000000E+00 -0.45593999997E+02  0.45594000000E+02  0.51100000000E-03 0. -1.
    9900012    2    1    2    0    0 -0.14107434655E+02  0.25684123214E+02 -0.28186364192E+02  0.50528867887E+02  0.30000024430E+02 0.  0.
        -12    1    1    2    0    0  0.14107434655E+02 -0.25684123214E+02  0.28186364192E+02  0.40659132113E+02  0.00000000000E+00 0.  1.
         11    1    3    3    0    0 -0.42162016189E+01  0.25561368675E+01 -0.16082317955E+02  0.16821151651E+02  0.51100000000E-03 0. -1.
        -11    1    3    3    0    0  0.29802033581E+01  0.21160012053E+00  0.22681974054E+01  0.37511473442E+01  0.51100000000E-03 0.  1.
         12    1    3    3    0    0 -0.12871436394E+02  0.22916386226E+02 -0.14372243642E+02  0.29956568892E+02  0.00000000000E+00 0. -1.
</event>
<event>
 7    1  0.5041278E-013  0.5052886E+02  0.7816164E-02  0.1300439E+00
        -11   -1    0    0    0    0  0.00000000000E+00  0.00000000000E+00  0.45593999997E+02  0.45594000000E+02  0.51100000000E-03 0. -1.
         11   -1    0    0    0    0 -0.00000000000E+00 -0.00000000000E+00 -0.45593999997E+02  0.45594000000E+02  0.51100000000E-03 0.  1.
    9900012    2    1    2    0    0  0.33471860208E+02  0.23051939840E+02 -0.11868112117E+01  0.50528857399E+02  0.29999992551E+02 0.  0.
        -12    1    1    2    0    0 -0.33471860208E+02 -0.23051939840E+02  0.11868112117E+01  0.40659142601E+02  0.00000000000E+00 0.  1.
         11    1    3    3    0    0  0.15889489067E+02  0.26685866501E+00 -0.42401775293E+01  0.16447680143E+02  0.51100000000E-03 0. -1.
        -11    1    3    3    0    0  0.10629951963E+02  0.68224797594E+01  0.91899910562E+01  0.15620436763E+02  0.51100000000E-03 0.  1.
         12    1    3    3    0    0  0.69524191791E+01  0.15962601415E+02 -0.61366247386E+01  0.18460740493E+02  0.00000000000E+00 0. -1.
</event>
<event>
 7    1  0.5041278E-013  0.5052887E+02  0.7816164E-02  0.1300439E+00
        -11   -1    0    0    0    0  0.00000000000E+00  0.00000000000E+00  0.45593999997E+02  0.45594000000E+02  0.51100000000E-03 0.  1.
         11   -1    0    0    0    0 -0.00000000000E+00 -0.00000000000E+00 -0.45593999997E+02  0.45594000000E+02  0.51100000000E-03 0. -1.
    9900012    2    1    2    0    0 -0.44695017263E+01 -0.17859664306E+02 -0.36252188247E+02  0.50528865632E+02  0.30000017576E+02 0.  0.
        -12    1    1    2    0    0  0.44695017263E+01  0.17859664306E+02  0.36252188247E+02  0.40659134368E+02  0.00000000000E+00 0.  1.
         11    1    3    3    0    0 -0.31593421110E+00  0.31895590576E+01 -0.82805855191E+00  0.33104052069E+01  0.51100000000E-03 0. -1.
        -11    1    3    3    0    0 -0.92902157704E+01 -0.98256855517E+01 -0.50540335725E+01  0.14435908743E+02  0.51100000000E-03 0.  1.
         12    1    3    3    0    0  0.51366482551E+01 -0.11223537812E+02 -0.30370096123E+02  0.32782551683E+02  0.00000000000E+00 0. -1.
</event>
<event>
 7    1  0.5041278E-013  0.5052886E+02  0.7816164E-02  0.1300439E+00
        -11   -1    0    0    0    0  0.00000000000E+00  0.00000000000E+00  0.45593999997E+02  0.45594000000E+02  0.51100000000E-03 0.  1.
         11   -1    0    0    0    0 -0.00000000000E+00 -0.00000000000E+00 -0.45593999997E+02  0.45594000000E+02  0.51100000000E-03 0. -1.
    9900012    2    1    2    0    0  0.13871296965E+01 -0.18173699045E+02 -0.36344988221E+02  0.50528860381E+02  0.30000001614E+02 0.  0.
        -12    1    1    2    0    0 -0.13871296965E+01  0.18173699045E+02  0.36344988221E+02  0.40659139619E+02  0.00000000000E+00 0.  1.
         11    1    3    3    0    0 -0.30357417049E+01 -0.49485606149E+01 -0.91956025925E+01  0.10874883317E+02  0.51100000000E-03 0. -1.
        -11    1    3    3    0    0  0.10934018756E+02 -0.10829719771E+02 -0.28681143224E+02  0.32549094816E+02  0.51100000000E-03 0.  1.
        -12    1    3    3    0    0 -0.65111473546E+01 -0.23954186592E+01  0.15317575948E+01  0.71048822478E+01  0.00000000000E+00 0.  1.
</event>
<event>
 7    1  0.5041278E-013  0.5052885E+02  0.7816164E-02  0.1300439E+00
        -11   -1    0    0    0    0  0.00000000000E+00  0.00000000000E+00  0.45593999997E+02  0.45594000000E+02  0.51100000000E-03 0.  1.
         11   -1    0    0    0    0 -0.00000000000E+00 -0.00000000000E+00 -0.45593999997E+02  0.45594000000E+02  0.51100000000E-03 0. -1.
    9900012    2    1    2    0    0  0.12249270104E+02 -0.35380941639E+02 -0.15852782288E+02  0.50528851514E+02  0.29999974662E+02 0.  0.
        -12    1    1    2    0    0 -0.12249270104E+02  0.35380941639E+02  0.15852782288E+02  0.40659148486E+02  0.00000000000E+00 0.  1.
         11    1    3    3    0    0  0.52406125062E+01 -0.13020983094E+02 -0.11124689729E+02  0.17910017923E+02  0.51100000000E-03 0. -1.
        -11    1    3    3    0    0  0.13749402336E+02 -0.68472945079E+01 -0.23286017442E+01  0.15535568641E+02  0.51100000000E-03 0.  1.
         12    1    3    3    0    0 -0.67407447385E+01 -0.15512664037E+02 -0.23994908152E+01  0.17083264950E+02  0.00000000000E+00 0. -1.
</event>
<event>
 7    1  0.5041278E-013  0.5052886E+02  0.7816164E-02  0.1300439E+00
        -11   -1    0    0    0    0  0.00000000000E+00  0.00000000000E+00  0.45593999997E+02  0.45594000000E+02  0.51100000000E-03 0.  1.
         11   -1    0    0    0    0 -0.00000000000E+00 -0.00000000000E+00 -0.45593999997E+02  0.45594000000E+02  0.51100000000E-03 0. -1.
    9900012    2    1    2    0    0 -0.22091294710E+02 -0.36435546786E+01 -0.33939139776E+02  0.50528855870E+02  0.29999987903E+02 0.  0.
        -12    1    1    2    0    0  0.22091294710E+02  0.36435546786E+01  0.33939139776E+02  0.40659144130E+02  0.00000000000E+00 0.  1.
         11    1    3    3    0    0 -0.15689655444E+02 -0.11006855957E+02 -0.15596867258E+02  0.24709885361E+02  0.51100000000E-03 0. -1.
        -11    1    3    3    0    0 -0.11271879719E+00 -0.32270872368E+01 -0.11034577862E+02  0.11497334753E+02  0.51100000000E-03 0.  1.
        -12    1    3    3    0    0 -0.62889204694E+01  0.10590388515E+02 -0.73076946555E+01  0.14321635757E+02  0.00000000000E+00 0.  1.
</event>
<event>
 7    1  0.5041278E-013  0.5052886E+02  0.7816164E-02  0.1300439E+00
        -11   -1    0    0    0    0  0.00000000000E+00  0.00000000000E+00  0.45593999997E+02  0.45594000000E+02  0.51100000000E-03 0.  1.
         11   -1    0    0    0    0 -0.00000000000E+00 -0.00000000000E+00 -0.45593999997E+02  0.45594000000E+02  0.51100000000E-03 0. -1.
    9900012    2    1    2    0    0  0.14528852849E+01 -0.80526159762E+01 -0.39827253943E+02  0.50528860113E+02  0.30000000800E+02 0.  0.
        -12    1    1    2    0    0 -0.14528852849E+01  0.80526159762E+01  0.39827253943E+02  0.40659139887E+02  0.00000000000E+00 0.  1.
         11    1    3    3    0    0  0.42814188919E+01  0.59233932464E+00 -0.10479849299E+02  0.11336165806E+02  0.51100000000E-03 0. -1.
        -11    1    3    3    0    0 -0.10698898363E+02  0.27731877017E+01 -0.18647484720E+02  0.21676846700E+02  0.51100000000E-03 0.  1.
        -12    1    3    3    0    0  0.78703647556E+01 -0.11418143003E+02 -0.10699919924E+02  0.17515847607E+02  0.00000000000E+00 0.  1.
</event>
<event>
 7    1  0.5041278E-013  0.5052886E+02  0.7816164E-02  0.1300439E+00
        -11   -1    0    0    0    0  0.00000000000E+00  0.00000000000E+00  0.45593999997E+02  0.45594000000E+02  0.51100000000E-03 0. -1.
         11   -1    0    0    0    0 -0.00000000000E+00 -0.00000000000E+00 -0.45593999997E+02  0.45594000000E+02  0.51100000000E-03 0.  1.
    9900012    2    1    2    0    0  0.39970006772E+01  0.61231457547E+01  0.39996213457E+02  0.50528855651E+02  0.29999987236E+02 0.  0.
        -12    1    1    2    0    0 -0.39970006772E+01 -0.61231457547E+01 -0.39996213457E+02  0.40659144349E+02  0.00000000000E+00 0.  1.
         11    1    3    3    0    0 -0.61483842569E+01  0.52814119805E+01  0.70460263328E+01  0.10739759253E+02  0.51100000000E-03 0. -1.
        -11    1    3    3    0    0  0.64539589998E+01  0.67718312955E+01  0.42928118212E+01  0.10292692527E+02  0.51100000000E-03 0.  1.
        -12    1    3    3    0    0  0.36914259344E+01 -0.59300975213E+01  0.28657375303E+02  0.29496403870E+02  0.00000000000E+00 0.  1.
</event>
<event>
 7    1  0.5041278E-013  0.5052887E+02  0.7816164E-02  0.1300439E+00
        -11   -1    0    0    0    0  0.00000000000E+00  0.00000000000E+00  0.45593999997E+02  0.45594000000E+02  0.51100000000E-03 0.  1.
         11   -1    0    0    0    0 -0.00000000000E+00 -0.00000000000E+00 -0.45593999997E+02  0.45594000000E+02  0.51100000000E-03 0. -1.
    9900012    2    1    2    0    0 -0.63370777920E+01 -0.31762822701E+02 -0.24579048378E+02  0.50528867200E+02  0.30000022342E+02 0.  0.
        -12    1    1    2    0    0  0.63370777920E+01  0.31762822701E+02  0.24579048378E+02  0.40659132800E+02  0.00000000000E+00 0.  1.
         11    1    3    3    0    0 -0.16219955890E+01 -0.11535370328E+01  0.23509312331E+01  0.30803238954E+01  0.51100000000E-03 0.  1.
        -11    1    3    3    0    0  0.33656242323E+01 -0.36799063607E+00  0.27123779509E+01  0.43381837203E+01  0.51100000000E-03 0. -1.
         12    1    3    3    0    0 -0.80807064353E+01 -0.30241295032E+02 -0.29642357562E+02  0.43110359585E+02  0.00000000000E+00 0. -1.
</event>
<event>
 7    1  0.5160247E-013  0.5052886E+02  0.7816164E-02  0.1300439E+00
        -11   -1    0    0    0    0  0.00000000000E+00  0.00000000000E+00  0.45593999997E+02  0.45594000000E+02  0.51100000000E-03 0.  1.
         11   -1    0    0    0    0 -0.00000000000E+00 -0.00000000000E+00 -0.45593999997E+02  0.45594000000E+02  0.51100000000E-03 0. -1.
    9900012    2    1    2    0    0  0.11670012972E+01 -0.39435841022E+02 -0.98294612790E+01  0.50528858861E+02  0.29999996994E+02 0.  0.
        -12    1    1    2    0    0 -0.11670012972E+01  0.39435841022E+02  0.98294612790E+01  0.40659141139E+02  0.00000000000E+00 0.  1.
         11    1    3    3    0    0  0.18768159982E+01 -0.12414937245E+02 -0.12717516475E+02  0.17871438964E+02  0.51100000000E-03 0. -1.
        -11    1    3    3    0    0  0.73926002302E+01 -0.52240221093E+01 -0.90019657881E+00  0.90967741152E+01  0.51100000000E-03 0.  1.
         12    1    3    3    0    0 -0.81024149311E+01 -0.21796881668E+02  0.37882517749E+01  0.23560645782E+02  0.00000000000E+00 0. -1.
</event>
<event>
 7    1  0.5041278E-013  0.5052884E+02  0.7816164E-02  0.1300439E+00
        -11   -1    0    0    0    0  0.00000000000E+00  0.00000000000E+00  0.45593999997E+02  0.45594000000E+02  0.51100000000E-03 0. -1.
         11   -1    0    0    0    0 -0.00000000000E+00 -0.00000000000E+00 -0.45593999997E+02  0.45594000000E+02  0.51100000000E-03 0.  1.
    9900012    2    1    2    0    0 -0.12449922644E+02  0.34094959681E+01  0.38555702805E+02  0.50528837990E+02  0.29999933553E+02 0.  0.
        -12    1    1    2    0    0  0.12449922644E+02 -0.34094959681E+01 -0.38555702805E+02  0.40659162010E+02  0.00000000000E+00 0.  1.
         11    1    3    3    0    0 -0.14942580029E+02  0.11070201470E+02  0.20392526458E+02  0.27598644788E+02  0.51100000000E-03 0. -1.
        -11    1    3    3    0    0  0.45939741171E+01  0.70411018154E-01  0.11915160242E+02  0.12770301475E+02  0.51100000000E-03 0.  1.
        -12    1    3    3    0    0 -0.21013167320E+01 -0.77311165203E+01  0.62480161046E+01  0.10159891727E+02  0.00000000000E+00 0.  1.
</event>
<event>
 7    1  0.5041278E-013  0.5052886E+02  0.7816164E-02  0.1300439E+00
        -11   -1    0    0    0    0  0.00000000000E+00  0.00000000000E+00  0.45593999997E+02  0.45594000000E+02  0.51100000000E-03 0.  1.
         11   -1    0    0    0    0 -0.00000000000E+00 -0.00000000000E+00 -0.45593999997E+02  0.45594000000E+02  0.51100000000E-03 0. -1.
    9900012    2    1    2    0    0  0.36279500088E+02  0.11826036672E+02 -0.14039518549E+02  0.50528863867E+02  0.30000012210E+02 0.  0.
        -12    1    1    2    0    0 -0.36279500088E+02 -0.11826036672E+02  0.14039518549E+02  0.40659136133E+02  0.00000000000E+00 0.  1.
         11    1    3    3    0    0  0.29423671855E+00  0.69089715455E+01 -0.51660698986E+01  0.86318446187E+01  0.51100000000E-03 0.  1.
        -11    1    3    3    0    0  0.21075528649E+02  0.85597723808E+01  0.23707508985E+01  0.22870681475E+02  0.51100000000E-03 0. -1.
         12    1    3    3    0    0  0.14909734720E+02 -0.36427072539E+01 -0.11244199549E+02  0.19026337773E+02  0.00000000000E+00 0. -1.
</event>
<event>
 7    1  0.5041278E-013  0.5052886E+02  0.7816164E-02  0.1300439E+00
        -11   -1    0    0    0    0  0.00000000000E+00  0.00000000000E+00  0.45593999997E+02  0.45594000000E+02  0.51100000000E-03 0.  1.
         11   -1    0    0    0    0 -0.00000000000E+00 -0.00000000000E+00 -0.45593999997E+02  0.45594000000E+02  0.51100000000E-03 0. -1.
    9900012    2    1    2    0    0 -0.37235080816E+02  0.12507224798E+02 -0.10501599962E+02  0.50528861823E+02  0.30000005996E+02 0.  0.
        -12    1    1    2    0    0  0.37235080816E+02 -0.12507224798E+02  0.10501599962E+02  0.40659138177E+02  0.00000000000E+00 0.  1.
         11    1    3    3    0    0 -0.20075081786E+01 -0.12261127390E+01 -0.22547957698E+01  0.32584575738E+01  0.51100000000E-03 0. -1.
        -11    1    3    3    0    0 -0.24596014329E+02  0.36948004251E+01  0.73066248334E+01  0.25923005956E+02  0.51100000000E-03 0.  1.
         12    1    3    3    0    0 -0.10631558308E+02  0.10038537112E+02 -0.15553429026E+02  0.21347398293E+02  0.00000000000E+00 0. -1.
</event>
<event>
 7    1  0.5041278E-013  0.5052885E+02  0.7816164E-02  0.1300439E+00
        -11   -1    0    0    0    0  0.00000000000E+00  0.00000000000E+00  0.45593999997E+02  0.45594000000E+02  0.51100000000E-03 0. -1.
         11   -1    0    0    0    0 -0.00000000000E+00 -0.00000000000E+00 -0.45593999997E+02  0.45594000000E+02  0.51100000000E-03 0.  1.
    9900012    2    1    2    0    0  0.36085192459E+02  0.17786541286E+02  0.58876314287E+01  0.50528851343E+02  0.29999974141E+02 0.  0.
        -12    1    1    2    0    0 -0.36085192459E+02 -0.17786541286E+02 -0.58876314287E+01  0.40659148657E+02  0.00000000000E+00 0.  1.
         11    1    3    3    0    0  0.22727442219E+02  0.10431276310E+02 -0.44561575360E+01  0.25400895565E+02  0.51100000000E-03 0. -1.
        -11    1    3    3    0    0  0.62162833796E+01 -0.47169120462E+01  0.74859202308E+01  0.10813437949E+02  0.51100000000E-03 0.  1.
         12    1    3    3    0    0  0.71414668600E+01  0.12072177022E+02  0.28578687339E+01  0.14314517829E+02  0.00000000000E+00 0. -1.
</event>
<event>
 7    1  0.5041278E-013  0.5052886E+02  0.7816164E-02  0.1300439E+00
        -11   -1    0    0    0    0  0.00000000000E+00  0.00000000000E+00  0.45593999997E+02  0.45594000000E+02  0.51100000000E-03 0.  1.
         11   -1    0    0    0    0 -0.00000000000E+00 -0.00000000000E+00 -0.45593999997E+02  0.45594000000E+02  0.51100000000E-03 0. -1.
    9900012    2    1    2    0    0  0.23315965262E+02 -0.64503704375E+01 -0.32679113488E+02  0.50528856216E+02  0.29999988954E+02 0.  0.
        -12    1    1    2    0    0 -0.23315965262E+02  0.64503704375E+01  0.32679113488E+02  0.40659143784E+02  0.00000000000E+00 0.  1.
         11    1    3    3    0    0  0.84901722903E+01 -0.13728603218E+02 -0.21068451379E+02  0.26541236135E+02  0.51100000000E-03 0. -1.
        -11    1    3    3    0    0 -0.16932333373E+01 -0.11833469278E+01  0.53847445820E-01  0.20664580554E+01  0.51100000000E-03 0.  1.
         12    1    3    3    0    0  0.16519026309E+02  0.84615797087E+01 -0.11664509555E+02  0.21921162025E+02  0.00000000000E+00 0. -1.
</event>
<event>
 7    1  0.5041278E-013  0.5052887E+02  0.7816164E-02  0.1300439E+00
        -11   -1    0    0    0    0  0.00000000000E+00  0.00000000000E+00  0.45593999997E+02  0.45594000000E+02  0.51100000000E-03 0.  1.
         11   -1    0    0    0    0 -0.00000000000E+00 -0.00000000000E+00 -0.45593999997E+02  0.45594000000E+02  0.51100000000E-03 0. -1.
    9900012    2    1    2    0    0 -0.19502111598E+02 -0.17788920791E+02 -0.30925501877E+02  0.50528871554E+02  0.30000035575E+02 0.  0.
        -12    1    1    2    0    0  0.19502111598E+02  0.17788920791E+02  0.30925501877E+02  0.40659128446E+02  0.00000000000E+00 0.  1.
         11    1    3    3    0    0 -0.13096832044E+02  0.16157756301E+01 -0.11738778708E+02  0.17661728859E+02  0.51100000000E-03 0. -1.
        -11    1    3    3    0    0 -0.65619696941E+00 -0.51929239560E+01  0.28979919985E+01  0.59829266717E+01  0.51100000000E-03 0.  1.
         12    1    3    3    0    0 -0.57490825843E+01 -0.14211772465E+02 -0.22084715167E+02  0.26884216023E+02  0.00000000000E+00 0. -1.
</event>
<event>
 7    1  0.5041278E-013  0.5052886E+02  0.7816164E-02  0.1300439E+00
        -11   -1    0    0    0    0  0.00000000000E+00  0.00000000000E+00  0.45593999997E+02  0.45594000000E+02  0.51100000000E-03 0.  1.
         11   -1    0    0    0    0 -0.00000000000E+00 -0.00000000000E+00 -0.45593999997E+02  0.45594000000E+02  0.51100000000E-03 0. -1.
    9900012    2    1    2    0    0 -0.14812498308E+02  0.37794723635E+02  0.23053765944E+01  0.50528855862E+02  0.29999987877E+02 0.  0.
        -12    1    1    2    0    0  0.14812498308E+02 -0.37794723635E+02 -0.23053765944E+01  0.40659144138E+02  0.00000000000E+00 0.  1.
         11    1    3    3    0    0 -0.14544406083E+02  0.15520885830E+02 -0.78761899288E+01  0.22681975516E+02  0.51100000000E-03 0. -1.
        -11    1    3    3    0    0 -0.65755886541E+01  0.10688194605E+02  0.33346273334E+01  0.12984437215E+02  0.51100000000E-03 0.  1.
        -12    1    3    3    0    0  0.63074964283E+01  0.11585643200E+02  0.68469391899E+01  0.14862443131E+02  0.00000000000E+00 0.  1.
</event>
<event>
 7    1  0.5041278E-013  0.5052886E+02  0.7816164E-02  0.1300439E+00
        -11   -1    0    0    0    0  0.00000000000E+00  0.00000000000E+00  0.45593999997E+02  0.45594000000E+02  0.51100000000E-03 0.  1.
         11   -1    0    0    0    0 -0.00000000000E+00 -0.00000000000E+00 -0.45593999997E+02  0.45594000000E+02  0.51100000000E-03 0. -1.
    9900012    2    1    2    0    0  0.74240849870E+01  0.14200695142E+01 -0.39950373569E+02  0.50528856088E+02  0.29999988566E+02 0.  0.
        -12    1    1    2    0    0 -0.74240849870E+01 -0.14200695142E+01  0.39950373569E+02  0.40659143912E+02  0.00000000000E+00 0.  1.
         11    1    3    3    0    0 -0.19685282524E+01 -0.55330935422E+01 -0.16373038242E+02  0.17394441904E+02  0.51100000000E-03 0. -1.
        -11    1    3    3    0    0 -0.52984395841E+01  0.60851464032E+01 -0.11752539804E+02  0.14255688720E+02  0.51100000000E-03 0.  1.
         12    1    3    3    0    0  0.14691052824E+02  0.86801665311E+00 -0.11824795523E+02  0.18878725464E+02  0.00000000000E+00 0. -1.
</event>
<event>
 7    1  0.5041278E-013  0.5052885E+02  0.7816164E-02  0.1300439E+00
        -11   -1    0    0    0    0  0.00000000000E+00  0.00000000000E+00  0.45593999997E+02  0.45594000000E+02  0.51100000000E-03 0. -1.
         11   -1    0    0    0    0 -0.00000000000E+00 -0.00000000000E+00 -0.45593999997E+02  0.45594000000E+02  0.51100000000E-03 0.  1.
    9900012    2    1    2    0    0 -0.18163727266E+02 -0.35168297374E+02 -0.92970935348E+01  0.50528854945E+02  0.29999985092E+02 0.  0.
        -12    1    1    2    0    0  0.18163727266E+02  0.35168297374E+02  0.92970935348E+01  0.40659145055E+02  0.00000000000E+00 0.  1.
         11    1    3    3    0    0 -0.10299939435E+01 -0.14511268264E+02  0.71108843589E+01  0.16192667192E+02  0.51100000000E-03 0. -1.
        -11    1    3    3    0    0 -0.47137719878E+01  0.44009842992E-01  0.67529349053E+00  0.47621008787E+01  0.51100000000E-03 0.  1.
         12    1    3    3    0    0 -0.12419961335E+02 -0.20701038953E+02 -0.17083271384E+02  0.29574086875E+02  0.00000000000E+00 0. -1.
</event>
<event>
 7    1  0.5041278E-013  0.5052885E+02  0.7816164E-02  0.1300439E+00
        -11   -1    0    0    0    0  0.00000000000E+00  0.00000000000E+00  0.45593999997E+02  0.45594000000E+02  0.51100000000E-03 0.  1.
         11   -1    0    0    0    0 -0.00000000000E+00 -0.00000000000E+00 -0.45593999997E+02  0.45594000000E+02  0.51100000000E-03 0. -1.
    9900012    2    1    2    0    0 -0.12983147051E+02 -0.28924738905E+02 -0.25455126867E+02  0.50528854511E+02  0.29999983772E+02 0.  0.
        -12    1    1    2    0    0  0.12983147051E+02  0.28924738905E+02  0.25455126867E+02  0.40659145489E+02  0.00000000000E+00 0.  1.
         11    1    3    3    0    0  0.21502720521E+01 -0.74657879049E+01 -0.19854900136E+01  0.80189668782E+01  0.51100000000E-03 0. -1.
        -11    1    3    3    0    0 -0.38684054356E+01  0.32788218434E+01  0.18151196682E+01  0.53860832676E+01  0.51100000000E-03 0.  1.
         12    1    3    3    0    0 -0.11265013668E+02 -0.24737772844E+02 -0.25284756521E+02  0.37123804365E+02  0.00000000000E+00 0. -1.
</event>
<event>
 7    1  0.5041278E-013  0.5052888E+02  0.7816164E-02  0.1300439E+00
        -11   -1    0    0    0    0  0.00000000000E+00  0.00000000000E+00  0.45593999997E+02  0.45594000000E+02  0.51100000000E-03 0.  1.
         11   -1    0    0    0    0 -0.00000000000E+00 -0.00000000000E+00 -0.45593999997E+02  0.45594000000E+02  0.51100000000E-03 0. -1.
    9900012    2    1    2    0    0  0.34866787632E+02 -0.20673894011E+02  0.31719759920E+01  0.50528877960E+02  0.30000055047E+02 0.  0.
        -12    1    1    2    0    0 -0.34866787632E+02  0.20673894011E+02 -0.31719759920E+01  0.40659122040E+02  0.00000000000E+00 0.  1.
         11    1    3    3    0    0  0.26406665267E+02 -0.30221244443E+01  0.79969810426E+00  0.26591064740E+02  0.51100000000E-03 0. -1.
        -11    1    3    3    0    0  0.35580126297E+01 -0.18952405261E+01  0.58201850306E+01  0.70799678373E+01  0.51100000000E-03 0.  1.
        -12    1    3    3    0    0  0.49021097354E+01 -0.15756529041E+02 -0.34479071428E+01  0.16857845382E+02  0.00000000000E+00 0.  1.
</event>
<event>
 7    1  0.5041278E-013  0.5052885E+02  0.7816164E-02  0.1300439E+00
        -11   -1    0    0    0    0  0.00000000000E+00  0.00000000000E+00  0.45593999997E+02  0.45594000000E+02  0.51100000000E-03 0. -1.
         11   -1    0    0    0    0 -0.00000000000E+00 -0.00000000000E+00 -0.45593999997E+02  0.45594000000E+02  0.51100000000E-03 0.  1.
    9900012    2    1    2    0    0 -0.13586095158E+01 -0.40063855958E+02  0.67976392202E+01  0.50528852530E+02  0.29999977750E+02 0.  0.
        -12    1    1    2    0    0  0.13586095158E+01  0.40063855958E+02 -0.67976392202E+01  0.40659147470E+02  0.00000000000E+00 0.  1.
         11    1    3    3    0    0 -0.12993307758E+01  0.24390377640E+01  0.18828675422E+01  0.33440030086E+01  0.51100000000E-03 0. -1.
        -11    1    3    3    0    0  0.85646270196E+01 -0.13745825285E+02  0.56516379636E+01  0.17153470805E+02  0.51100000000E-03 0.  1.
         12    1    3    3    0    0 -0.86239057597E+01 -0.28757068437E+02 -0.73686628558E+00  0.30031378716E+02  0.00000000000E+00 0. -1.
</event>
<event>
 7    1  0.5041278E-013  0.5052886E+02  0.7816164E-02  0.1300439E+00
        -11   -1    0    0    0    0  0.00000000000E+00  0.00000000000E+00  0.45593999997E+02  0.45594000000E+02  0.51100000000E-03 0.  1.
         11   -1    0    0    0    0 -0.00000000000E+00 -0.00000000000E+00 -0.45593999997E+02  0.45594000000E+02  0.51100000000E-03 0. -1.
    9900012    2    1    2    0    0  0.36274021925E+02  0.18316845150E+02 -0.13615490242E+01  0.50528864512E+02  0.30000014170E+02 0.  0.
        -12    1    1    2    0    0 -0.36274021925E+02 -0.18316845150E+02  0.13615490242E+01  0.40659135488E+02  0.00000000000E+00 0.  1.
         11    1    3    3    0    0  0.33193363582E+01 -0.54706879252E+01 -0.51489969502E+01  0.82133178490E+01  0.51100000000E-03 0.  1.
        -11    1    3    3    0    0  0.15315037787E+02  0.64496896211E+01 -0.24757222526E+01  0.16801133282E+02  0.51100000000E-03 0. -1.
        -12    1    3    3    0    0  0.17639647780E+02  0.17337843455E+02  0.62631701786E+01  0.25514413380E+02  0.00000000000E+00 0.  1.
</event>
<event>
 7    1  0.5041278E-013  0.5052886E+02  0.7816164E-02  0.1300439E+00
        -11   -1    0    0    0    0  0.00000000000E+00  0.00000000000E+00  0.45593999997E+02  0.45594000000E+02  0.51100000000E-03 0.  1.
         11   -1    0    0    0    0 -0.00000000000E+00 -0.00000000000E+00 -0.45593999997E+02  0.45594000000E+02  0.51100000000E-03 0. -1.
    9900012    2    1    2    0    0 -0.23260227415E+02 -0.34294460106E+01 -0.33171768639E+02  0.50528861864E+02  0.30000006121E+02 0.  0.
        -12    1    1    2    0    0  0.23260227415E+02  0.34294460106E+01  0.33171768639E+02  0.40659138136E+02  0.00000000000E+00 0.  1.
         11    1    3    3    0    0 -0.56722128424E+01 -0.13599279024E+01 -0.76155307899E+00  0.58824625611E+01  0.51100000000E-03 0. -1.
        -11    1    3    3    0    0  0.46823492173E+01 -0.44966845380E+01 -0.14766127879E+02  0.16130192151E+02  0.51100000000E-03 0.  1.
         12    1    3    3    0    0 -0.22270363790E+02  0.24271664298E+01 -0.17644087682E+02  0.28516207152E+02  0.00000000000E+00 0. -1.
</event>
<event>
 7    1  0.5041278E-013  0.5052884E+02  0.7816164E-02  0.1300439E+00
        -11   -1    0    0    0    0  0.00000000000E+00  0.00000000000E+00  0.45593999997E+02  0.45594000000E+02  0.51100000000E-03 0. -1.
         11   -1    0    0    0    0 -0.00000000000E+00 -0.00000000000E+00 -0.45593999997E+02  0.45594000000E+02  0.51100000000E-03 0.  1.
    9900012    2    1    2    0    0 -0.16648816962E+01  0.28807353763E+02  0.28644927913E+02  0.50528839199E+02  0.29999937230E+02 0.  0.
        -12    1    1    2    0    0  0.16648816962E+01 -0.28807353763E+02 -0.28644927913E+02  0.40659160801E+02  0.00000000000E+00 0.  1.
         11    1    3    3    0    0  0.46489009828E+01  0.21853890478E+02  0.16472765589E+02  0.27758905162E+02  0.51100000000E-03 0. -1.
        -11    1    3    3    0    0 -0.91216188129E+00 -0.23784231389E+01 -0.31393583113E+01  0.40428340051E+01  0.51100000000E-03 0.  1.
         12    1    3    3    0    0 -0.54016207978E+01  0.93318864235E+01  0.15311520635E+02  0.18727100032E+02  0.00000000000E+00 0. -1.
</event>
<event>
 7    1  0.5041278E-013  0.5052885E+02  0.7816164E-02  0.1300439E+00
        -11   -1    0    0    0    0  0.00000000000E+00  0.00000000000E+00  0.45593999997E+02  0.45594000000E+02  0.51100000000E-03 0.  1.
         11   -1    0    0    0    0 -0.00000000000E+00 -0.00000000000E+00 -0.45593999997E+02  0.45594000000E+02  0.51100000000E-03 0. -1.
    9900012    2    1    2    0    0  0.22879136927E+02  0.30243723601E+02 -0.14663845364E+02  0.50528854846E+02  0.29999984790E+02 0.  0.
        -12    1    1    2    0    0 -0.22879136927E+02 -0.30243723601E+02  0.14663845364E+02  0.40659145154E+02  0.00000000000E+00 0.  1.
         11    1    3    3    0    0  0.21608651576E+02  0.15465840828E+02 -0.14397295936E+02  0.30222643597E+02  0.51100000000E-03 0. -1.
        -11    1    3    3    0    0  0.65477300604E+01  0.40423827223E+01 -0.25919369385E+01  0.81198377060E+01  0.51100000000E-03 0.  1.
        -12    1    3    3    0    0 -0.52772447096E+01  0.10735500051E+02  0.23253875102E+01  0.12186373543E+02  0.00000000000E+00 0.  1.
</event>
<event>
 7    1  0.5041278E-013  0.5052888E+02  0.7816164E-02  0.1300439E+00
        -11   -1    0    0    0    0  0.00000000000E+00  0.00000000000E+00  0.45593999997E+02  0.45594000000E+02  0.51100000000E-03 0. -1.
         11   -1    0    0    0    0 -0.00000000000E+00 -0.00000000000E+00 -0.45593999997E+02  0.45594000000E+02  0.51100000000E-03 0.  1.
    9900012    2    1    2    0    0  0.39685312924E+02  0.71521535058E+01 -0.52044772848E+01  0.50528881153E+02  0.30000064752E+02 0.  0.
        -12    1    1    2    0    0 -0.39685312924E+02 -0.71521535058E+01  0.52044772848E+01  0.40659118847E+02  0.00000000000E+00 0.  1.
         11    1    3    3    0    0  0.51467413660E+01 -0.51222370602E+01  0.33213007574E+01  0.79848167275E+01  0.51100000000E-03 0. -1.
        -11    1    3    3    0    0  0.10911520365E+01  0.55123759342E+01  0.31938256869E+01  0.64635457751E+01  0.51100000000E-03 0.  1.
         12    1    3    3    0    0  0.33447419521E+02  0.67620146318E+01 -0.11719603729E+02  0.36080518650E+02  0.00000000000E+00 0. -1.
</event>
<event>
 7    1  0.5041278E-013  0.5052885E+02  0.7816164E-02  0.1300439E+00
        -11   -1    0    0    0    0  0.00000000000E+00  0.00000000000E+00  0.45593999997E+02  0.45594000000E+02  0.51100000000E-03 0. -1.
         11   -1    0    0    0    0 -0.00000000000E+00 -0.00000000000E+00 -0.45593999997E+02  0.45594000000E+02  0.51100000000E-03 0.  1.
    9900012    2    1    2    0    0 -0.10552804702E+02 -0.19648820333E+02  0.33996009429E+02  0.50528849927E+02  0.29999969839E+02 0.  0.
        -12    1    1    2    0    0  0.10552804702E+02  0.19648820333E+02 -0.33996009429E+02  0.40659150073E+02  0.00000000000E+00 0.  1.
         11    1    3    3    0    0 -0.40617256963E+01  0.45111899624E+01  0.16869095068E+02  0.17928045604E+02  0.51100000000E-03 0.  1.
        -11    1    3    3    0    0 -0.77831659611E+01 -0.74294550090E+01  0.86221605167E+01  0.13788260454E+02  0.51100000000E-03 0. -1.
        -12    1    3    3    0    0  0.12920869552E+01 -0.16730555286E+02  0.85047538439E+01  0.18812543869E+02  0.00000000000E+00 0.  1.
</event>
<event>
 7    1  0.5041278E-013  0.5052886E+02  0.7816164E-02  0.1300439E+00
        -11   -1    0    0    0    0  0.00000000000E+00  0.00000000000E+00  0.45593999997E+02  0.45594000000E+02  0.51100000000E-03 0.  1.
         11   -1    0    0    0    0 -0.00000000000E+00 -0.00000000000E+00 -0.45593999997E+02  0.45594000000E+02  0.51100000000E-03 0. -1.
    9900012    2    1    2    0    0  0.33054637511E+02 -0.17488916170E+00 -0.23675430795E+02  0.50528859939E+02  0.30000000269E+02 0.  0.
        -12    1    1    2    0    0 -0.33054637511E+02  0.17488916170E+00  0.23675430795E+02  0.40659140061E+02  0.00000000000E+00 0.  1.
         11    1    3    3    0    0  0.55728333422E+01 -0.69028902279E+01  0.29277481671E+00  0.88764904277E+01  0.51100000000E-03 0. -1.
        -11    1    3    3    0    0 -0.11241354277E+01  0.52929365510E+01 -0.42254032769E+01  0.68653398245E+01  0.51100000000E-03 0.  1.
         12    1    3    3    0    0  0.28605939597E+02  0.14350645152E+01 -0.19742802335E+02  0.34787029686E+02  0.00000000000E+00 0. -1.
</event>
<event>
 7    1  0.5041278E-013  0.5052886E+02  0.7816164E-02  0.1300439E+00
        -11   -1    0    0    0    0  0.00000000000E+00  0.00000000000E+00  0.45593999997E+02  0.45594000000E+02  0.51100000000E-03 0.  1.
         11   -1    0    0    0    0 -0.00000000000E+00 -0.00000000000E+00 -0.45593999997E+02  0.45594000000E+02  0.51100000000E-03 0. -1.
    9900012    2    1    2    0    0 -0.98094020262E+01  0.16293514283E+02 -0.35936929182E+02  0.50528857673E+02  0.29999993382E+02 0.  0.
        -12    1    1    2    0    0  0.98094020262E+01 -0.16293514283E+02  0.35936929182E+02  0.40659142327E+02  0.00000000000E+00 0.  1.
         11    1    3    3    0    0 -0.63239703784E+01  0.20928194581E+02 -0.12064706280E+02  0.24970764258E+02  0.51100000000E-03 0. -1.
        -11    1    3    3    0    0 -0.87571330593E-01  0.14751979624E+00 -0.14501642507E+02  0.14502657221E+02  0.51100000000E-03 0.  1.
        -12    1    3    3    0    0 -0.33978603172E+01 -0.47822000944E+01 -0.93705803949E+01  0.11055436193E+02  0.00000000000E+00 0.  1.
</event>
<event>
 7    1  0.5041278E-013  0.5052886E+02  0.7816164E-02  0.1300439E+00
        -11   -1    0    0    0    0  0.00000000000E+00  0.00000000000E+00  0.45593999997E+02  0.45594000000E+02  0.51100000000E-03 0. -1.
         11   -1    0    0    0    0 -0.00000000000E+00 -0.00000000000E+00 -0.45593999997E+02  0.45594000000E+02  0.51100000000E-03 0.  1.
    9900012    2    1    2    0    0 -0.32244633858E+02  0.18088341320E+01  0.24701767104E+02  0.50528860909E+02  0.30000003219E+02 0.  0.
        -12    1    1    2    0    0  0.32244633858E+02 -0.18088341320E+01 -0.24701767104E+02  0.40659139091E+02  0.00000000000E+00 0.  1.
         11    1    3    3    0    0 -0.12782588162E+02  0.56030948458E+01  0.71850313545E+01  0.15697576494E+02  0.51100000000E-03 0. -1.
        -11    1    3    3    0    0  0.39391314282E+01  0.94698462149E+00 -0.14864644999E+01  0.43154505272E+01  0.51100000000E-03 0.  1.
         12    1    3    3    0    0 -0.23401177124E+02 -0.47412453353E+01  0.19003200249E+02  0.30515833887E+02  0.00000000000E+00 0. -1.
</event>
<event>
 7    1  0.5041278E-013  0.5052886E+02  0.7816164E-02  0.1300439E+00
        -11   -1    0    0    0    0  0.00000000000E+00  0.00000000000E+00  0.45593999997E+02  0.45594000000E+02  0.51100000000E-03 0. -1.
         11   -1    0    0    0    0 -0.00000000000E+00 -0.00000000000E+00 -0.45593999997E+02  0.45594000000E+02  0.51100000000E-03 0.  1.
    9900012    2    1    2    0    0 -0.19900104767E+02 -0.23641192815E+02  0.26424339288E+02  0.50528857433E+02  0.29999992654E+02 0.  0.
        -12    1    1    2    0    0  0.19900104767E+02  0.23641192815E+02 -0.26424339288E+02  0.40659142567E+02  0.00000000000E+00 0.  1.
         11    1    3    3    0    0 -0.13458971097E+02 -0.11508039994E+02  0.31105588640E+02  0.35792967639E+02  0.51100000000E-03 0. -1.
        -11    1    3    3    0    0 -0.17930139497E+01 -0.23742290049E+01 -0.48459325948E-01  0.29756026211E+01  0.51100000000E-03 0.  1.
         12    1    3    3    0    0 -0.46481197203E+01 -0.97589238160E+01 -0.46327900258E+01  0.11760287174E+02  0.00000000000E+00 0. -1.
</event>
<event>
 7    1  0.5041278E-013  0.5052885E+02  0.7816164E-02  0.1300439E+00
        -11   -1    0    0    0    0  0.00000000000E+00  0.00000000000E+00  0.45593999997E+02  0.45594000000E+02  0.51100000000E-03 0. -1.
         11   -1    0    0    0    0 -0.00000000000E+00 -0.00000000000E+00 -0.45593999997E+02  0.45594000000E+02  0.51100000000E-03 0.  1.
    9900012    2    1    2    0    0  0.75396546618E+01  0.25177944168E+02  0.31022436365E+02  0.50528845766E+02  0.29999957191E+02 0.  0.
        -12    1    1    2    0    0 -0.75396546618E+01 -0.25177944168E+02 -0.31022436365E+02  0.40659154234E+02  0.00000000000E+00 0.  1.
         11    1    3    3    0    0  0.12917332008E+02  0.25154547651E+02  0.19466215169E+02  0.34329903393E+02  0.51100000000E-03 0. -1.
        -11    1    3    3    0    0  0.19533073050E+01 -0.20193426247E+01  0.64473374463E+01  0.70328738416E+01  0.51100000000E-03 0.  1.
        -12    1    3    3    0    0 -0.73309846509E+01  0.20427391423E+01  0.51088837503E+01  0.91660685318E+01  0.00000000000E+00 0.  1.
</event>
<event>
 7    1  0.5041278E-013  0.5052885E+02  0.7816164E-02  0.1300439E+00
        -11   -1    0    0    0    0  0.00000000000E+00  0.00000000000E+00  0.45593999997E+02  0.45594000000E+02  0.51100000000E-03 0.  1.
         11   -1    0    0    0    0 -0.00000000000E+00 -0.00000000000E+00 -0.45593999997E+02  0.45594000000E+02  0.51100000000E-03 0. -1.
    9900012    2    1    2    0    0 -0.38634869288E+02 -0.49494640250E+01 -0.11662587993E+02  0.50528852472E+02  0.29999977573E+02 0.  0.
        -12    1    1    2    0    0  0.38634869288E+02  0.49494640250E+01  0.11662587993E+02  0.40659147528E+02  0.00000000000E+00 0.  1.
         11    1    3    3    0    0 -0.31960971023E+02  0.57916267729E+01 -0.11860839954E+02  0.34579273187E+02  0.51100000000E-03 0. -1.
        -11    1    3    3    0    0 -0.69923073965E+00 -0.12205016572E+01 -0.37745398310E+01  0.40281135932E+01  0.51100000000E-03 0.  1.
        -12    1    3    3    0    0 -0.59746675250E+01 -0.95205891407E+01  0.39727917919E+01  0.11921465692E+02  0.00000000000E+00 0.  1.
</event>
<event>
 7    1  0.5041278E-013  0.5052886E+02  0.7816164E-02  0.1300439E+00
        -11   -1    0    0    0    0  0.00000000000E+00  0.00000000000E+00  0.45593999997E+02  0.45594000000E+02  0.51100000000E-03 0. -1.
         11   -1    0    0    0    0 -0.00000000000E+00 -0.00000000000E+00 -0.45593999997E+02  0.45594000000E+02  0.51100000000E-03 0.  1.
    9900012    2    1    2    0    0 -0.29295196844E+02 -0.28168708888E+02  0.12169949826E+01  0.50528858404E+02  0.29999995604E+02 0.  0.
        -12    1    1    2    0    0  0.29295196844E+02  0.28168708888E+02 -0.12169949826E+01  0.40659141596E+02  0.00000000000E+00 0.  1.
         11    1    3    3    0    0 -0.61541834873E+01 -0.40716554062E+01  0.29451036167E+01  0.79451864494E+01  0.51100000000E-03 0. -1.
        -11    1    3    3    0    0 -0.19356279972E+02 -0.26321648215E+02 -0.91774055123E+01  0.33936993257E+02  0.51100000000E-03 0.  1.
         12    1    3    3    0    0 -0.37847333846E+01  0.22245947331E+01  0.74492968781E+01  0.86466786975E+01  0.00000000000E+00 0. -1.
</event>
<event>
 7    1  0.5041278E-013  0.5052886E+02  0.7816164E-02  0.1300439E+00
        -11   -1    0    0    0    0  0.00000000000E+00  0.00000000000E+00  0.45593999997E+02  0.45594000000E+02  0.51100000000E-03 0.  1.
         11   -1    0    0    0    0 -0.00000000000E+00 -0.00000000000E+00 -0.45593999997E+02  0.45594000000E+02  0.51100000000E-03 0. -1.
    9900012    2    1    2    0    0 -0.10095218404E+02 -0.19135641903E+02 -0.34424978235E+02  0.50528863854E+02  0.30000012171E+02 0.  0.
        -12    1    1    2    0    0  0.10095218404E+02  0.19135641903E+02  0.34424978235E+02  0.40659136146E+02  0.00000000000E+00 0.  1.
         11    1    3    3    0    0 -0.74857124584E+01 -0.10022189153E+02 -0.25090580139E+02  0.28036001470E+02  0.51100000000E-03 0. -1.
        -11    1    3    3    0    0  0.38616605321E+01  0.40358538817E+01 -0.11356716593E+01  0.57000253507E+01  0.51100000000E-03 0.  1.
         12    1    3    3    0    0 -0.64711664778E+01 -0.13149306631E+02 -0.81987264366E+01  0.16792837034E+02  0.00000000000E+00 0. -1.
</event>
<event>
 7    1  0.5041278E-013  0.5052885E+02  0.7816164E-02  0.1300439E+00
        -11   -1    0    0    0    0  0.00000000000E+00  0.00000000000E+00  0.45593999997E+02  0.45594000000E+02  0.51100000000E-03 0. -1.
         11   -1    0    0    0    0 -0.00000000000E+00 -0.00000000000E+00 -0.45593999997E+02  0.45594000000E+02  0.51100000000E-03 0.  1.
    9900012    2    1    2    0    0 -0.19185737482E+02 -0.34908966230E+02 -0.81509555176E+01  0.50528849470E+02  0.29999968449E+02 0.  0.
        -12    1    1    2    0    0  0.19185737482E+02  0.34908966230E+02  0.81509555176E+01  0.40659150530E+02  0.00000000000E+00 0.  1.
         11    1    3    3    0    0 -0.10619412190E+01  0.38192223050E+01 -0.79807658078E+00  0.40436499178E+01  0.51100000000E-03 0. -1.
        -11    1    3    3    0    0  0.29264106146E+01 -0.74392763193E+01 -0.29373695414E+01  0.85167394773E+01  0.51100000000E-03 0.  1.
         12    1    3    3    0    0 -0.21050206877E+02 -0.31288912216E+02 -0.44155093955E+01  0.37968460075E+02  0.00000000000E+00 0. -1.
</event>
<event>
 7    1  0.5041278E-013  0.5052886E+02  0.7816164E-02  0.1300439E+00
        -11   -1    0    0    0    0  0.00000000000E+00  0.00000000000E+00  0.45593999997E+02  0.45594000000E+02  0.51100000000E-03 0.  1.
         11   -1    0    0    0    0 -0.00000000000E+00 -0.00000000000E+00 -0.45593999997E+02  0.45594000000E+02  0.51100000000E-03 0. -1.
    9900012    2    1    2    0    0  0.23775865279E+01  0.37954531462E+02  0.14386310131E+02  0.50528864552E+02  0.30000014291E+02 0.  0.
        -12    1    1    2    0    0 -0.23775865279E+01 -0.37954531462E+02 -0.14386310131E+02  0.40659135448E+02  0.00000000000E+00 0.  1.
         11    1    3    3    0    0 -0.25416229160E+00  0.10972756826E+02 -0.22897927608E+01  0.11212008829E+02  0.51100000000E-03 0. -1.
        -11    1    3    3    0    0  0.11678818516E+02  0.11579846829E+02  0.27669147318E+01  0.16677633882E+02  0.51100000000E-03 0.  1.
         12    1    3    3    0    0 -0.90470696962E+01  0.15401927808E+02  0.13909188160E+02  0.22639221841E+02  0.00000000000E+00 0. -1.
</event>
<event>
 7    1  0.5041278E-013  0.5052886E+02  0.7816164E-02  0.1300439E+00
        -11   -1    0    0    0    0  0.00000000000E+00  0.00000000000E+00  0.45593999997E+02  0.45594000000E+02  0.51100000000E-03 0. -1.
         11   -1    0    0    0    0 -0.00000000000E+00 -0.00000000000E+00 -0.45593999997E+02  0.45594000000E+02  0.51100000000E-03 0.  1.
    9900012    2    1    2    0    0  0.18510585216E+02  0.18592496575E+02  0.31061919212E+02  0.50528861802E+02  0.30000005932E+02 0.  0.
        -12    1    1    2    0    0 -0.18510585216E+02 -0.18592496575E+02 -0.31061919212E+02  0.40659138198E+02  0.00000000000E+00 0.  1.
         11    1    3    3    0    0 -0.27206249048E+01 -0.35452893420E+01  0.12792718247E+02  0.13550812403E+02  0.51100000000E-03 0.  1.
        -11    1    3    3    0    0  0.22737247909E+01  0.18478843079E+01  0.58839978938E+01  0.65731219611E+01  0.51100000000E-03 0. -1.
        -12    1    3    3    0    0  0.18957485330E+02  0.20289901609E+02  0.12385203071E+02  0.30404927437E+02  0.00000000000E+00 0.  1.
</event>
<event>
 7    1  0.5041278E-013  0.5052886E+02  0.7816164E-02  0.1300439E+00
        -11   -1    0    0    0    0  0.00000000000E+00  0.00000000000E+00  0.45593999997E+02  0.45594000000E+02  0.51100000000E-03 0.  1.
         11   -1    0    0    0    0 -0.00000000000E+00 -0.00000000000E+00 -0.45593999997E+02  0.45594000000E+02  0.51100000000E-03 0. -1.
    9900012    2    1    2    0    0  0.14772157622E+02 -0.15779848525E+02 -0.34437561374E+02  0.50528857195E+02  0.29999991929E+02 0.  0.
        -12    1    1    2    0    0 -0.14772157622E+02  0.15779848525E+02  0.34437561374E+02  0.40659142805E+02  0.00000000000E+00 0.  1.
         11    1    3    3    0    0  0.16089217381E+01  0.21293719923E+01 -0.17436147396E+02  0.17639220236E+02  0.51100000000E-03 0. -1.
        -11    1    3    3    0    0  0.13947143351E+01  0.19578258118E+01  0.18880269287E+01  0.30566249248E+01  0.51100000000E-03 0.  1.
        -12    1    3    3    0    0  0.11768521549E+02 -0.19867046329E+02 -0.18889440907E+02  0.29833012034E+02  0.00000000000E+00 0.  1.
</event>
<event>
 7    1  0.5041278E-013  0.5052886E+02  0.7816164E-02  0.1300439E+00
        -11   -1    0    0    0    0  0.00000000000E+00  0.00000000000E+00  0.45593999997E+02  0.45594000000E+02  0.51100000000E-03 0.  1.
         11   -1    0    0    0    0 -0.00000000000E+00 -0.00000000000E+00 -0.45593999997E+02  0.45594000000E+02  0.51100000000E-03 0. -1.
    9900012    2    1    2    0    0  0.29379548645E+02 -0.27717215298E+02 -0.46651881098E+01  0.50528857331E+02  0.29999992344E+02 0.  0.
        -12    1    1    2    0    0 -0.29379548645E+02  0.27717215298E+02  0.46651881098E+01  0.40659142669E+02  0.00000000000E+00 0.  1.
         11    1    3    3    0    0  0.39366120435E+01 -0.20076831035E+00 -0.71428021396E+01  0.81582378588E+01  0.51100000000E-03 0. -1.
        -11    1    3    3    0    0 -0.32505821303E+01 -0.25323531420E+01  0.12441609931E+01  0.43043040622E+01  0.51100000000E-03 0.  1.
         12    1    3    3    0    0  0.28693518732E+02 -0.24984093846E+02  0.12334530366E+01  0.38066315410E+02  0.00000000000E+00 0. -1.
</event>
<event>
 7    1  0.5041278E-013  0.5052886E+02  0.7816164E-02  0.1300439E+00
        -11   -1    0    0    0    0  0.00000000000E+00  0.00000000000E+00  0.45593999997E+02  0.45594000000E+02  0.51100000000E-03 0.  1.
         11   -1    0    0    0    0 -0.00000000000E+00 -0.00000000000E+00 -0.45593999997E+02  0.45594000000E+02  0.51100000000E-03 0. -1.
    9900012    2    1    2    0    0  0.37846637858E+02 -0.12722645976E+02  0.76766943799E+01  0.50528863826E+02  0.30000012086E+02 0.  0.
        -12    1    1    2    0    0 -0.37846637858E+02  0.12722645976E+02 -0.76766943799E+01  0.40659136174E+02  0.00000000000E+00 0.  1.
         11    1    3    3    0    0  0.30580547091E+01 -0.45079773311E+01 -0.11109373497E+01  0.55594730216E+01  0.51100000000E-03 0. -1.
        -11    1    3    3    0    0  0.67995589304E+01 -0.42781783203E+01  0.14082940940E+02  0.16213143963E+02  0.51100000000E-03 0.  1.
        -12    1    3    3    0    0  0.27989024219E+02 -0.39364903250E+01 -0.52953092103E+01  0.28756246842E+02  0.00000000000E+00 0.  1.
</event>
<event>
 7    1  0.5041278E-013  0.5052885E+02  0.7816164E-02  0.1300439E+00
        -11   -1    0    0    0    0  0.00000000000E+00  0.00000000000E+00  0.45593999997E+02  0.45594000000E+02  0.51100000000E-03 0. -1.
         11   -1    0    0    0    0 -0.00000000000E+00 -0.00000000000E+00 -0.45593999997E+02  0.45594000000E+02  0.51100000000E-03 0.  1.
    9900012    2    1    2    0    0  0.17586734133E+02  0.20896941260E+02  0.30119618930E+02  0.50528845852E+02  0.29999957452E+02 0.  0.
        -12    1    1    2    0    0 -0.17586734133E+02 -0.20896941260E+02 -0.30119618930E+02  0.40659154148E+02  0.00000000000E+00 0.  1.
         11    1    3    3    0    0 -0.17418823469E+01  0.89696508230E+01  0.22372158363E+02  0.24166138709E+02  0.51100000000E-03 0. -1.
        -11    1    3    3    0    0  0.64278530772E+01  0.76594561397E+01  0.79474057684E+01  0.12772854898E+02  0.51100000000E-03 0.  1.
        -12    1    3    3    0    0  0.12900763403E+02  0.42678342977E+01 -0.19994520126E+00  0.13589852245E+02  0.00000000000E+00 0.  1.
</event>
<event>
 7    1  0.5041278E-013  0.5052883E+02  0.7816164E-02  0.1300439E+00
        -11   -1    0    0    0    0  0.00000000000E+00  0.00000000000E+00  0.45593999997E+02  0.45594000000E+02  0.51100000000E-03 0.  1.
         11   -1    0    0    0    0 -0.00000000000E+00 -0.00000000000E+00 -0.45593999997E+02  0.45594000000E+02  0.51100000000E-03 0. -1.
    9900012    2    1    2    0    0 -0.25046775406E+01  0.71279234231E+01 -0.39951066347E+02  0.50528826322E+02  0.29999898089E+02 0.  0.
        -12    1    1    2    0    0  0.25046775406E+01 -0.71279234231E+01  0.39951066347E+02  0.40659173678E+02  0.00000000000E+00 0.  1.
         11    1    3    3    0    0  0.18482624592E+01  0.44308522729E+01 -0.38027512791E+01  0.61244953697E+01  0.51100000000E-03 0. -1.
        -11    1    3    3    0    0  0.29333742663E+01 -0.10304130253E+02 -0.17676750363E+02  0.20669961019E+02  0.51100000000E-03 0.  1.
         12    1    3    3    0    0 -0.72863142661E+01  0.13001201403E+02 -0.18471564705E+02  0.23734369934E+02  0.00000000000E+00 0. -1.
</event>
<event>
 7    1  0.5041278E-013  0.5052887E+02  0.7816164E-02  0.1300439E+00
        -11   -1    0    0    0    0  0.00000000000E+00  0.00000000000E+00  0.45593999997E+02  0.45594000000E+02  0.51100000000E-03 0. -1.
         11   -1    0    0    0    0 -0.00000000000E+00 -0.00000000000E+00 -0.45593999997E+02  0.45594000000E+02  0.51100000000E-03 0.  1.
    9900012    2    1    2    0    0  0.13463380146E+02  0.21334252684E+02  0.31886545748E+02  0.50528871354E+02  0.30000034967E+02 0.  0.
        -12    1    1    2    0    0 -0.13463380146E+02 -0.21334252684E+02 -0.31886545748E+02  0.40659128646E+02  0.00000000000E+00 0.  1.
         11    1    3    3    0    0  0.11486212482E+02  0.78274068142E+01  0.23108043846E+02  0.26966332070E+02  0.51100000000E-03 0. -1.
        -11    1    3    3    0    0  0.65932658017E+00 -0.35357818641E+01  0.48245343638E+01  0.60176903392E+01  0.51100000000E-03 0.  1.
        -12    1    3    3    0    0  0.13178410835E+01  0.17042627734E+02  0.39539675377E+01  0.17544848945E+02  0.00000000000E+00 0.  1.
</event>
<event>
 7    1  0.5041278E-013  0.5052886E+02  0.7816164E-02  0.1300439E+00
        -11   -1    0    0    0    0  0.00000000000E+00  0.00000000000E+00  0.45593999997E+02  0.45594000000E+02  0.51100000000E-03 0.  1.
         11   -1    0    0    0    0 -0.00000000000E+00 -0.00000000000E+00 -0.45593999997E+02  0.45594000000E+02  0.51100000000E-03 0. -1.
    9900012    2    1    2    0    0 -0.71503770724E+01  0.25094838807E+02 -0.31181509909E+02  0.50528863423E+02  0.30000010859E+02 0.  0.
        -12    1    1    2    0    0  0.71503770724E+01 -0.25094838807E+02  0.31181509909E+02  0.40659136577E+02  0.00000000000E+00 0.  1.
         11    1    3    3    0    0 -0.30273269146E+01  0.47281891806E+01  0.13396176994E+01  0.57719196994E+01  0.51100000000E-03 0. -1.
        -11    1    3    3    0    0 -0.84050893974E+01  0.16424308156E+02 -0.90033005370E+01  0.20529560322E+02  0.51100000000E-03 0.  1.
        -12    1    3    3    0    0  0.42820392395E+01  0.39423414699E+01 -0.23517827071E+02  0.24227383401E+02  0.00000000000E+00 0.  1.
</event>
<event>
 7    1  0.5041278E-013  0.5052886E+02  0.7816164E-02  0.1300439E+00
        -11   -1    0    0    0    0  0.00000000000E+00  0.00000000000E+00  0.45593999997E+02  0.45594000000E+02  0.51100000000E-03 0. -1.
         11   -1    0    0    0    0 -0.00000000000E+00 -0.00000000000E+00 -0.45593999997E+02  0.45594000000E+02  0.51100000000E-03 0.  1.
    9900012    2    1    2    0    0  0.11607014811E+02 -0.26076451987E+02  0.28956201130E+02  0.50528859269E+02  0.29999998236E+02 0.  0.
        -12    1    1    2    0    0 -0.11607014811E+02  0.26076451987E+02 -0.28956201130E+02  0.40659140731E+02  0.00000000000E+00 0.  1.
         11    1    3    3    0    0  0.87416020116E+01 -0.73082485207E+01  0.27687860918E+02  0.29940670411E+02  0.51100000000E-03 0. -1.
        -11    1    3    3    0    0  0.36261647198E-01 -0.13973439386E+02  0.37872793939E+01  0.14477631321E+02  0.51100000000E-03 0.  1.
        -12    1    3    3    0    0  0.28291511518E+01 -0.47947640805E+01 -0.25189391818E+01  0.61105575383E+01  0.00000000000E+00 0.  1.
</event>
<event>
 7    1  0.5041278E-013  0.5052886E+02  0.7816164E-02  0.1300439E+00
        -11   -1    0    0    0    0  0.00000000000E+00  0.00000000000E+00  0.45593999997E+02  0.45594000000E+02  0.51100000000E-03 0. -1.
         11   -1    0    0    0    0 -0.00000000000E+00 -0.00000000000E+00 -0.45593999997E+02  0.45594000000E+02  0.51100000000E-03 0.  1.
    9900012    2    1    2    0    0  0.15336625253E+02 -0.34786843280E+01  0.37494700149E+02  0.50528857632E+02  0.29999993259E+02 0.  0.
        -12    1    1    2    0    0 -0.15336625253E+02  0.34786843280E+01 -0.37494700149E+02  0.40659142368E+02  0.00000000000E+00 0.  1.
         11    1    3    3    0    0  0.44469347981E+01 -0.11272344869E+01  0.88420891002E+00  0.46720137355E+01  0.51100000000E-03 0.  1.
        -11    1    3    3    0    0 -0.55059949928E+01  0.43761708735E+01  0.21319625006E+02  0.22449794276E+02  0.51100000000E-03 0. -1.
         12    1    3    3    0    0  0.16395685448E+02 -0.67276207146E+01  0.15290866232E+02  0.23407049620E+02  0.00000000000E+00 0. -1.
</event>
<event>
 7    1  0.5041278E-013  0.5052886E+02  0.7816164E-02  0.1300439E+00
        -11   -1    0    0    0    0  0.00000000000E+00  0.00000000000E+00  0.45593999997E+02  0.45594000000E+02  0.51100000000E-03 0.  1.
         11   -1    0    0    0    0 -0.00000000000E+00 -0.00000000000E+00 -0.45593999997E+02  0.45594000000E+02  0.51100000000E-03 0. -1.
    9900012    2    1    2    0    0 -0.38887344101E+02  0.11853682005E+02  0.65625965074E+00  0.50528856070E+02  0.29999988512E+02 0.  0.
        -12    1    1    2    0    0  0.38887344101E+02 -0.11853682005E+02 -0.65625965074E+00  0.40659143930E+02  0.00000000000E+00 0.  1.
         11    1    3    3    0    0  0.12706885699E+01  0.42867367508E+01 -0.19424428363E+01  0.48748175192E+01  0.51100000000E-03 0.  1.
        -11    1    3    3    0    0 -0.28792616349E+02  0.14156288359E+02 -0.76205693804E+00  0.32093550557E+02  0.51100000000E-03 0. -1.
        -12    1    3    3    0    0 -0.11365416322E+02 -0.65893431043E+01  0.33607594251E+01  0.13560487994E+02  0.00000000000E+00 0.  1.
</event>
<event>
 7    1  0.5041278E-013  0.5052887E+02  0.7816164E-02  0.1300439E+00
        -11   -1    0    0    0    0  0.00000000000E+00  0.00000000000E+00  0.45593999997E+02  0.45594000000E+02  0.51100000000E-03 0.  1.
         11   -1    0    0    0    0 -0.00000000000E+00 -0.00000000000E+00 -0.45593999997E+02  0.45594000000E+02  0.51100000000E-03 0. -1.
    9900012    2    1    2    0    0  0.17435628035E+02 -0.33368227857E+02 -0.15353354237E+02  0.50528865213E+02  0.30000016300E+02 0.  0.
        -12    1    1    2    0    0 -0.17435628035E+02  0.33368227857E+02  0.15353354237E+02  0.40659134787E+02  0.00000000000E+00 0.  1.
         11    1    3    3    0    0 -0.43804112403E+01 -0.19043894088E+02 -0.89188390245E+01  0.21480307132E+02  0.51100000000E-03 0. -1.
        -11    1    3    3    0    0  0.13729846556E+01  0.94057763474E+00  0.15912258679E+01  0.23025579635E+01  0.51100000000E-03 0.  1.
        -12    1    3    3    0    0  0.20443054620E+02 -0.15264911404E+02 -0.80257410803E+01  0.26746000117E+02  0.00000000000E+00 0.  1.
</event>
<event>
 7    1  0.5041278E-013  0.5052886E+02  0.7816164E-02  0.1300439E+00
        -11   -1    0    0    0    0  0.00000000000E+00  0.00000000000E+00  0.45593999997E+02  0.45594000000E+02  0.51100000000E-03 0.  1.
         11   -1    0    0    0    0 -0.00000000000E+00 -0.00000000000E+00 -0.45593999997E+02  0.45594000000E+02  0.51100000000E-03 0. -1.
    9900012    2    1    2    0    0  0.12602618802E+02  0.37743351446E+02  0.83534000044E+01  0.50528857477E+02  0.29999992788E+02 0.  0.
        -12    1    1    2    0    0 -0.12602618802E+02 -0.37743351446E+02 -0.83534000044E+01  0.40659142523E+02  0.00000000000E+00 0.  1.
         11    1    3    3    0    0  0.48471643361E+01  0.25649686942E+02  0.99822032555E+00  0.26122746533E+02  0.51100000000E-03 0. -1.
        -11    1    3    3    0    0 -0.48122364220E+01  0.71771064719E+01 -0.73407440020E+00  0.86722166818E+01  0.51100000000E-03 0.  1.
         12    1    3    3    0    0  0.12567690887E+02  0.49165580321E+01  0.80892540791E+01  0.15733894263E+02  0.00000000000E+00 0. -1.
</event>
<event>
 7    1  0.5041278E-013  0.5052886E+02  0.7816164E-02  0.1300439E+00
        -11   -1    0    0    0    0  0.00000000000E+00  0.00000000000E+00  0.45593999997E+02  0.45594000000E+02  0.51100000000E-03 0. -1.
         11   -1    0    0    0    0 -0.00000000000E+00 -0.00000000000E+00 -0.45593999997E+02  0.45594000000E+02  0.51100000000E-03 0.  1.
    9900012    2    1    2    0    0  0.17682204406E+02 -0.31998499448E+02  0.17793298978E+02  0.50528858247E+02  0.29999995128E+02 0.  0.
        -12    1    1    2    0    0 -0.17682204406E+02  0.31998499448E+02 -0.17793298978E+02  0.40659141753E+02  0.00000000000E+00 0.  1.
         11    1    3    3    0    0  0.23090079796E+01 -0.52799514297E+01  0.98626564592E+00  0.58465481384E+01  0.51100000000E-03 0. -1.
        -11    1    3    3    0    0 -0.58149675252E+01 -0.54382369175E+01  0.11804775326E+02  0.14238714438E+02  0.51100000000E-03 0.  1.
        -12    1    3    3    0    0  0.21188163952E+02 -0.21280311101E+02  0.50022580058E+01  0.30443595671E+02  0.00000000000E+00 0.  1.
</event>
<event>
 7    1  0.5041278E-013  0.5052884E+02  0.7816164E-02  0.1300439E+00
        -11   -1    0    0    0    0  0.00000000000E+00  0.00000000000E+00  0.45593999997E+02  0.45594000000E+02  0.51100000000E-03 0.  1.
         11   -1    0    0    0    0 -0.00000000000E+00 -0.00000000000E+00 -0.45593999997E+02  0.45594000000E+02  0.51100000000E-03 0. -1.
    9900012    2    1    2    0    0  0.35732920794E+02  0.16863788921E+02 -0.95884350842E+01  0.50528842451E+02  0.29999947114E+02 0.  0.
        -12    1    1    2    0    0 -0.35732920794E+02 -0.16863788921E+02  0.95884350842E+01  0.40659157549E+02  0.00000000000E+00 0.  1.
         11    1    3    3    0    0  0.84866406218E+01  0.31501445123E+01  0.64540351230E+01  0.11117600871E+02  0.51100000000E-03 0. -1.
        -11    1    3    3    0    0  0.21655984645E+02  0.80218231276E+00 -0.74015951490E+01  0.22899973328E+02  0.51100000000E-03 0.  1.
        -12    1    3    3    0    0  0.55902955274E+01  0.12911462096E+02 -0.86408750583E+01  0.16511268252E+02  0.00000000000E+00 0.  1.
</event>
<event>
 7    1  0.5041278E-013  0.5052886E+02  0.7816164E-02  0.1300439E+00
        -11   -1    0    0    0    0  0.00000000000E+00  0.00000000000E+00  0.45593999997E+02  0.45594000000E+02  0.51100000000E-03 0.  1.
         11   -1    0    0    0    0 -0.00000000000E+00 -0.00000000000E+00 -0.45593999997E+02  0.45594000000E+02  0.51100000000E-03 0. -1.
    9900012    2    1    2    0    0  0.19771893370E+02 -0.82000278783E+01 -0.34568736888E+02  0.50528858412E+02  0.29999995629E+02 0.  0.
        -12    1    1    2    0    0 -0.19771893370E+02  0.82000278783E+01  0.34568736888E+02  0.40659141588E+02  0.00000000000E+00 0.  1.
         11    1    3    3    0    0  0.12620252933E+02 -0.77291821421E+01 -0.11196824667E+02  0.18557476217E+02  0.51100000000E-03 0. -1.
        -11    1    3    3    0    0  0.23642818878E+01 -0.80441143871E+01 -0.21134281782E+02  0.22736654807E+02  0.51100000000E-03 0.  1.
        -12    1    3    3    0    0  0.47873585486E+01  0.75732686509E+01 -0.22376304394E+01  0.92347273871E+01  0.00000000000E+00 0.  1.
</event>
<event>
 7    1  0.5041278E-013  0.5052886E+02  0.7816164E-02  0.1300439E+00
        -11   -1    0    0    0    0  0.00000000000E+00  0.00000000000E+00  0.45593999997E+02  0.45594000000E+02  0.51100000000E-03 0. -1.
         11   -1    0    0    0    0 -0.00000000000E+00 -0.00000000000E+00 -0.45593999997E+02  0.45594000000E+02  0.51100000000E-03 0.  1.
    9900012    2    1    2    0    0  0.18702056839E+02 -0.36049181316E+02 -0.19633909426E+01  0.50528864402E+02  0.30000013837E+02 0.  0.
        -12    1    1    2    0    0 -0.18702056839E+02  0.36049181316E+02  0.19633909426E+01  0.40659135598E+02  0.00000000000E+00 0.  1.
         11    1    3    3    0    0  0.65167463692E+01 -0.15437521594E+02  0.88664834376E+01  0.18957837035E+02  0.51100000000E-03 0. -1.
        -11    1    3    3    0    0 -0.19556674722E+01  0.14287372908E+01  0.12577713731E+01  0.27290867696E+01  0.51100000000E-03 0.  1.
         12    1    3    3    0    0  0.14140977942E+02 -0.22040397012E+02 -0.12087645753E+02  0.28841940598E+02  0.00000000000E+00 0. -1.
</event>
<event>
 7    1  0.5041278E-013  0.5052886E+02  0.7816164E-02  0.1300439E+00
        -11   -1    0    0    0    0  0.00000000000E+00  0.00000000000E+00  0.45593999997E+02  0.45594000000E+02  0.51100000000E-03 0.  1.
         11   -1    0    0    0    0 -0.00000000000E+00 -0.00000000000E+00 -0.45593999997E+02  0.45594000000E+02  0.51100000000E-03 0. -1.
    9900012    2    1    2    0    0 -0.50322523844E+01  0.34990906684E+02 -0.20086777649E+02  0.50528858949E+02  0.29999997262E+02 0.  0.
        -12    1    1    2    0    0  0.50322523844E+01 -0.34990906684E+02  0.20086777649E+02  0.40659141051E+02  0.00000000000E+00 0.  1.
         11    1    3    3    0    0  0.33736290460E+01 -0.41040417402E+00 -0.55101260945E+01  0.64738932926E+01  0.51100000000E-03 0. -1.
        -11    1    3    3    0    0 -0.11712638231E+02  0.17151054307E+02 -0.14806024683E+02  0.25506135053E+02  0.51100000000E-03 0.  1.
        -12    1    3    3    0    0  0.33067568009E+01  0.18250256552E+02  0.22937312787E+00  0.18548830604E+02  0.00000000000E+00 0.  1.
</event>
<event>
 7    1  0.5041278E-013  0.5052891E+02  0.7816164E-02  0.1300439E+00
        -11   -1    0    0    0    0  0.00000000000E+00  0.00000000000E+00  0.45593999997E+02  0.45594000000E+02  0.51100000000E-03 0.  1.
         11   -1    0    0    0    0 -0.00000000000E+00 -0.00000000000E+00 -0.45593999997E+02  0.45594000000E+02  0.51100000000E-03 0. -1.
    9900012    2    1    2    0    0 -0.38219201582E+01  0.34379452365E+02 -0.21368374854E+02  0.50528914145E+02  0.30000165036E+02 0.  0.
        -12    1    1    2    0    0  0.38219201582E+01 -0.34379452365E+02  0.21368374854E+02  0.40659085855E+02  0.00000000000E+00 0.  1.
         11    1    3    3    0    0 -0.11756751239E+02  0.12601926047E+02 -0.12044306001E+02  0.21026056385E+02  0.51100000000E-03 0. -1.
        -11    1    3    3    0    0  0.85505852010E+00 -0.14161655813E+01  0.21191168216E+01  0.26883650033E+01  0.51100000000E-03 0.  1.
         12    1    3    3    0    0  0.70797725607E+01  0.23193691899E+02 -0.11443185675E+02  0.26814492757E+02  0.00000000000E+00 0. -1.
</event>
<event>
 7    1  0.5041278E-013  0.5052887E+02  0.7816164E-02  0.1300439E+00
        -11   -1    0    0    0    0  0.00000000000E+00  0.00000000000E+00  0.45593999997E+02  0.45594000000E+02  0.51100000000E-03 0. -1.
         11   -1    0    0    0    0 -0.00000000000E+00 -0.00000000000E+00 -0.45593999997E+02  0.45594000000E+02  0.51100000000E-03 0.  1.
    9900012    2    1    2    0    0  0.12548448794E+01 -0.40637465307E+02  0.43196711567E+00  0.50528870424E+02  0.30000032142E+02 0.  0.
        -12    1    1    2    0    0 -0.12548448794E+01  0.40637465307E+02 -0.43196711567E+00  0.40659129576E+02  0.00000000000E+00 0.  1.
         11    1    3    3    0    0 -0.63914180117E+01 -0.19997181855E+02 -0.13014705747E+02  0.24700608744E+02  0.51100000000E-03 0.  1.
        -11    1    3    3    0    0  0.57229680992E+01 -0.13672723459E+02  0.91855513493E+01  0.17437605469E+02  0.51100000000E-03 0. -1.
        -12    1    3    3    0    0  0.19232947918E+01 -0.69675599926E+01  0.42611215132E+01  0.83906562114E+01  0.00000000000E+00 0.  1.
</event>
<event>
 7    1  0.5041278E-013  0.5052886E+02  0.7816164E-02  0.1300439E+00
        -11   -1    0    0    0    0  0.00000000000E+00  0.00000000000E+00  0.45593999997E+02  0.45594000000E+02  0.51100000000E-03 0. -1.
         11   -1    0    0    0    0 -0.00000000000E+00 -0.00000000000E+00 -0.45593999997E+02  0.45594000000E+02  0.51100000000E-03 0.  1.
    9900012    2    1    2    0    0 -0.34049605981E+02 -0.17097134767E+02  0.14194291186E+02  0.50528860966E+02  0.30000003393E+02 0.  0.
        -12    1    1    2    0    0  0.34049605981E+02  0.17097134767E+02 -0.14194291186E+02  0.40659139034E+02  0.00000000000E+00 0.  1.
         11    1    3    3    0    0 -0.52236523123E+01 -0.57467384485E+01 -0.58543920870E+00  0.77880861322E+01  0.51100000000E-03 0.  1.
        -11    1    3    3    0    0 -0.14573800083E+02 -0.54196133061E+01  0.20972747657E+02  0.26107929864E+02  0.51100000000E-03 0. -1.
         12    1    3    3    0    0 -0.14252153585E+02 -0.59307830128E+01 -0.61930172623E+01  0.16632844969E+02  0.00000000000E+00 0. -1.
</event>
<event>
 7    1  0.5041278E-013  0.5052886E+02  0.7816164E-02  0.1300439E+00
        -11   -1    0    0    0    0  0.00000000000E+00  0.00000000000E+00  0.45593999997E+02  0.45594000000E+02  0.51100000000E-03 0. -1.
         11   -1    0    0    0    0 -0.00000000000E+00 -0.00000000000E+00 -0.45593999997E+02  0.45594000000E+02  0.51100000000E-03 0.  1.
    9900012    2    1    2    0    0  0.62338418622E+01  0.39832029953E+02  0.52644472097E+01  0.50528858359E+02  0.29999995468E+02 0.  0.
        -12    1    1    2    0    0 -0.62338418622E+01 -0.39832029953E+02 -0.52644472097E+01  0.40659141641E+02  0.00000000000E+00 0.  1.
         11    1    3    3    0    0  0.33126041387E+00  0.71374548862E+00  0.56562065666E+01  0.57106776366E+01  0.51100000000E-03 0. -1.
        -11    1    3    3    0    0  0.35567668777E+01  0.44080988949E-01 -0.41824813668E+01  0.54905085739E+01  0.51100000000E-03 0.  1.
        -12    1    3    3    0    0  0.23458145707E+01  0.39074203476E+02  0.37907220099E+01  0.39327672148E+02  0.00000000000E+00 0.  1.
</event>
<event>
 7    1  0.5041278E-013  0.5052886E+02  0.7816164E-02  0.1300439E+00
        -11   -1    0    0    0    0  0.00000000000E+00  0.00000000000E+00  0.45593999997E+02  0.45594000000E+02  0.51100000000E-03 0.  1.
         11   -1    0    0    0    0 -0.00000000000E+00 -0.00000000000E+00 -0.45593999997E+02  0.45594000000E+02  0.51100000000E-03 0. -1.
    9900012    2    1    2    0    0 -0.59126875814E+01 -0.35642701334E+02 -0.18649490836E+02  0.50528861528E+02  0.30000005101E+02 0.  0.
        -12    1    1    2    0    0  0.59126875814E+01  0.35642701334E+02  0.18649490836E+02  0.40659138472E+02  0.00000000000E+00 0.  1.
         11    1    3    3    0    0 -0.10516193300E+02 -0.18815404403E+02 -0.11144558370E+02  0.24265426967E+02  0.51100000000E-03 0. -1.
        -11    1    3    3    0    0 -0.10684812937E+01  0.23357317419E+01  0.27820565644E+01  0.37864408135E+01  0.51100000000E-03 0.  1.
         12    1    3    3    0    0  0.56719870126E+01 -0.19163028673E+02 -0.10286989031E+02  0.22476993748E+02  0.00000000000E+00 0. -1.
</event>
<event>
 7    1  0.5041278E-013  0.5052887E+02  0.7816164E-02  0.1300439E+00
        -11   -1    0    0    0    0  0.00000000000E+00  0.00000000000E+00  0.45593999997E+02  0.45594000000E+02  0.51100000000E-03 0. -1.
         11   -1    0    0    0    0 -0.00000000000E+00 -0.00000000000E+00 -0.45593999997E+02  0.45594000000E+02  0.51100000000E-03 0.  1.
    9900012    2    1    2    0    0 -0.33545392377E+01 -0.20526325101E+01  0.40468489059E+02  0.50528870147E+02  0.30000031298E+02 0.  0.
        -12    1    1    2    0    0  0.33545392377E+01  0.20526325101E+01 -0.40468489059E+02  0.40659129853E+02  0.00000000000E+00 0.  1.
         11    1    3    3    0    0  0.21067233115E+01 -0.80805362417E+01  0.11810418263E+02  0.14464415953E+02  0.51100000000E-03 0. -1.
        -11    1    3    3    0    0  0.77547628629E+01  0.24111364912E+01  0.12094885367E+02  0.14568327925E+02  0.51100000000E-03 0.  1.
         12    1    3    3    0    0 -0.13216025412E+02  0.36167672405E+01  0.16563185429E+02  0.21496126268E+02  0.00000000000E+00 0. -1.
</event>
<event>
 7    1  0.5041278E-013  0.5052885E+02  0.7816164E-02  0.1300439E+00
        -11   -1    0    0    0    0  0.00000000000E+00  0.00000000000E+00  0.45593999997E+02  0.45594000000E+02  0.51100000000E-03 0. -1.
         11   -1    0    0    0    0 -0.00000000000E+00 -0.00000000000E+00 -0.45593999997E+02  0.45594000000E+02  0.51100000000E-03 0.  1.
    9900012    2    1    2    0    0  0.66210825321E+01  0.11504011500E+02  0.38431569282E+02  0.50528849345E+02  0.29999968070E+02 0.  0.
        -12    1    1    2    0    0 -0.66210825321E+01 -0.11504011500E+02 -0.38431569282E+02  0.40659150655E+02  0.00000000000E+00 0.  1.
         11    1    3    3    0    0 -0.40078558384E+01 -0.28894737730E+01  0.15708204111E+02  0.16466925753E+02  0.51100000000E-03 0.  1.
        -11    1    3    3    0    0  0.42344075548E+01  0.11442766108E+02  0.23982493777E+02  0.26907751887E+02  0.51100000000E-03 0. -1.
         12    1    3    3    0    0  0.63945308157E+01  0.29507191649E+01 -0.12591286068E+01  0.71541717055E+01  0.00000000000E+00 0. -1.
</event>
<event>
 7    1  0.5041278E-013  0.5052888E+02  0.7816164E-02  0.1300439E+00
        -11   -1    0    0    0    0  0.00000000000E+00  0.00000000000E+00  0.45593999997E+02  0.45594000000E+02  0.51100000000E-03 0. -1.
         11   -1    0    0    0    0 -0.00000000000E+00 -0.00000000000E+00 -0.45593999997E+02  0.45594000000E+02  0.51100000000E-03 0.  1.
    9900012    2    1    2    0    0  0.39646703618E+02 -0.16744783112E+01 -0.88599602705E+01  0.50528881940E+02  0.30000067146E+02 0.  0.
        -12    1    1    2    0    0 -0.39646703618E+02  0.16744783112E+01  0.88599602705E+01  0.40659118060E+02  0.00000000000E+00 0.  1.
         11    1    3    3    0    0 -0.30689607002E+01 -0.81210931066E+00 -0.18198777060E+01  0.36592344059E+01  0.51100000000E-03 0.  1.
        -11    1    3    3    0    0  0.10107152700E+02  0.64594091704E+01  0.22008786098E+01  0.12195178123E+02  0.51100000000E-03 0. -1.
        -12    1    3    3    0    0  0.32608511618E+02 -0.73217781709E+01 -0.92409611743E+01  0.34674469411E+02  0.00000000000E+00 0.  1.
</event>
<event>
 7    1  0.5041278E-013  0.5052885E+02  0.7816164E-02  0.1300439E+00
        -11   -1    0    0    0    0  0.00000000000E+00  0.00000000000E+00  0.45593999997E+02  0.45594000000E+02  0.51100000000E-03 0.  1.
         11   -1    0    0    0    0 -0.00000000000E+00 -0.00000000000E+00 -0.45593999997E+02  0.45594000000E+02  0.51100000000E-03 0. -1.
    9900012    2    1    2    0    0 -0.28152781251E+02 -0.11405760956E+02 -0.27027684283E+02  0.50528853515E+02  0.29999980745E+02 0.  0.
        -12    1    1    2    0    0  0.28152781251E+02  0.11405760956E+02  0.27027684283E+02  0.40659146485E+02  0.00000000000E+00 0.  1.
         11    1    3    3    0    0 -0.21720441364E+01 -0.18323293316E+01 -0.11590204511E+02  0.11933484293E+02  0.51100000000E-03 0. -1.
        -11    1    3    3    0    0 -0.43643113231E+01  0.18000733236E+01  0.49050567229E+01  0.68078674349E+01  0.51100000000E-03 0.  1.
         12    1    3    3    0    0 -0.21616425792E+02 -0.11373504948E+02 -0.20342536495E+02  0.31787501787E+02  0.00000000000E+00 0. -1.
</event>
<event>
 7    1  0.5041278E-013  0.5052886E+02  0.7816164E-02  0.1300439E+00
        -11   -1    0    0    0    0  0.00000000000E+00  0.00000000000E+00  0.45593999997E+02  0.45594000000E+02  0.51100000000E-03 0. -1.
         11   -1    0    0    0    0 -0.00000000000E+00 -0.00000000000E+00 -0.45593999997E+02  0.45594000000E+02  0.51100000000E-03 0.  1.
    9900012    2    1    2    0    0 -0.25349192267E+02  0.13007983546E+02  0.29006484440E+02  0.50528864199E+02  0.30000013218E+02 0.  0.
        -12    1    1    2    0    0  0.25349192267E+02 -0.13007983546E+02 -0.29006484440E+02  0.40659135801E+02  0.00000000000E+00 0.  1.
         11    1    3    3    0    0 -0.61098282442E+01  0.45065483200E+01 -0.25978307937E+00  0.75964772391E+01  0.51100000000E-03 0. -1.
        -11    1    3    3    0    0 -0.15033604270E+02  0.16364744978E+02  0.18223657314E+02  0.28738751220E+02  0.51100000000E-03 0.  1.
        -12    1    3    3    0    0 -0.42057597523E+01 -0.78633097516E+01  0.11042610206E+02  0.14193635740E+02  0.00000000000E+00 0.  1.
</event>
<event>
 7    1  0.5041278E-013  0.5052886E+02  0.7816164E-02  0.1300439E+00
        -11   -1    0    0    0    0  0.00000000000E+00  0.00000000000E+00  0.45593999997E+02  0.45594000000E+02  0.51100000000E-03 0.  1.
         11   -1    0    0    0    0 -0.00000000000E+00 -0.00000000000E+00 -0.45593999997E+02  0.45594000000E+02  0.51100000000E-03 0. -1.
    9900012    2    1    2    0    0  0.10599105417E+02  0.24510464861E+02 -0.30660423087E+02  0.50528862439E+02  0.30000007870E+02 0.  0.
        -12    1    1    2    0    0 -0.10599105417E+02 -0.24510464861E+02  0.30660423087E+02  0.40659137561E+02  0.00000000000E+00 0.  1.
         11    1    3    3    0    0  0.35943197867E+01  0.16581016995E+01 -0.12514473681E+01  0.41514523665E+01  0.51100000000E-03 0. -1.
        -11    1    3    3    0    0 -0.10287319489E+02  0.82194781142E+01 -0.11878746518E+02  0.17733961256E+02  0.51100000000E-03 0.  1.
        -12    1    3    3    0    0  0.17292105119E+02  0.14632885047E+02 -0.17530229201E+02  0.28643448816E+02  0.00000000000E+00 0.  1.
</event>
<event>
 7    1  0.5041278E-013  0.5052887E+02  0.7816164E-02  0.1300439E+00
        -11   -1    0    0    0    0  0.00000000000E+00  0.00000000000E+00  0.45593999997E+02  0.45594000000E+02  0.51100000000E-03 0. -1.
         11   -1    0    0    0    0 -0.00000000000E+00 -0.00000000000E+00 -0.45593999997E+02  0.45594000000E+02  0.51100000000E-03 0.  1.
    9900012    2    1    2    0    0  0.22830297144E+02  0.21086011734E+02 -0.26216842359E+02  0.50528865948E+02  0.30000018537E+02 0.  0.
        -12    1    1    2    0    0 -0.22830297144E+02 -0.21086011734E+02  0.26216842359E+02  0.40659134052E+02  0.00000000000E+00 0.  1.
         11    1    3    3    0    0  0.15070816793E+02  0.86189960634E+01 -0.13038507815E+02  0.21712192387E+02  0.51100000000E-03 0. -1.
        -11    1    3    3    0    0  0.65487654771E+01  0.17936034617E+02 -0.13204435723E+02  0.23215184472E+02  0.51100000000E-03 0.  1.
         12    1    3    3    0    0  0.12107148743E+01 -0.54690189465E+01  0.26101178914E-01  0.56014890891E+01  0.00000000000E+00 0. -1.
</event>
<event>
 7    1  0.5041278E-013  0.5052899E+02  0.7816164E-02  0.1300438E+00
        -11   -1    0    0    0    0  0.00000000000E+00  0.00000000000E+00  0.45593999997E+02  0.45594000000E+02  0.51100000000E-03 0.  1.
         11   -1    0    0    0    0 -0.00000000000E+00 -0.00000000000E+00 -0.45593999997E+02  0.45594000000E+02  0.51100000000E-03 0. -1.
    9900012    2    1    2    0    0 -0.13715809171E+02 -0.18542996967E+02 -0.33484163870E+02  0.50528986389E+02  0.30000384626E+02 0.  0.
        -12    1    1    2    0    0  0.13715809171E+02  0.18542996967E+02  0.33484163870E+02  0.40659013611E+02  0.00000000000E+00 0.  1.
         11    1    3    3    0    0  0.16198779522E+01  0.20939685151E+01  0.18289612294E+01  0.32177333888E+01  0.51100000000E-03 0. -1.
        -11    1    3    3    0    0 -0.27033222218E+00  0.26710769997E+01 -0.40482162384E+00  0.27150713908E+01  0.51100000000E-03 0.  1.
         12    1    3    3    0    0 -0.15065354901E+02 -0.23308042482E+02 -0.34908303475E+02  0.44596181610E+02  0.00000000000E+00 0. -1.
</event>
<event>
 7    1  0.5041278E-013  0.5052886E+02  0.7816164E-02  0.1300439E+00
        -11   -1    0    0    0    0  0.00000000000E+00  0.00000000000E+00  0.45593999997E+02  0.45594000000E+02  0.51100000000E-03 0. -1.
         11   -1    0    0    0    0 -0.00000000000E+00 -0.00000000000E+00 -0.45593999997E+02  0.45594000000E+02  0.51100000000E-03 0.  1.
    9900012    2    1    2    0    0 -0.33639158105E+02  0.50753192892E+01  0.22266868613E+02  0.50528864966E+02  0.30000015550E+02 0.  0.
        -12    1    1    2    0    0  0.33639158105E+02 -0.50753192892E+01 -0.22266868613E+02  0.40659135034E+02  0.00000000000E+00 0.  1.
         11    1    3    3    0    0 -0.19151589125E+02 -0.12114575574E+01  0.14535938117E+02  0.24073730343E+02  0.51100000000E-03 0. -1.
        -11    1    3    3    0    0 -0.21607443386E+01 -0.66094769970E+01  0.46132116236E+01  0.83448022154E+01  0.51100000000E-03 0.  1.
         12    1    3    3    0    0 -0.12326824641E+02  0.12896253844E+02  0.31177188723E+01  0.18110332407E+02  0.00000000000E+00 0. -1.
</event>
<event>
 7    1  0.5041278E-013  0.5052897E+02  0.7816164E-02  0.1300438E+00
        -11   -1    0    0    0    0  0.00000000000E+00  0.00000000000E+00  0.45593999997E+02  0.45594000000E+02  0.51100000000E-03 0. -1.
         11   -1    0    0    0    0 -0.00000000000E+00 -0.00000000000E+00 -0.45593999997E+02  0.45594000000E+02  0.51100000000E-03 0.  1.
    9900012    2    1    2    0    0 -0.21334596417E+02 -0.27621329478E+02  0.20857951141E+02  0.50528966905E+02  0.30000325403E+02 0.  0.
        -12    1    1    2    0    0  0.21334596417E+02  0.27621329478E+02 -0.20857951141E+02  0.40659033095E+02  0.00000000000E+00 0.  1.
         11    1    3    3    0    0 -0.18006031737E+02 -0.19193212770E+02  0.18177516394E+02  0.31984663479E+02  0.51100000000E-03 0. -1.
        -11    1    3    3    0    0  0.27408623895E+01 -0.68829316803E+00  0.71889423475E+01  0.77244395563E+01  0.51100000000E-03 0.  1.
        -12    1    3    3    0    0 -0.60694270702E+01 -0.77398235397E+01 -0.45085076004E+01  0.10819863870E+02  0.00000000000E+00 0.  1.
</event>
<event>
 7    1  0.5041278E-013  0.5052886E+02  0.7816164E-02  0.1300439E+00
        -11   -1    0    0    0    0  0.00000000000E+00  0.00000000000E+00  0.45593999997E+02  0.45594000000E+02  0.51100000000E-03 0. -1.
         11   -1    0    0    0    0 -0.00000000000E+00 -0.00000000000E+00 -0.45593999997E+02  0.45594000000E+02  0.51100000000E-03 0.  1.
    9900012    2    1    2    0    0 -0.18905382139E+01 -0.27548927451E+02  0.29843728325E+02  0.50528860083E+02  0.30000000709E+02 0.  0.
        -12    1    1    2    0    0  0.18905382139E+01  0.27548927451E+02 -0.29843728325E+02  0.40659139917E+02  0.00000000000E+00 0.  1.
         11    1    3    3    0    0  0.40743045234E+01 -0.14710610132E+02  0.90105995354E+01  0.17725487639E+02  0.51100000000E-03 0. -1.
        -11    1    3    3    0    0  0.18321275976E+01  0.13965554479E+01 -0.31145062986E+01  0.38739138346E+01  0.51100000000E-03 0.  1.
         12    1    3    3    0    0 -0.77969703348E+01 -0.14234872766E+02  0.23947635089E+02  0.28929458609E+02  0.00000000000E+00 0. -1.
</event>
<event>
 7    1  0.5041278E-013  0.5052885E+02  0.7816164E-02  0.1300439E+00
        -11   -1    0    0    0    0  0.00000000000E+00  0.00000000000E+00  0.45593999997E+02  0.45594000000E+02  0.51100000000E-03 0.  1.
         11   -1    0    0    0    0 -0.00000000000E+00 -0.00000000000E+00 -0.45593999997E+02  0.45594000000E+02  0.51100000000E-03 0. -1.
    9900012    2    1    2    0    0 -0.13130751530E+02  0.10527109029E+02 -0.37012562522E+02  0.50528850418E+02  0.29999971332E+02 0.  0.
        -12    1    1    2    0    0  0.13130751530E+02 -0.10527109029E+02  0.37012562522E+02  0.40659149582E+02  0.00000000000E+00 0.  1.
         11    1    3    3    0    0 -0.62905486521E+01 -0.27539279493E+01 -0.26164804210E+01  0.73485434985E+01  0.51100000000E-03 0. -1.
        -11    1    3    3    0    0  0.35419999968E+01 -0.40804458374E+01 -0.10972368787E+02  0.12230645088E+02  0.51100000000E-03 0.  1.
         12    1    3    3    0    0 -0.10382202875E+02  0.17361482816E+02 -0.23423713314E+02  0.30949661832E+02  0.00000000000E+00 0. -1.
</event>
<event>
 7    1  0.5041278E-013  0.5052883E+02  0.7816164E-02  0.1300439E+00
        -11   -1    0    0    0    0  0.00000000000E+00  0.00000000000E+00  0.45593999997E+02  0.45594000000E+02  0.51100000000E-03 0.  1.
         11   -1    0    0    0    0 -0.00000000000E+00 -0.00000000000E+00 -0.45593999997E+02  0.45594000000E+02  0.51100000000E-03 0. -1.
    9900012    2    1    2    0    0  0.20133896303E+02  0.27822957761E+02 -0.21764132957E+02  0.50528828313E+02  0.29999904139E+02 0.  0.
        -12    1    1    2    0    0 -0.20133896303E+02 -0.27822957761E+02  0.21764132957E+02  0.40659171687E+02  0.00000000000E+00 0.  1.
         11    1    3    3    0    0  0.14878432939E+02  0.11610024285E+02 -0.70335268770E+01  0.20140281309E+02  0.51100000000E-03 0. -1.
        -11    1    3    3    0    0  0.10252396801E+02  0.97396425280E+01 -0.16793919344E+02  0.21954680683E+02  0.51100000000E-03 0.  1.
        -12    1    3    3    0    0 -0.49969334366E+01  0.64732909488E+01  0.20633132638E+01  0.84338663199E+01  0.00000000000E+00 0.  1.
</event>
<event>
 7    1  0.5041278E-013  0.5052885E+02  0.7816164E-02  0.1300439E+00
        -11   -1    0    0    0    0  0.00000000000E+00  0.00000000000E+00  0.45593999997E+02  0.45594000000E+02  0.51100000000E-03 0.  1.
         11   -1    0    0    0    0 -0.00000000000E+00 -0.00000000000E+00 -0.45593999997E+02  0.45594000000E+02  0.51100000000E-03 0. -1.
    9900012    2    1    2    0    0 -0.38179111714E+02  0.12351858733E+02 -0.65538680455E+01  0.50528853775E+02  0.29999981533E+02 0.  0.
        -12    1    1    2    0    0  0.38179111714E+02 -0.12351858733E+02  0.65538680455E+01  0.40659146225E+02  0.00000000000E+00 0.  1.
         11    1    3    3    0    0 -0.66376858880E+01  0.45091424295E+01 -0.12838729556E+02  0.15140152452E+02  0.51100000000E-03 0. -1.
        -11    1    3    3    0    0 -0.79925452280E+01 -0.34534329731E+01  0.14352676204E+01  0.88242264208E+01  0.51100000000E-03 0.  1.
        -12    1    3    3    0    0 -0.23548880598E+02  0.11296149277E+02  0.48495938903E+01  0.26564474902E+02  0.00000000000E+00 0.  1.
</event>
<event>
 7    1  0.5041278E-013  0.5052887E+02  0.7816164E-02  0.1300439E+00
        -11   -1    0    0    0    0  0.00000000000E+00  0.00000000000E+00  0.45593999997E+02  0.45594000000E+02  0.51100000000E-03 0. -1.
         11   -1    0    0    0    0 -0.00000000000E+00 -0.00000000000E+00 -0.45593999997E+02  0.45594000000E+02  0.51100000000E-03 0.  1.
    9900012    2    1    2    0    0 -0.77468169531E+01  0.36555915729E+02  0.16025510733E+02  0.50528866439E+02  0.30000020027E+02 0.  0.
        -12    1    1    2    0    0  0.77468169531E+01 -0.36555915729E+02 -0.16025510733E+02  0.40659133561E+02  0.00000000000E+00 0.  1.
         11    1    3    3    0    0 -0.15771151453E+00  0.86242498964E+01  0.34490131519E+00  0.86325845710E+01  0.51100000000E-03 0. -1.
        -11    1    3    3    0    0  0.68290525184E+00  0.13280395366E+02 -0.58864974189E+01  0.14542562112E+02  0.51100000000E-03 0.  1.
         12    1    3    3    0    0 -0.82720106905E+01  0.14651270466E+02  0.21567106837E+02  0.27353719755E+02  0.00000000000E+00 0. -1.
</event>
<event>
 7    1  0.5041278E-013  0.5052882E+02  0.7816164E-02  0.1300439E+00
        -11   -1    0    0    0    0  0.00000000000E+00  0.00000000000E+00  0.45593999997E+02  0.45594000000E+02  0.51100000000E-03 0. -1.
         11   -1    0    0    0    0 -0.00000000000E+00 -0.00000000000E+00 -0.45593999997E+02  0.45594000000E+02  0.51100000000E-03 0.  1.
    9900012    2    1    2    0    0 -0.14534060541E+02 -0.36746187813E+02 -0.95732735071E+01  0.50528821452E+02  0.29999883285E+02 0.  0.
        -12    1    1    2    0    0  0.14534060541E+02  0.36746187813E+02  0.95732735071E+01  0.40659178548E+02  0.00000000000E+00 0.  1.
         11    1    3    3    0    0  0.21601819791E+01 -0.23771343105E+02  0.58296540922E+00  0.23876410705E+02  0.51100000000E-03 0.  1.
        -11    1    3    3    0    0 -0.66536485434E+01 -0.11278694253E+02 -0.13041402268E+01  0.13159816297E+02  0.51100000000E-03 0. -1.
        -12    1    3    3    0    0 -0.10040593977E+02 -0.16961504546E+01 -0.88520986895E+01  0.13492594450E+02  0.00000000000E+00 0.  1.
</event>
<event>
 7    1  0.5663084E-013  0.5052886E+02  0.7816164E-02  0.1300439E+00
        -11   -1    0    0    0    0  0.00000000000E+00  0.00000000000E+00  0.45593999997E+02  0.45594000000E+02  0.51100000000E-03 0. -1.
         11   -1    0    0    0    0 -0.00000000000E+00 -0.00000000000E+00 -0.45593999997E+02  0.45594000000E+02  0.51100000000E-03 0.  1.
    9900012    2    1    2    0    0  0.34668854378E+02 -0.11626015852E+02  0.17778411355E+02  0.50528860575E+02  0.30000002204E+02 0.  0.
        -12    1    1    2    0    0 -0.34668854378E+02  0.11626015852E+02 -0.17778411355E+02  0.40659139425E+02  0.00000000000E+00 0.  1.
         11    1    3    3    0    0 -0.66188511334E+00 -0.19031085737E+01  0.75712196558E+01  0.78347483357E+01  0.51100000000E-03 0. -1.
        -11    1    3    3    0    0  0.88032805791E+01  0.58120379241E+01  0.96251227317E+00  0.10592637251E+02  0.51100000000E-03 0.  1.
         12    1    3    3    0    0  0.26527458912E+02 -0.15534945202E+02  0.92446794263E+01  0.32101474989E+02  0.00000000000E+00 0. -1.
</event>
<event>
 7    1  0.5041278E-013  0.5052892E+02  0.7816164E-02  0.1300439E+00
        -11   -1    0    0    0    0  0.00000000000E+00  0.00000000000E+00  0.45593999997E+02  0.45594000000E+02  0.51100000000E-03 0.  1.
         11   -1    0    0    0    0 -0.00000000000E+00 -0.00000000000E+00 -0.45593999997E+02  0.45594000000E+02  0.51100000000E-03 0. -1.
    9900012    2    1    2    0    0 -0.27636476171E+02  0.22086568453E+02 -0.20039197611E+02  0.50528920300E+02  0.30000183744E+02 0.  0.
        -12    1    1    2    0    0  0.27636476171E+02 -0.22086568453E+02  0.20039197611E+02  0.40659079700E+02  0.00000000000E+00 0.  1.
         11    1    3    3    0    0 -0.20179405096E+02  0.15128933640E+02 -0.14874090301E+02  0.29280225163E+02  0.51100000000E-03 0. -1.
        -11    1    3    3    0    0 -0.11319760409E+02  0.68541508303E+01 -0.88415709069E+01  0.15915078877E+02  0.51100000000E-03 0.  1.
        -12    1    3    3    0    0  0.38626893335E+01  0.10348398293E+00  0.36764635969E+01  0.53336162593E+01  0.00000000000E+00 0.  1.
</event>
<event>
 7    1  0.5041278E-013  0.5052885E+02  0.7816164E-02  0.1300439E+00
        -11   -1    0    0    0    0  0.00000000000E+00  0.00000000000E+00  0.45593999997E+02  0.45594000000E+02  0.51100000000E-03 0. -1.
         11   -1    0    0    0    0 -0.00000000000E+00 -0.00000000000E+00 -0.45593999997E+02  0.45594000000E+02  0.51100000000E-03 0.  1.
    9900012    2    1    2    0    0 -0.32912115544E+02  0.21337935340E+02 -0.10707535887E+02  0.50528853933E+02  0.29999982014E+02 0.  0.
        -12    1    1    2    0    0  0.32912115544E+02 -0.21337935340E+02  0.10707535887E+02  0.40659146067E+02  0.00000000000E+00 0.  1.
         11    1    3    3    0    0 -0.31244255478E+02  0.12156811726E+02 -0.19279239894E+01  0.33581370771E+02  0.51100000000E-03 0. -1.
        -11    1    3    3    0    0  0.99485429176E+00 -0.15751198831E+01  0.10470016035E+01  0.21370424252E+01  0.51100000000E-03 0.  1.
        -12    1    3    3    0    0 -0.26627143582E+01  0.10756243497E+02 -0.98266135007E+01  0.14810440737E+02  0.00000000000E+00 0.  1.
</event>
<event>
 7    1  0.5041278E-013  0.5052886E+02  0.7816164E-02  0.1300439E+00
        -11   -1    0    0    0    0  0.00000000000E+00  0.00000000000E+00  0.45593999997E+02  0.45594000000E+02  0.51100000000E-03 0. -1.
         11   -1    0    0    0    0 -0.00000000000E+00 -0.00000000000E+00 -0.45593999997E+02  0.45594000000E+02  0.51100000000E-03 0.  1.
    9900012    2    1    2    0    0  0.20180877182E+02 -0.84590568785E+01  0.34268672104E+02  0.50528864066E+02  0.30000012816E+02 0.  0.
        -12    1    1    2    0    0 -0.20180877182E+02  0.84590568785E+01 -0.34268672104E+02  0.40659135934E+02  0.00000000000E+00 0.  1.
         11    1    3    3    0    0  0.56412983347E+01 -0.91176208992E+01  0.15641542485E+02  0.18963467756E+02  0.51100000000E-03 0. -1.
        -11    1    3    3    0    0  0.94622416237E+00  0.56043878653E+01  0.15847096455E+02  0.16835527013E+02  0.51100000000E-03 0.  1.
        -12    1    3    3    0    0  0.13593354685E+02 -0.49458238447E+01  0.27800331637E+01  0.14729869297E+02  0.00000000000E+00 0.  1.
</event>
<event>
 7    1  0.5041278E-013  0.5052885E+02  0.7816164E-02  0.1300439E+00
        -11   -1    0    0    0    0  0.00000000000E+00  0.00000000000E+00  0.45593999997E+02  0.45594000000E+02  0.51100000000E-03 0. -1.
         11   -1    0    0    0    0 -0.00000000000E+00 -0.00000000000E+00 -0.45593999997E+02  0.45594000000E+02  0.51100000000E-03 0.  1.
    9900012    2    1    2    0    0  0.21060603046E+01  0.23823672223E+02  0.32881050761E+02  0.50528851615E+02  0.29999974970E+02 0.  0.
        -12    1    1    2    0    0 -0.21060603046E+01 -0.23823672223E+02 -0.32881050761E+02  0.40659148385E+02  0.00000000000E+00 0.  1.
         11    1    3    3    0    0  0.36115320904E+01  0.74956631512E+01  0.13505852992E+02  0.15863044961E+02  0.51100000000E-03 0. -1.
        -11    1    3    3    0    0 -0.54285103189E+01  0.21599239213E+01  0.19087688336E+02  0.19961809585E+02  0.51100000000E-03 0.  1.
        -12    1    3    3    0    0  0.39230385331E+01  0.14168085150E+02  0.28750943307E+00  0.14703997070E+02  0.00000000000E+00 0.  1.
</event>
<event>
 7    1  0.5041278E-013  0.5052888E+02  0.7816164E-02  0.1300439E+00
        -11   -1    0    0    0    0  0.00000000000E+00  0.00000000000E+00  0.45593999997E+02  0.45594000000E+02  0.51100000000E-03 0.  1.
         11   -1    0    0    0    0 -0.00000000000E+00 -0.00000000000E+00 -0.45593999997E+02  0.45594000000E+02  0.51100000000E-03 0. -1.
    9900012    2    1    2    0    0 -0.13090532467E+02  0.32508707099E+02  0.20615194493E+02  0.50528876528E+02  0.30000050693E+02 0.  0.
        -12    1    1    2    0    0  0.13090532467E+02 -0.32508707099E+02 -0.20615194493E+02  0.40659123472E+02  0.00000000000E+00 0.  1.
         11    1    3    3    0    0 -0.55310947505E+01  0.96202699847E+01  0.56735793760E+01  0.12463230196E+02  0.51100000000E-03 0. -1.
        -11    1    3    3    0    0  0.25797961732E+01  0.23820201187E+02  0.64632733738E+01  0.24815947208E+02  0.51100000000E-03 0.  1.
        -12    1    3    3    0    0 -0.10139233890E+02 -0.93176407175E+00  0.84783417435E+01  0.13249699124E+02  0.00000000000E+00 0.  1.
</event>
<event>
 7    1  0.5041278E-013  0.5052884E+02  0.7816164E-02  0.1300439E+00
        -11   -1    0    0    0    0  0.00000000000E+00  0.00000000000E+00  0.45593999997E+02  0.45594000000E+02  0.51100000000E-03 0. -1.
         11   -1    0    0    0    0 -0.00000000000E+00 -0.00000000000E+00 -0.45593999997E+02  0.45594000000E+02  0.51100000000E-03 0.  1.
    9900012    2    1    2    0    0  0.25043767148E+02 -0.23418833352E+02 -0.21852583964E+02  0.50528838001E+02  0.29999933589E+02 0.  0.
        -12    1    1    2    0    0 -0.25043767148E+02  0.23418833352E+02  0.21852583964E+02  0.40659161999E+02  0.00000000000E+00 0.  1.
         11    1    3    3    0    0 -0.25750786131E+01 -0.69608038339E-01 -0.30980365019E+01  0.40291072920E+01  0.51100000000E-03 0. -1.
        -11    1    3    3    0    0  0.97009142448E+01 -0.48805403610E+01 -0.17675561621E+02  0.20744948549E+02  0.51100000000E-03 0.  1.
         12    1    3    3    0    0  0.17917931516E+02 -0.18468684953E+02 -0.10789858413E+01  0.25754782161E+02  0.00000000000E+00 0. -1.
</event>
<event>
 7    1  0.5041278E-013  0.5052886E+02  0.7816164E-02  0.1300439E+00
        -11   -1    0    0    0    0  0.00000000000E+00  0.00000000000E+00  0.45593999997E+02  0.45594000000E+02  0.51100000000E-03 0. -1.
         11   -1    0    0    0    0 -0.00000000000E+00 -0.00000000000E+00 -0.45593999997E+02  0.45594000000E+02  0.51100000000E-03 0.  1.
    9900012    2    1    2    0    0  0.32846562696E+02 -0.20193853474E+02  0.12902601135E+02  0.50528861849E+02  0.30000006077E+02 0.  0.
        -12    1    1    2    0    0 -0.32846562696E+02  0.20193853474E+02 -0.12902601135E+02  0.40659138151E+02  0.00000000000E+00 0.  1.
         11    1    3    3    0    0  0.17614740036E+02 -0.12593559851E+01  0.94829231846E+01  0.20044721909E+02  0.51100000000E-03 0. -1.
        -11    1    3    3    0    0  0.29730275797E+01 -0.51618206078E+01 -0.70906992605E+01  0.92607397783E+01  0.51100000000E-03 0.  1.
         12    1    3    3    0    0  0.12258795081E+02 -0.13772676881E+02  0.10510377211E+02  0.21223400162E+02  0.00000000000E+00 0. -1.
</event>
<event>
 7    1  0.5041278E-013  0.5052886E+02  0.7816164E-02  0.1300439E+00
        -11   -1    0    0    0    0  0.00000000000E+00  0.00000000000E+00  0.45593999997E+02  0.45594000000E+02  0.51100000000E-03 0.  1.
         11   -1    0    0    0    0 -0.00000000000E+00 -0.00000000000E+00 -0.45593999997E+02  0.45594000000E+02  0.51100000000E-03 0. -1.
    9900012    2    1    2    0    0 -0.31799189869E+02 -0.15973243356E+02 -0.19668055050E+02  0.50528863646E+02  0.30000011538E+02 0.  0.
        -12    1    1    2    0    0  0.31799189869E+02  0.15973243356E+02  0.19668055050E+02  0.40659136354E+02  0.00000000000E+00 0.  1.
         11    1    3    3    0    0  0.30577832699E+01  0.36175700995E+00 -0.27216288287E+01  0.41095219189E+01  0.51100000000E-03 0. -1.
        -11    1    3    3    0    0 -0.79449523659E+01 -0.65242952977E+01  0.38966436608E+01  0.10994204351E+02  0.51100000000E-03 0.  1.
        -12    1    3    3    0    0 -0.26912020773E+02 -0.98107050681E+01 -0.20843069882E+02  0.35425137376E+02  0.00000000000E+00 0.  1.
</event>
<event>
 7    1  0.5041278E-013  0.5052886E+02  0.7816164E-02  0.1300439E+00
        -11   -1    0    0    0    0  0.00000000000E+00  0.00000000000E+00  0.45593999997E+02  0.45594000000E+02  0.51100000000E-03 0. -1.
         11   -1    0    0    0    0 -0.00000000000E+00 -0.00000000000E+00 -0.45593999997E+02  0.45594000000E+02  0.51100000000E-03 0.  1.
    9900012    2    1    2    0    0 -0.11503163973E+02  0.34818969481E+02  0.17563653693E+02  0.50528863903E+02  0.30000012320E+02 0.  0.
        -12    1    1    2    0    0  0.11503163973E+02 -0.34818969481E+02 -0.17563653693E+02  0.40659136097E+02  0.00000000000E+00 0.  1.
         11    1    3    3    0    0 -0.82407338403E+01  0.10109400821E+02  0.22251296413E+01  0.13231057455E+02  0.51100000000E-03 0. -1.
        -11    1    3    3    0    0 -0.32769575208E+01 -0.40410906404E+01  0.16766754377E+01  0.54662697465E+01  0.51100000000E-03 0.  1.
        -12    1    3    3    0    0  0.14527387936E-01  0.28750659300E+02  0.13661848614E+02  0.31831536702E+02  0.00000000000E+00 0.  1.
</event>
<event>
 7    1  0.5041278E-013  0.5052882E+02  0.7816164E-02  0.1300439E+00
        -11   -1    0    0    0    0  0.00000000000E+00  0.00000000000E+00  0.45593999997E+02  0.45594000000E+02  0.51100000000E-03 0. -1.
         11   -1    0    0    0    0 -0.00000000000E+00 -0.00000000000E+00 -0.45593999997E+02  0.45594000000E+02  0.51100000000E-03 0.  1.
    9900012    2    1    2    0    0  0.26860554410E+02  0.30523353876E+02  0.66346699167E-01  0.50528820017E+02  0.29999878922E+02 0.  0.
        -12    1    1    2    0    0 -0.26860554410E+02 -0.30523353876E+02 -0.66346699167E-01  0.40659179983E+02  0.00000000000E+00 0.  1.
         11    1    3    3    0    0  0.24315392802E+02  0.23728428639E+02  0.38256507313E+01  0.34189358821E+02  0.51100000000E-03 0. -1.
        -11    1    3    3    0    0  0.37304625739E+01 -0.13450734524E+01  0.35597137783E+01  0.53288963260E+01  0.51100000000E-03 0.  1.
         12    1    3    3    0    0 -0.11853009663E+01  0.81399986898E+01 -0.73190178105E+01  0.11010564870E+02  0.00000000000E+00 0. -1.
</event>
<event>
 7    1  0.5209505E-013  0.5052886E+02  0.7816164E-02  0.1300439E+00
        -11   -1    0    0    0    0  0.00000000000E+00  0.00000000000E+00  0.45593999997E+02  0.45594000000E+02  0.51100000000E-03 0. -1.
         11   -1    0    0    0    0 -0.00000000000E+00 -0.00000000000E+00 -0.45593999997E+02  0.45594000000E+02  0.51100000000E-03 0.  1.
    9900012    2    1    2    0    0 -0.27522166608E+02 -0.11502891773E+02  0.27629320697E+02  0.50528861591E+02  0.30000005293E+02 0.  0.
        -12    1    1    2    0    0  0.27522166608E+02  0.11502891773E+02 -0.27629320697E+02  0.40659138409E+02  0.00000000000E+00 0.  1.
         11    1    3    3    0    0 -0.13286303935E+02  0.28639147997E+01  0.10437057663E+02  0.17136512281E+02  0.51100000000E-03 0. -1.
        -11    1    3    3    0    0  0.22472593524E+01  0.35537008945E+01  0.17128304177E+01  0.45401269746E+01  0.51100000000E-03 0.  1.
         12    1    3    3    0    0 -0.16483122025E+02 -0.17920507467E+02  0.15479432616E+02  0.28852222336E+02  0.00000000000E+00 0. -1.
</event>
<event>
 7    1  0.5041278E-013  0.5052889E+02  0.7816164E-02  0.1300439E+00
        -11   -1    0    0    0    0  0.00000000000E+00  0.00000000000E+00  0.45593999997E+02  0.45594000000E+02  0.51100000000E-03 0.  1.
         11   -1    0    0    0    0 -0.00000000000E+00 -0.00000000000E+00 -0.45593999997E+02  0.45594000000E+02  0.51100000000E-03 0. -1.
    9900012    2    1    2    0    0 -0.21428695090E+02 -0.28722860288E+02 -0.19208642700E+02  0.50528885022E+02  0.30000076514E+02 0.  0.
        -12    1    1    2    0    0  0.21428695090E+02  0.28722860288E+02  0.19208642700E+02  0.40659114978E+02  0.00000000000E+00 0.  1.
         11    1    3    3    0    0 -0.57682889128E+01 -0.54185515821E+01 -0.59324213020E+01  0.98907775728E+01  0.51100000000E-03 0. -1.
        -11    1    3    3    0    0 -0.11246362380E+02 -0.15748349411E+02  0.53337750926E+01  0.20073373732E+02  0.51100000000E-03 0.  1.
         12    1    3    3    0    0 -0.44140437971E+01 -0.75559592945E+01 -0.18609996491E+02  0.20564733718E+02  0.00000000000E+00 0. -1.
</event>
<event>
 7    1  0.5041278E-013  0.5052885E+02  0.7816164E-02  0.1300439E+00
        -11   -1    0    0    0    0  0.00000000000E+00  0.00000000000E+00  0.45593999997E+02  0.45594000000E+02  0.51100000000E-03 0. -1.
         11   -1    0    0    0    0 -0.00000000000E+00 -0.00000000000E+00 -0.45593999997E+02  0.45594000000E+02  0.51100000000E-03 0.  1.
    9900012    2    1    2    0    0  0.23257664219E+02  0.18114264043E+01  0.33301142804E+02  0.50528851920E+02  0.29999975895E+02 0.  0.
        -12    1    1    2    0    0 -0.23257664219E+02 -0.18114264043E+01 -0.33301142804E+02  0.40659148080E+02  0.00000000000E+00 0.  1.
         11    1    3    3    0    0  0.32082741769E+00 -0.71025601802E+01  0.11014341708E+02  0.13109729778E+02  0.51100000000E-03 0.  1.
        -11    1    3    3    0    0  0.11259154124E+02 -0.20593027888E+01  0.17098162161E+02  0.20575627065E+02  0.51100000000E-03 0. -1.
        -12    1    3    3    0    0  0.11677682678E+02  0.10973289373E+02  0.51886389353E+01  0.16843495077E+02  0.00000000000E+00 0.  1.
</event>
<event>
 7    1  0.5041278E-013  0.5052883E+02  0.7816164E-02  0.1300439E+00
        -11   -1    0    0    0    0  0.00000000000E+00  0.00000000000E+00  0.45593999997E+02  0.45594000000E+02  0.51100000000E-03 0. -1.
         11   -1    0    0    0    0 -0.00000000000E+00 -0.00000000000E+00 -0.45593999997E+02  0.45594000000E+02  0.51100000000E-03 0.  1.
    9900012    2    1    2    0    0 -0.58449775976E+01 -0.18344447376E+02  0.35811803024E+02  0.50528834386E+02  0.29999922599E+02 0.  0.
        -12    1    1    2    0    0  0.58449775976E+01  0.18344447376E+02 -0.35811803024E+02  0.40659165614E+02  0.00000000000E+00 0.  1.
         11    1    3    3    0    0  0.30323838224E+01  0.10498277879E+01  0.24171741870E+01  0.40174894327E+01  0.51100000000E-03 0. -1.
        -11    1    3    3    0    0  0.44790736041E+01 -0.18371377034E+02  0.18035660481E+02  0.26131487591E+02  0.51100000000E-03 0.  1.
         12    1    3    3    0    0 -0.13356435024E+02 -0.10228981295E+01  0.15358968356E+02  0.20379857362E+02  0.00000000000E+00 0. -1.
</event>
<event>
 7    1  0.5041278E-013  0.5052882E+02  0.7816164E-02  0.1300439E+00
        -11   -1    0    0    0    0  0.00000000000E+00  0.00000000000E+00  0.45593999997E+02  0.45594000000E+02  0.51100000000E-03 0. -1.
         11   -1    0    0    0    0 -0.00000000000E+00 -0.00000000000E+00 -0.45593999997E+02  0.45594000000E+02  0.51100000000E-03 0.  1.
    9900012    2    1    2    0    0 -0.31341921730E+02  0.25105095040E+02 -0.63707736047E+01  0.50528823779E+02  0.29999890358E+02 0.  0.
        -12    1    1    2    0    0  0.31341921730E+02 -0.25105095040E+02  0.63707736047E+01  0.40659176221E+02  0.00000000000E+00 0.  1.
         11    1    3    3    0    0 -0.10128984118E+02  0.38177364491E+01  0.65787212997E+01  0.12666925635E+02  0.51100000000E-03 0. -1.
        -11    1    3    3    0    0 -0.15127932519E+02  0.26201641084E+01 -0.91212004511E+01  0.17858216601E+02  0.51100000000E-03 0.  1.
         12    1    3    3    0    0 -0.60850050932E+01  0.18667194482E+02 -0.38282944534E+01  0.20003681542E+02  0.00000000000E+00 0. -1.
</event>
<event>
 7    1  0.5041278E-013  0.5052886E+02  0.7816164E-02  0.1300439E+00
        -11   -1    0    0    0    0  0.00000000000E+00  0.00000000000E+00  0.45593999997E+02  0.45594000000E+02  0.51100000000E-03 0. -1.
         11   -1    0    0    0    0 -0.00000000000E+00 -0.00000000000E+00 -0.45593999997E+02  0.45594000000E+02  0.51100000000E-03 0.  1.
    9900012    2    1    2    0    0 -0.36228419663E+02 -0.84317048814E+01  0.16418691954E+02  0.50528862233E+02  0.30000007243E+02 0.  0.
        -12    1    1    2    0    0  0.36228419663E+02  0.84317048814E+01 -0.16418691954E+02  0.40659137767E+02  0.00000000000E+00 0.  1.
         11    1    3    3    0    0 -0.22931731384E+02 -0.13336898710E+02  0.13020694965E+02  0.29551238030E+02  0.51100000000E-03 0. -1.
        -11    1    3    3    0    0  0.78504195352E+00 -0.33722987836E+01  0.30893271664E+01  0.46403267726E+01  0.51100000000E-03 0.  1.
        -12    1    3    3    0    0 -0.14081730232E+02  0.82774926119E+01  0.30866982286E+00  0.16337297431E+02  0.00000000000E+00 0.  1.
</event>
<event>
 7    1  0.6797210E-013  0.5052886E+02  0.7816164E-02  0.1300439E+00
        -11   -1    0    0    0    0  0.00000000000E+00  0.00000000000E+00  0.45593999997E+02  0.45594000000E+02  0.51100000000E-03 0. -1.
         11   -1    0    0    0    0 -0.00000000000E+00 -0.00000000000E+00 -0.45593999997E+02  0.45594000000E+02  0.51100000000E-03 0.  1.
    9900012    2    1    2    0    0  0.85753766354E+01  0.19213718128E+02  0.34791686235E+02  0.50528862284E+02  0.30000007398E+02 0.  0.
        -12    1    1    2    0    0 -0.85753766354E+01 -0.19213718128E+02 -0.34791686235E+02  0.40659137716E+02  0.00000000000E+00 0.  1.
         11    1    3    3    0    0 -0.43244154890E+01  0.56502874453E+01  0.32970616830E+01  0.78419980578E+01  0.51100000000E-03 0. -1.
        -11    1    3    3    0    0  0.27413671563E+01 -0.13027641873E+01 -0.26865210393E+01  0.40533546562E+01  0.51100000000E-03 0.  1.
         12    1    3    3    0    0  0.10158424968E+02  0.14866194870E+02  0.34181145591E+02  0.38633509570E+02  0.00000000000E+00 0. -1.
</event>
<event>
 7    1  0.5041278E-013  0.5052882E+02  0.7816164E-02  0.1300439E+00
        -11   -1    0    0    0    0  0.00000000000E+00  0.00000000000E+00  0.45593999997E+02  0.45594000000E+02  0.51100000000E-03 0.  1.
         11   -1    0    0    0    0 -0.00000000000E+00 -0.00000000000E+00 -0.45593999997E+02  0.45594000000E+02  0.51100000000E-03 0. -1.
    9900012    2    1    2    0    0  0.76563943691E+01  0.18056022745E+02 -0.35616411641E+02  0.50528817638E+02  0.29999871693E+02 0.  0.
        -12    1    1    2    0    0 -0.76563943691E+01 -0.18056022745E+02  0.35616411641E+02  0.40659182362E+02  0.00000000000E+00 0.  1.
         11    1    3    3    0    0 -0.39529207533E+01  0.12602582558E+02 -0.13937815137E+02  0.19201910339E+02  0.51100000000E-03 0. -1.
        -11    1    3    3    0    0 -0.26279514119E+01  0.17352317370E+01  0.17932805680E+01  0.36239499529E+01  0.51100000000E-03 0.  1.
        -12    1    3    3    0    0  0.14237266534E+02  0.37182084504E+01 -0.23471877073E+02  0.27702957347E+02  0.00000000000E+00 0.  1.
</event>
<event>
 7    1  0.5041278E-013  0.5052887E+02  0.7816164E-02  0.1300439E+00
        -11   -1    0    0    0    0  0.00000000000E+00  0.00000000000E+00  0.45593999997E+02  0.45594000000E+02  0.51100000000E-03 0.  1.
         11   -1    0    0    0    0 -0.00000000000E+00 -0.00000000000E+00 -0.45593999997E+02  0.45594000000E+02  0.51100000000E-03 0. -1.
    9900012    2    1    2    0    0 -0.21856513603E+01 -0.38251143579E+02  0.13610195626E+02  0.50528874555E+02  0.30000044698E+02 0.  0.
        -12    1    1    2    0    0  0.21856513603E+01  0.38251143579E+02 -0.13610195626E+02  0.40659125445E+02  0.00000000000E+00 0.  1.
         11    1    3    3    0    0 -0.82252696734E+01 -0.94507379280E+01 -0.30752766411E+01  0.12900730028E+02  0.51100000000E-03 0. -1.
        -11    1    3    3    0    0 -0.52614150221E+01 -0.10222496010E+02  0.88705904748E+01  0.14521339069E+02  0.51100000000E-03 0.  1.
         12    1    3    3    0    0  0.11301033335E+02 -0.18577909641E+02  0.78148817920E+01  0.23106805458E+02  0.00000000000E+00 0. -1.
</event>
<event>
 7    1  0.5041278E-013  0.5052883E+02  0.7816164E-02  0.1300439E+00
        -11   -1    0    0    0    0  0.00000000000E+00  0.00000000000E+00  0.45593999997E+02  0.45594000000E+02  0.51100000000E-03 0.  1.
         11   -1    0    0    0    0 -0.00000000000E+00 -0.00000000000E+00 -0.45593999997E+02  0.45594000000E+02  0.51100000000E-03 0. -1.
    9900012    2    1    2    0    0  0.39826035672E+02 -0.12997693278E+01  0.80848885919E+01  0.50528832016E+02  0.29999915395E+02 0.  0.
        -12    1    1    2    0    0 -0.39826035672E+02  0.12997693278E+01 -0.80848885919E+01  0.40659167984E+02  0.00000000000E+00 0.  1.
         11    1    3    3    0    0  0.18083800146E+02  0.88689790306E+01  0.81323898350E+01  0.21721380745E+02  0.51100000000E-03 0. -1.
        -11    1    3    3    0    0  0.23589736896E+02 -0.75431881581E+01  0.22369060536E+01  0.24867229910E+02  0.51100000000E-03 0.  1.
        -12    1    3    3    0    0 -0.18475013706E+01 -0.26255602003E+01 -0.22844072967E+01  0.39402213614E+01  0.00000000000E+00 0.  1.
</event>
<event>
 7    1  0.5041278E-013  0.5052887E+02  0.7816164E-02  0.1300439E+00
        -11   -1    0    0    0    0  0.00000000000E+00  0.00000000000E+00  0.45593999997E+02  0.45594000000E+02  0.51100000000E-03 0.  1.
         11   -1    0    0    0    0 -0.00000000000E+00 -0.00000000000E+00 -0.45593999997E+02  0.45594000000E+02  0.51100000000E-03 0. -1.
    9900012    2    1    2    0    0 -0.50907821537E+01 -0.14711242009E+02 -0.37560991017E+02  0.50528871252E+02  0.30000034658E+02 0.  0.
        -12    1    1    2    0    0  0.50907821537E+01  0.14711242009E+02  0.37560991017E+02  0.40659128748E+02  0.00000000000E+00 0.  1.
         11    1    3    3    0    0 -0.34506515902E+01  0.37365306619E+01 -0.58381612980E+01  0.77429184024E+01  0.51100000000E-03 0. -1.
        -11    1    3    3    0    0 -0.61619031253E+01 -0.50815676595E+01  0.86540955827E-01  0.79874194582E+01  0.51100000000E-03 0.  1.
         12    1    3    3    0    0  0.45217725617E+01 -0.13366205011E+02 -0.31809370674E+02  0.34798533392E+02  0.00000000000E+00 0. -1.
</event>
<event>
 7    1  0.5041278E-013  0.5052886E+02  0.7816164E-02  0.1300439E+00
        -11   -1    0    0    0    0  0.00000000000E+00  0.00000000000E+00  0.45593999997E+02  0.45594000000E+02  0.51100000000E-03 0.  1.
         11   -1    0    0    0    0 -0.00000000000E+00 -0.00000000000E+00 -0.45593999997E+02  0.45594000000E+02  0.51100000000E-03 0. -1.
    9900012    2    1    2    0    0 -0.11793485444E+02 -0.34012274472E+02 -0.18900912792E+02  0.50528860584E+02  0.30000002230E+02 0.  0.
        -12    1    1    2    0    0  0.11793485444E+02  0.34012274472E+02  0.18900912792E+02  0.40659139416E+02  0.00000000000E+00 0.  1.
         11    1    3    3    0    0 -0.14840024850E+02 -0.10352020146E+02 -0.11790259779E+02  0.21596316458E+02  0.51100000000E-03 0. -1.
        -11    1    3    3    0    0 -0.25076867344E+01 -0.21267883253E+02 -0.30097466557E+01  0.21625677470E+02  0.51100000000E-03 0.  1.
        -12    1    3    3    0    0  0.55542261402E+01 -0.23923710732E+01 -0.41009063574E+01  0.73068666554E+01  0.00000000000E+00 0.  1.
</event>
<event>
 7    1  0.5041278E-013  0.5052888E+02  0.7816164E-02  0.1300439E+00
        -11   -1    0    0    0    0  0.00000000000E+00  0.00000000000E+00  0.45593999997E+02  0.45594000000E+02  0.51100000000E-03 0. -1.
         11   -1    0    0    0    0 -0.00000000000E+00 -0.00000000000E+00 -0.45593999997E+02  0.45594000000E+02  0.51100000000E-03 0.  1.
    9900012    2    1    2    0    0  0.18450122990E+01  0.10747855281E+01  0.40603016539E+02  0.50528878190E+02  0.30000055746E+02 0.  0.
        -12    1    1    2    0    0 -0.18450122990E+01 -0.10747855281E+01 -0.40603016539E+02  0.40659121810E+02  0.00000000000E+00 0.  1.
         11    1    3    3    0    0 -0.22995342064E+01 -0.56167347795E+01  0.14759337016E+01  0.62461146084E+01  0.51100000000E-03 0. -1.
        -11    1    3    3    0    0  0.76752009830E+01 -0.41188419830E+01  0.11658857062E+02  0.14553436627E+02  0.51100000000E-03 0.  1.
         12    1    3    3    0    0 -0.35306544777E+01  0.10810362291E+02  0.27468225775E+02  0.29729326954E+02  0.00000000000E+00 0. -1.
</event>
<event>
 7    1  0.5041278E-013  0.5052886E+02  0.7816164E-02  0.1300439E+00
        -11   -1    0    0    0    0  0.00000000000E+00  0.00000000000E+00  0.45593999997E+02  0.45594000000E+02  0.51100000000E-03 0.  1.
         11   -1    0    0    0    0 -0.00000000000E+00 -0.00000000000E+00 -0.45593999997E+02  0.45594000000E+02  0.51100000000E-03 0. -1.
    9900012    2    1    2    0    0  0.25086222262E+02 -0.64428228743E+01 -0.31342256143E+02  0.50528861617E+02  0.30000005370E+02 0.  0.
        -12    1    1    2    0    0 -0.25086222262E+02  0.64428228743E+01  0.31342256143E+02  0.40659138383E+02  0.00000000000E+00 0.  1.
         11    1    3    3    0    0  0.20748339799E+02 -0.94635508352E+01 -0.11747774578E+02  0.25652730977E+02  0.51100000000E-03 0. -1.
        -11    1    3    3    0    0  0.42236453957E+01  0.40909724022E+01 -0.66667209185E+00  0.59177434520E+01  0.51100000000E-03 0.  1.
         12    1    3    3    0    0  0.11423706713E+00 -0.10702444413E+01 -0.18927809473E+02  0.18958387187E+02  0.00000000000E+00 0. -1.
</event>
<event>
 7    1  0.5041278E-013  0.5052884E+02  0.7816164E-02  0.1300439E+00
        -11   -1    0    0    0    0  0.00000000000E+00  0.00000000000E+00  0.45593999997E+02  0.45594000000E+02  0.51100000000E-03 0.  1.
         11   -1    0    0    0    0 -0.00000000000E+00 -0.00000000000E+00 -0.45593999997E+02  0.45594000000E+02  0.51100000000E-03 0. -1.
    9900012    2    1    2    0    0 -0.37657605976E+02  0.66786834098E+01  0.13800990010E+02  0.50528838361E+02  0.29999934681E+02 0.  0.
        -12    1    1    2    0    0  0.37657605976E+02 -0.66786834098E+01 -0.13800990010E+02  0.40659161639E+02  0.00000000000E+00 0.  1.
         11    1    3    3    0    0 -0.18604300213E+02 -0.14206424746E+01  0.70129711629E+01  0.19932886802E+02  0.51100000000E-03 0.  1.
        -11    1    3    3    0    0 -0.11561269283E+02 -0.17781715706E+01 -0.56887394713E+01  0.13007174889E+02  0.51100000000E-03 0. -1.
        -12    1    3    3    0    0 -0.74920364808E+01  0.98774974549E+01  0.12476758319E+02  0.17588776670E+02  0.00000000000E+00 0.  1.
</event>
<event>
 7    1  0.5041278E-013  0.5052886E+02  0.7816164E-02  0.1300439E+00
        -11   -1    0    0    0    0  0.00000000000E+00  0.00000000000E+00  0.45593999997E+02  0.45594000000E+02  0.51100000000E-03 0.  1.
         11   -1    0    0    0    0 -0.00000000000E+00 -0.00000000000E+00 -0.45593999997E+02  0.45594000000E+02  0.51100000000E-03 0. -1.
    9900012    2    1    2    0    0 -0.29568629461E+02 -0.19187443569E+01 -0.27842055975E+02  0.50528861925E+02  0.30000006306E+02 0.  0.
        -12    1    1    2    0    0  0.29568629461E+02  0.19187443569E+01  0.27842055975E+02  0.40659138075E+02  0.00000000000E+00 0.  1.
         11    1    3    3    0    0 -0.29072348185E+01 -0.50342959126E+01 -0.17639083023E+02  0.18572382717E+02  0.51100000000E-03 0. -1.
        -11    1    3    3    0    0 -0.21405421712E+00  0.38055780991E+01 -0.16335642966E+01  0.41468996188E+01  0.51100000000E-03 0.  1.
         12    1    3    3    0    0 -0.26447340426E+02 -0.69002654345E+00 -0.85694086549E+01  0.27809579589E+02  0.00000000000E+00 0. -1.
</event>
<event>
 7    1  0.5041278E-013  0.5052886E+02  0.7816164E-02  0.1300439E+00
        -11   -1    0    0    0    0  0.00000000000E+00  0.00000000000E+00  0.45593999997E+02  0.45594000000E+02  0.51100000000E-03 0. -1.
         11   -1    0    0    0    0 -0.00000000000E+00 -0.00000000000E+00 -0.45593999997E+02  0.45594000000E+02  0.51100000000E-03 0.  1.
    9900012    2    1    2    0    0  0.30353320230E+02 -0.26509521573E+02 -0.53932554940E+01  0.50528856037E+02  0.29999988410E+02 0.  0.
        -12    1    1    2    0    0 -0.30353320230E+02  0.26509521573E+02  0.53932554940E+01  0.40659143963E+02  0.00000000000E+00 0.  1.
         11    1    3    3    0    0 -0.13837570851E+01 -0.14035337035E+02 -0.14519323486E+01  0.14177925701E+02  0.51100000000E-03 0.  1.
        -11    1    3    3    0    0  0.10888428945E+02 -0.10473367648E+02 -0.28773868938E+01  0.15379488625E+02  0.51100000000E-03 0. -1.
        -12    1    3    3    0    0  0.20848648370E+02 -0.20008168895E+01 -0.10639362517E+01  0.20971441711E+02  0.00000000000E+00 0.  1.
</event>
<event>
 7    1  0.5041278E-013  0.5052888E+02  0.7816164E-02  0.1300439E+00
        -11   -1    0    0    0    0  0.00000000000E+00  0.00000000000E+00  0.45593999997E+02  0.45594000000E+02  0.51100000000E-03 0.  1.
         11   -1    0    0    0    0 -0.00000000000E+00 -0.00000000000E+00 -0.45593999997E+02  0.45594000000E+02  0.51100000000E-03 0. -1.
    9900012    2    1    2    0    0  0.17336015730E+02 -0.34663866558E+01 -0.36614347324E+02  0.50528884075E+02  0.30000073633E+02 0.  0.
        -12    1    1    2    0    0 -0.17336015730E+02  0.34663866558E+01  0.36614347324E+02  0.40659115925E+02  0.00000000000E+00 0.  1.
         11    1    3    3    0    0  0.57146782146E+01  0.42920439846E+01  0.29526352437E+00  0.71530671374E+01  0.51100000000E-03 0. -1.
        -11    1    3    3    0    0  0.84179793731E+01  0.14354003162E+01 -0.47433358694E+01  0.97684177953E+01  0.51100000000E-03 0.  1.
         12    1    3    3    0    0  0.32033581424E+01 -0.91938309566E+01 -0.32166274979E+02  0.33607399142E+02  0.00000000000E+00 0. -1.
</event>
<event>
 7    1  0.5041278E-013  0.5052887E+02  0.7816164E-02  0.1300439E+00
        -11   -1    0    0    0    0  0.00000000000E+00  0.00000000000E+00  0.45593999997E+02  0.45594000000E+02  0.51100000000E-03 0.  1.
         11   -1    0    0    0    0 -0.00000000000E+00 -0.00000000000E+00 -0.45593999997E+02  0.45594000000E+02  0.51100000000E-03 0. -1.
    9900012    2    1    2    0    0 -0.37615323207E+02  0.30779171119E+01 -0.15125442687E+02  0.50528866584E+02  0.30000020468E+02 0.  0.
        -12    1    1    2    0    0  0.37615323207E+02 -0.30779171119E+01  0.15125442687E+02  0.40659133416E+02  0.00000000000E+00 0.  1.
         11    1    3    3    0    0 -0.26511873691E+02  0.59395272456E+01 -0.34266808718E+01  0.27384294268E+02  0.51100000000E-03 0. -1.
        -11    1    3    3    0    0 -0.16091599489E+01  0.63261080902E+01 -0.22612916815E+01  0.69081458901E+01  0.51100000000E-03 0.  1.
        -12    1    3    3    0    0 -0.94942895666E+01 -0.91877182240E+01 -0.94374701335E+01  0.16236426425E+02  0.00000000000E+00 0.  1.
</event>
<event>
 7    1  0.5041278E-013  0.5052886E+02  0.7816164E-02  0.1300439E+00
        -11   -1    0    0    0    0  0.00000000000E+00  0.00000000000E+00  0.45593999997E+02  0.45594000000E+02  0.51100000000E-03 0.  1.
         11   -1    0    0    0    0 -0.00000000000E+00 -0.00000000000E+00 -0.45593999997E+02  0.45594000000E+02  0.51100000000E-03 0. -1.
    9900012    2    1    2    0    0  0.17970061881E+02  0.19764643206E+02 -0.30652920118E+02  0.50528858877E+02  0.29999997043E+02 0.  0.
        -12    1    1    2    0    0 -0.17970061881E+02 -0.19764643206E+02  0.30652920118E+02  0.40659141123E+02  0.00000000000E+00 0.  1.
         11    1    3    3    0    0  0.45934158425E+01  0.27903889279E+01 -0.98909617426E+01  0.11256858528E+02  0.51100000000E-03 0. -1.
        -11    1    3    3    0    0  0.16019676839E+02  0.22115237042E+02 -0.15214286742E+02  0.31260010825E+02  0.51100000000E-03 0.  1.
        -12    1    3    3    0    0 -0.26430308005E+01 -0.51409827632E+01 -0.55476716337E+01  0.80119895244E+01  0.00000000000E+00 0.  1.
</event>
<event>
 7    1  0.5041278E-013  0.5052886E+02  0.7816164E-02  0.1300439E+00
        -11   -1    0    0    0    0  0.00000000000E+00  0.00000000000E+00  0.45593999997E+02  0.45594000000E+02  0.51100000000E-03 0.  1.
         11   -1    0    0    0    0 -0.00000000000E+00 -0.00000000000E+00 -0.45593999997E+02  0.45594000000E+02  0.51100000000E-03 0. -1.
    9900012    2    1    2    0    0  0.14721471441E+02 -0.22371479327E+02 -0.30593482561E+02  0.50528856085E+02  0.29999988556E+02 0.  0.
        -12    1    1    2    0    0 -0.14721471441E+02  0.22371479327E+02  0.30593482561E+02  0.40659143915E+02  0.00000000000E+00 0.  1.
         11    1    3    3    0    0  0.71040885816E+00 -0.12898864531E+02 -0.61803029556E+00  0.12933187876E+02  0.51100000000E-03 0.  1.
        -11    1    3    3    0    0  0.51500244560E+01  0.17962898172E+01 -0.14080023682E+01  0.56331057096E+01  0.51100000000E-03 0. -1.
        -12    1    3    3    0    0  0.88610381269E+01 -0.11268904613E+02 -0.28567449897E+02  0.31962562499E+02  0.00000000000E+00 0.  1.
</event>
<event>
 7    1  0.5041278E-013  0.5052886E+02  0.7816164E-02  0.1300439E+00
        -11   -1    0    0    0    0  0.00000000000E+00  0.00000000000E+00  0.45593999997E+02  0.45594000000E+02  0.51100000000E-03 0.  1.
         11   -1    0    0    0    0 -0.00000000000E+00 -0.00000000000E+00 -0.45593999997E+02  0.45594000000E+02  0.51100000000E-03 0. -1.
    9900012    2    1    2    0    0 -0.26715459257E+02 -0.18142543204E+02 -0.24704218925E+02  0.50528855027E+02  0.29999985340E+02 0.  0.
        -12    1    1    2    0    0  0.26715459257E+02  0.18142543204E+02  0.24704218925E+02  0.40659144973E+02  0.00000000000E+00 0.  1.
         11    1    3    3    0    0 -0.11129257412E+02  0.60823141323E+00  0.21874057427E+01  0.11358479658E+02  0.51100000000E-03 0. -1.
        -11    1    3    3    0    0  0.18314141179E+01 -0.42781365500E+00 -0.62697546828E+01  0.65457563534E+01  0.51100000000E-03 0.  1.
         12    1    3    3    0    0 -0.17417615963E+02 -0.18322960962E+02 -0.20621869985E+02  0.32624619016E+02  0.00000000000E+00 0. -1.
</event>
<event>
 7    1  0.5041278E-013  0.5052891E+02  0.7816164E-02  0.1300439E+00
        -11   -1    0    0    0    0  0.00000000000E+00  0.00000000000E+00  0.45593999997E+02  0.45594000000E+02  0.51100000000E-03 0.  1.
         11   -1    0    0    0    0 -0.00000000000E+00 -0.00000000000E+00 -0.45593999997E+02  0.45594000000E+02  0.51100000000E-03 0. -1.
    9900012    2    1    2    0    0 -0.17732601675E+02 -0.36534250086E+02 -0.19912828026E+01  0.50528907552E+02  0.30000144996E+02 0.  0.
        -12    1    1    2    0    0  0.17732601675E+02  0.36534250086E+02  0.19912828026E+01  0.40659092448E+02  0.00000000000E+00 0.  1.
         11    1    3    3    0    0 -0.13219373404E+02 -0.72220986907E+01 -0.54129025510E-01  0.15063647397E+02  0.51100000000E-03 0. -1.
        -11    1    3    3    0    0 -0.14548136042E+01 -0.10792057992E+02  0.86566367280E+01  0.13911231363E+02  0.51100000000E-03 0.  1.
         12    1    3    3    0    0 -0.30584146667E+01 -0.18520093403E+02 -0.10593790505E+02  0.21554028793E+02  0.00000000000E+00 0. -1.
</event>
<event>
 7    1  0.5041278E-013  0.5052886E+02  0.7816164E-02  0.1300439E+00
        -11   -1    0    0    0    0  0.00000000000E+00  0.00000000000E+00  0.45593999997E+02  0.45594000000E+02  0.51100000000E-03 0. -1.
         11   -1    0    0    0    0 -0.00000000000E+00 -0.00000000000E+00 -0.45593999997E+02  0.45594000000E+02  0.51100000000E-03 0.  1.
    9900012    2    1    2    0    0  0.82752186062E+01 -0.27081202579E+02 -0.29176955224E+02  0.50528862131E+02  0.30000006932E+02 0.  0.
        -12    1    1    2    0    0 -0.82752186062E+01  0.27081202579E+02  0.29176955224E+02  0.40659137869E+02  0.00000000000E+00 0.  1.
         11    1    3    3    0    0  0.16625014023E+02 -0.17673295152E+02 -0.14641417896E+02  0.28339152617E+02  0.51100000000E-03 0. -1.
        -11    1    3    3    0    0  0.13733567042E+01 -0.21902923753E+01 -0.80460611670E+01  0.84511886673E+01  0.51100000000E-03 0.  1.
         12    1    3    3    0    0 -0.97231521206E+01 -0.72176150520E+01 -0.64894761613E+01  0.13738520846E+02  0.00000000000E+00 0. -1.
</event>
<event>
 7    1  0.5041278E-013  0.5052885E+02  0.7816164E-02  0.1300439E+00
        -11   -1    0    0    0    0  0.00000000000E+00  0.00000000000E+00  0.45593999997E+02  0.45594000000E+02  0.51100000000E-03 0.  1.
         11   -1    0    0    0    0 -0.00000000000E+00 -0.00000000000E+00 -0.45593999997E+02  0.45594000000E+02  0.51100000000E-03 0. -1.
    9900012    2    1    2    0    0  0.28348972087E+02  0.15099318498E+02  0.24930151845E+02  0.50528854553E+02  0.29999983898E+02 0.  0.
        -12    1    1    2    0    0 -0.28348972087E+02 -0.15099318498E+02 -0.24930151845E+02  0.40659145447E+02  0.00000000000E+00 0.  1.
         11    1    3    3    0    0  0.48081923235E+01 -0.39797278139E+01 -0.33794439624E+01  0.70977171434E+01  0.51100000000E-03 0. -1.
        -11    1    3    3    0    0 -0.12550128370E+01  0.30734292972E+01  0.18879110799E+01  0.38190618446E+01  0.51100000000E-03 0.  1.
         12    1    3    3    0    0  0.24795792600E+02  0.16005617015E+02  0.26421684727E+02  0.39612075565E+02  0.00000000000E+00 0. -1.
</event>
<event>
 7    1  0.5041278E-013  0.5052886E+02  0.7816164E-02  0.1300439E+00
        -11   -1    0    0    0    0  0.00000000000E+00  0.00000000000E+00  0.45593999997E+02  0.45594000000E+02  0.51100000000E-03 0.  1.
         11   -1    0    0    0    0 -0.00000000000E+00 -0.00000000000E+00 -0.45593999997E+02  0.45594000000E+02  0.51100000000E-03 0. -1.
    9900012    2    1    2    0    0  0.19410261679E+02 -0.27939359511E+02 -0.22266559214E+02  0.50528859237E+02  0.29999998137E+02 0.  0.
        -12    1    1    2    0    0 -0.19410261679E+02  0.27939359511E+02  0.22266559214E+02  0.40659140763E+02  0.00000000000E+00 0.  1.
         11    1    3    3    0    0  0.53625200287E+01 -0.68900426022E+01 -0.14191109242E+02  0.16661839332E+02  0.51100000000E-03 0. -1.
        -11    1    3    3    0    0 -0.48675145495E+01 -0.10107804450E+01  0.52779074136E+00  0.49992937827E+01  0.51100000000E-03 0.  1.
        -12    1    3    3    0    0  0.18915256200E+02 -0.20038536464E+02 -0.86032407127E+01  0.28867726123E+02  0.00000000000E+00 0.  1.
</event>
<event>
 7    1  0.5041278E-013  0.5052889E+02  0.7816164E-02  0.1300439E+00
        -11   -1    0    0    0    0  0.00000000000E+00  0.00000000000E+00  0.45593999997E+02  0.45594000000E+02  0.51100000000E-03 0.  1.
         11   -1    0    0    0    0 -0.00000000000E+00 -0.00000000000E+00 -0.45593999997E+02  0.45594000000E+02  0.51100000000E-03 0. -1.
    9900012    2    1    2    0    0 -0.23426006083E+02 -0.30935058193E+02 -0.12141154530E+02  0.50528890077E+02  0.30000091877E+02 0.  0.
        -12    1    1    2    0    0  0.23426006083E+02  0.30935058193E+02  0.12141154530E+02  0.40659109923E+02  0.00000000000E+00 0.  1.
         11    1    3    3    0    0 -0.14803691022E+01 -0.64431230043E+01  0.45500492239E+01  0.80254766169E+01  0.51100000000E-03 0.  1.
        -11    1    3    3    0    0 -0.94340926638E+01  0.14168354008E+01 -0.64953861161E+00  0.95619782269E+01  0.51100000000E-03 0. -1.
         12    1    3    3    0    0 -0.12511544317E+02 -0.25908770590E+02 -0.16041665142E+02  0.32941435233E+02  0.00000000000E+00 0. -1.
</event>
<event>
 7    1  0.5041278E-013  0.5052886E+02  0.7816164E-02  0.1300439E+00
        -11   -1    0    0    0    0  0.00000000000E+00  0.00000000000E+00  0.45593999997E+02  0.45594000000E+02  0.51100000000E-03 0.  1.
         11   -1    0    0    0    0 -0.00000000000E+00 -0.00000000000E+00 -0.45593999997E+02  0.45594000000E+02  0.51100000000E-03 0. -1.
    9900012    2    1    2    0    0 -0.52299761594E+01 -0.12825505559E+02 -0.38227210143E+02  0.50528857870E+02  0.29999993981E+02 0.  0.
        -12    1    1    2    0    0  0.52299761594E+01  0.12825505559E+02  0.38227210143E+02  0.40659142130E+02  0.00000000000E+00 0.  1.
         11    1    3    3    0    0 -0.28146506342E+01  0.23561376986E+01 -0.25064749986E+02  0.25332100883E+02  0.51100000000E-03 0. -1.
        -11    1    3    3    0    0 -0.31515595127E+01 -0.72536541192E+01 -0.15061193448E+02  0.17011389531E+02  0.51100000000E-03 0.  1.
        -12    1    3    3    0    0  0.73623398752E+00 -0.79279891388E+01  0.18987332913E+01  0.81853674554E+01  0.00000000000E+00 0.  1.
</event>
<event>
 7    1  0.5041278E-013  0.5052888E+02  0.7816164E-02  0.1300439E+00
        -11   -1    0    0    0    0  0.00000000000E+00  0.00000000000E+00  0.45593999997E+02  0.45594000000E+02  0.51100000000E-03 0. -1.
         11   -1    0    0    0    0 -0.00000000000E+00 -0.00000000000E+00 -0.45593999997E+02  0.45594000000E+02  0.51100000000E-03 0.  1.
    9900012    2    1    2    0    0 -0.39988477092E+02 -0.46734266203E+01  0.56784562313E+01  0.50528879477E+02  0.30000059658E+02 0.  0.
        -12    1    1    2    0    0  0.39988477092E+02  0.46734266203E+01 -0.56784562313E+01  0.40659120523E+02  0.00000000000E+00 0.  1.
         11    1    3    3    0    0 -0.59207501832E+01 -0.83354709606E+01  0.49982984809E+01  0.11380612762E+02  0.51100000000E-03 0. -1.
        -11    1    3    3    0    0 -0.19224708634E+02 -0.58986104783E+01  0.54975586967E+01  0.20847210353E+02  0.51100000000E-03 0.  1.
        -12    1    3    3    0    0 -0.14843018275E+02  0.95606548187E+01 -0.48174009463E+01  0.18301056362E+02  0.00000000000E+00 0.  1.
</event>
<event>
 7    1  0.5041278E-013  0.5052886E+02  0.7816164E-02  0.1300439E+00
        -11   -1    0    0    0    0  0.00000000000E+00  0.00000000000E+00  0.45593999997E+02  0.45594000000E+02  0.51100000000E-03 0. -1.
         11   -1    0    0    0    0 -0.00000000000E+00 -0.00000000000E+00 -0.45593999997E+02  0.45594000000E+02  0.51100000000E-03 0.  1.
    9900012    2    1    2    0    0  0.34342950164E+02  0.49066955772E+01  0.21204991783E+02  0.50528861249E+02  0.30000004252E+02 0.  0.
        -12    1    1    2    0    0 -0.34342950164E+02 -0.49066955772E+01 -0.21204991783E+02  0.40659138751E+02  0.00000000000E+00 0.  1.
         11    1    3    3    0    0 -0.16479187600E+01 -0.27754468901E+01 -0.30833040579E-01  0.32279548660E+01  0.51100000000E-03 0. -1.
        -11    1    3    3    0    0  0.45342192321E+01  0.97372077279E+01  0.55489927944E+01  0.12089817190E+02  0.51100000000E-03 0.  1.
        -12    1    3    3    0    0  0.31456649692E+02 -0.20550652607E+01  0.15686832029E+02  0.35211089193E+02  0.00000000000E+00 0.  1.
</event>
<event>
 7    1  0.5041278E-013  0.5052885E+02  0.7816164E-02  0.1300439E+00
        -11   -1    0    0    0    0  0.00000000000E+00  0.00000000000E+00  0.45593999997E+02  0.45594000000E+02  0.51100000000E-03 0.  1.
         11   -1    0    0    0    0 -0.00000000000E+00 -0.00000000000E+00 -0.45593999997E+02  0.45594000000E+02  0.51100000000E-03 0. -1.
    9900012    2    1    2    0    0  0.15248947384E+02 -0.16695169897E+02 -0.33792115828E+02  0.50528853595E+02  0.29999980988E+02 0.  0.
        -12    1    1    2    0    0 -0.15248947384E+02  0.16695169897E+02  0.33792115828E+02  0.40659146405E+02  0.00000000000E+00 0.  1.
         11    1    3    3    0    0  0.67519558239E+01 -0.17137499016E+02 -0.22547679791E+02  0.29114955679E+02  0.51100000000E-03 0. -1.
        -11    1    3    3    0    0 -0.41102082449E+01 -0.30224104563E+01 -0.38646209776E+01  0.64003181440E+01  0.51100000000E-03 0.  1.
        -12    1    3    3    0    0  0.12607199805E+02  0.34647395754E+01 -0.73798150592E+01  0.15013579772E+02  0.00000000000E+00 0.  1.
</event>
<event>
 7    1  0.5041278E-013  0.5052886E+02  0.7816164E-02  0.1300439E+00
        -11   -1    0    0    0    0  0.00000000000E+00  0.00000000000E+00  0.45593999997E+02  0.45594000000E+02  0.51100000000E-03 0. -1.
         11   -1    0    0    0    0 -0.00000000000E+00 -0.00000000000E+00 -0.45593999997E+02  0.45594000000E+02  0.51100000000E-03 0.  1.
    9900012    2    1    2    0    0 -0.21566748702E+02 -0.55596108044E+00  0.34463485438E+02  0.50528861164E+02  0.30000003994E+02 0.  0.
        -12    1    1    2    0    0  0.21566748702E+02  0.55596108044E+00 -0.34463485438E+02  0.40659138836E+02  0.00000000000E+00 0.  1.
         11    1    3    3    0    0  0.26260487407E+01 -0.49063742018E+01  0.83951972852E+01  0.10072138676E+02  0.51100000000E-03 0.  1.
        -11    1    3    3    0    0 -0.84676006975E+01 -0.37133623376E+01  0.19540232261E+02  0.21617354105E+02  0.51100000000E-03 0. -1.
        -12    1    3    3    0    0 -0.15725196745E+02  0.80637754590E+01  0.65280558924E+01  0.18839368383E+02  0.00000000000E+00 0.  1.
</event>
<event>
 7    1  0.5041278E-013  0.5052886E+02  0.7816164E-02  0.1300439E+00
        -11   -1    0    0    0    0  0.00000000000E+00  0.00000000000E+00  0.45593999997E+02  0.45594000000E+02  0.51100000000E-03 0.  1.
         11   -1    0    0    0    0 -0.00000000000E+00 -0.00000000000E+00 -0.45593999997E+02  0.45594000000E+02  0.51100000000E-03 0. -1.
    9900012    2    1    2    0    0 -0.17591537531E+02  0.33881359114E+01 -0.36499640092E+02  0.50528863456E+02  0.30000010959E+02 0.  0.
        -12    1    1    2    0    0  0.17591537531E+02 -0.33881359114E+01  0.36499640092E+02  0.40659136544E+02  0.00000000000E+00 0.  1.
         11    1    3    3    0    0 -0.94604140568E+01 -0.50421332302E+01 -0.54790601016E+01  0.12039212661E+02  0.51100000000E-03 0. -1.
        -11    1    3    3    0    0 -0.77869762430E+01 -0.19105033788E+01 -0.25565177754E+02  0.26793009089E+02  0.51100000000E-03 0.  1.
        -12    1    3    3    0    0 -0.34414723166E+00  0.10340772520E+02 -0.54554022368E+01  0.11696641706E+02  0.00000000000E+00 0.  1.
</event>
<event>
 7    1  0.5041278E-013  0.5052885E+02  0.7816164E-02  0.1300439E+00
        -11   -1    0    0    0    0  0.00000000000E+00  0.00000000000E+00  0.45593999997E+02  0.45594000000E+02  0.51100000000E-03 0.  1.
         11   -1    0    0    0    0 -0.00000000000E+00 -0.00000000000E+00 -0.45593999997E+02  0.45594000000E+02  0.51100000000E-03 0. -1.
    9900012    2    1    2    0    0 -0.26582555882E+02 -0.16320110441E+02 -0.26080411886E+02  0.50528853843E+02  0.29999981742E+02 0.  0.
        -12    1    1    2    0    0  0.26582555882E+02  0.16320110441E+02  0.26080411886E+02  0.40659146157E+02  0.00000000000E+00 0.  1.
         11    1    3    3    0    0  0.22633303314E+01 -0.40970888616E+00 -0.12653651226E+01  0.26251999381E+01  0.51100000000E-03 0.  1.
        -11    1    3    3    0    0 -0.18475016321E+02 -0.11516412420E+02 -0.28669989865E+02  0.35998920848E+02  0.51100000000E-03 0. -1.
         12    1    3    3    0    0 -0.10370869893E+02 -0.43939891355E+01  0.38549431018E+01  0.11904733058E+02  0.00000000000E+00 0. -1.
</event>
<event>
 7    1  0.5041278E-013  0.5052887E+02  0.7816164E-02  0.1300439E+00
        -11   -1    0    0    0    0  0.00000000000E+00  0.00000000000E+00  0.45593999997E+02  0.45594000000E+02  0.51100000000E-03 0.  1.
         11   -1    0    0    0    0 -0.00000000000E+00 -0.00000000000E+00 -0.45593999997E+02  0.45594000000E+02  0.51100000000E-03 0. -1.
    9900012    2    1    2    0    0 -0.26086999333E+02 -0.19459955640E+02 -0.24370949307E+02  0.50528873375E+02  0.30000041111E+02 0.  0.
        -12    1    1    2    0    0  0.26086999333E+02  0.19459955640E+02  0.24370949307E+02  0.40659126625E+02  0.00000000000E+00 0.  1.
         11    1    3    3    0    0 -0.22690922479E+02 -0.19137864717E+02 -0.16902221526E+02  0.34158760540E+02  0.51100000000E-03 0. -1.
        -11    1    3    3    0    0 -0.54757424152E+01 -0.51490823739E+01 -0.35430353341E+00  0.75247814284E+01  0.51100000000E-03 0.  1.
        -12    1    3    3    0    0  0.20796655610E+01  0.48269914502E+01 -0.71144242482E+01  0.88453314064E+01  0.00000000000E+00 0.  1.
</event>
<event>
 7    1  0.5041278E-013  0.5052885E+02  0.7816164E-02  0.1300439E+00
        -11   -1    0    0    0    0  0.00000000000E+00  0.00000000000E+00  0.45593999997E+02  0.45594000000E+02  0.51100000000E-03 0.  1.
         11   -1    0    0    0    0 -0.00000000000E+00 -0.00000000000E+00 -0.45593999997E+02  0.45594000000E+02  0.51100000000E-03 0. -1.
    9900012    2    1    2    0    0 -0.24252275772E+02  0.22063159111E+02 -0.24046010165E+02  0.50528850047E+02  0.29999970202E+02 0.  0.
        -12    1    1    2    0    0  0.24252275772E+02 -0.22063159111E+02  0.24046010165E+02  0.40659149953E+02  0.00000000000E+00 0.  1.
         11    1    3    3    0    0 -0.42659746065E+01  0.14216627774E+02  0.14179356512E+01  0.14910452252E+02  0.51100000000E-03 0. -1.
        -11    1    3    3    0    0 -0.85954795939E+01  0.35140662613E+01 -0.24930817714E+01  0.96149044778E+01  0.51100000000E-03 0.  1.
         12    1    3    3    0    0 -0.11390821572E+02  0.43324650765E+01 -0.22970864044E+02  0.26003493316E+02  0.00000000000E+00 0. -1.
</event>
<event>
 7    1  0.5041278E-013  0.5052886E+02  0.7816164E-02  0.1300439E+00
        -11   -1    0    0    0    0  0.00000000000E+00  0.00000000000E+00  0.45593999997E+02  0.45594000000E+02  0.51100000000E-03 0. -1.
         11   -1    0    0    0    0 -0.00000000000E+00 -0.00000000000E+00 -0.45593999997E+02  0.45594000000E+02  0.51100000000E-03 0.  1.
    9900012    2    1    2    0    0  0.17468544400E+02  0.17676405917E+02  0.32180119590E+02  0.50528862448E+02  0.30000007898E+02 0.  0.
        -12    1    1    2    0    0 -0.17468544400E+02 -0.17676405917E+02 -0.32180119590E+02  0.40659137552E+02  0.00000000000E+00 0.  1.
         11    1    3    3    0    0  0.13305881942E+02  0.12459271073E+02  0.77921226494E+01  0.19824154599E+02  0.51100000000E-03 0. -1.
        -11    1    3    3    0    0  0.35424450439E+01 -0.28753277437E+01 -0.44012050084E+00  0.45836811450E+01  0.51100000000E-03 0.  1.
         12    1    3    3    0    0  0.62021741373E+00  0.80924625878E+01  0.24828117442E+02  0.26121026704E+02  0.00000000000E+00 0. -1.
</event>
<event>
 7    1  0.5041278E-013  0.5052884E+02  0.7816164E-02  0.1300439E+00
        -11   -1    0    0    0    0  0.00000000000E+00  0.00000000000E+00  0.45593999997E+02  0.45594000000E+02  0.51100000000E-03 0.  1.
         11   -1    0    0    0    0 -0.00000000000E+00 -0.00000000000E+00 -0.45593999997E+02  0.45594000000E+02  0.51100000000E-03 0. -1.
    9900012    2    1    2    0    0 -0.23947099647E+02 -0.25868358022E+02 -0.20261573462E+02  0.50528844974E+02  0.29999954782E+02 0.  0.
        -12    1    1    2    0    0  0.23947099647E+02  0.25868358022E+02  0.20261573462E+02  0.40659155026E+02  0.00000000000E+00 0.  1.
         11    1    3    3    0    0 -0.77997454148E+01 -0.28460422568E+01 -0.14144409427E+02  0.16401228715E+02  0.51100000000E-03 0. -1.
        -11    1    3    3    0    0 -0.10708213817E+02 -0.11359827182E+01 -0.29478495463E-01  0.10768341057E+02  0.51100000000E-03 0.  1.
        -12    1    3    3    0    0 -0.54391404157E+01 -0.21886333047E+02 -0.60876855399E+01  0.23359275202E+02  0.00000000000E+00 0.  1.
</event>
<event>
 7    1  0.5041278E-013  0.5052886E+02  0.7816164E-02  0.1300439E+00
        -11   -1    0    0    0    0  0.00000000000E+00  0.00000000000E+00  0.45593999997E+02  0.45594000000E+02  0.51100000000E-03 0.  1.
         11   -1    0    0    0    0 -0.00000000000E+00 -0.00000000000E+00 -0.45593999997E+02  0.45594000000E+02  0.51100000000E-03 0. -1.
    9900012    2    1    2    0    0 -0.14802475549E+02 -0.74393801849E+01 -0.37130958279E+02  0.50528859298E+02  0.29999998321E+02 0.  0.
        -12    1    1    2    0    0  0.14802475549E+02  0.74393801849E+01  0.37130958279E+02  0.40659140702E+02  0.00000000000E+00 0.  1.
         11    1    3    3    0    0 -0.93591506073E+01 -0.67287601415E+01 -0.10943345366E+02  0.15894235470E+02  0.51100000000E-03 0. -1.
        -11    1    3    3    0    0 -0.60854676778E+01  0.98673416915E+01 -0.17183712420E+02  0.20728659428E+02  0.51100000000E-03 0.  1.
         12    1    3    3    0    0  0.64214273587E+00 -0.10577961735E+02 -0.90039004936E+01  0.13905964399E+02  0.00000000000E+00 0. -1.
</event>
<event>
 7    1  0.5041278E-013  0.5052885E+02  0.7816164E-02  0.1300439E+00
        -11   -1    0    0    0    0  0.00000000000E+00  0.00000000000E+00  0.45593999997E+02  0.45594000000E+02  0.51100000000E-03 0.  1.
         11   -1    0    0    0    0 -0.00000000000E+00 -0.00000000000E+00 -0.45593999997E+02  0.45594000000E+02  0.51100000000E-03 0. -1.
    9900012    2    1    2    0    0  0.21155863664E+02  0.29760280494E+02 -0.17886342150E+02  0.50528854682E+02  0.29999984292E+02 0.  0.
        -12    1    1    2    0    0 -0.21155863664E+02 -0.29760280494E+02  0.17886342150E+02  0.40659145318E+02  0.00000000000E+00 0.  1.
         11    1    3    3    0    0  0.19015050874E+02  0.23585388602E+02 -0.16304150239E+02  0.34404476897E+02  0.51100000000E-03 0. -1.
        -11    1    3    3    0    0 -0.43549977529E+00  0.43314206934E+01 -0.79207801374E+01  0.90382312165E+01  0.51100000000E-03 0.  1.
        -12    1    3    3    0    0  0.25763125651E+01  0.18434711990E+01  0.63385882264E+01  0.70861465691E+01  0.00000000000E+00 0.  1.
</event>
<event>
 7    1  0.5041278E-013  0.5052886E+02  0.7816164E-02  0.1300439E+00
        -11   -1    0    0    0    0  0.00000000000E+00  0.00000000000E+00  0.45593999997E+02  0.45594000000E+02  0.51100000000E-03 0.  1.
         11   -1    0    0    0    0 -0.00000000000E+00 -0.00000000000E+00 -0.45593999997E+02  0.45594000000E+02  0.51100000000E-03 0. -1.
    9900012    2    1    2    0    0 -0.44055623918E+00  0.76607240407E+01 -0.39928492669E+02  0.50528864379E+02  0.30000013767E+02 0.  0.
        -12    1    1    2    0    0  0.44055623918E+00 -0.76607240407E+01  0.39928492669E+02  0.40659135621E+02  0.00000000000E+00 0.  1.
         11    1    3    3    0    0 -0.45615757245E+00 -0.91182514693E-01 -0.21845986940E+02  0.21850939102E+02  0.51100000000E-03 0. -1.
        -11    1    3    3    0    0  0.39907433502E+01  0.98592298178E+01 -0.20842554680E+02  0.23399626726E+02  0.51100000000E-03 0.  1.
        -12    1    3    3    0    0 -0.39751420169E+01 -0.21073232625E+01  0.27600489509E+01  0.52782985515E+01  0.00000000000E+00 0.  1.
</event>
<event>
 7    1  0.5041278E-013  0.5052887E+02  0.7816164E-02  0.1300439E+00
        -11   -1    0    0    0    0  0.00000000000E+00  0.00000000000E+00  0.45593999997E+02  0.45594000000E+02  0.51100000000E-03 0. -1.
         11   -1    0    0    0    0 -0.00000000000E+00 -0.00000000000E+00 -0.45593999997E+02  0.45594000000E+02  0.51100000000E-03 0.  1.
    9900012    2    1    2    0    0  0.39817119222E+02  0.77040665230E+01 -0.28999352613E+01  0.50528865127E+02  0.30000016040E+02 0.  0.
        -12    1    1    2    0    0 -0.39817119222E+02 -0.77040665230E+01  0.28999352613E+01  0.40659134873E+02  0.00000000000E+00 0.  1.
         11    1    3    3    0    0  0.23075582049E+02 -0.29367973961E-01  0.22636581397E+00  0.23076711012E+02  0.51100000000E-03 0.  1.
        -11    1    3    3    0    0 -0.28829421850E+01 -0.35986985600E+01 -0.62200909025E+00  0.46528359672E+01  0.51100000000E-03 0. -1.
         12    1    3    3    0    0  0.19624479358E+02  0.11332133057E+02 -0.25042919851E+01  0.22799318148E+02  0.00000000000E+00 0. -1.
</event>
<event>
 7    1  0.5041278E-013  0.5052886E+02  0.7816164E-02  0.1300439E+00
        -11   -1    0    0    0    0  0.00000000000E+00  0.00000000000E+00  0.45593999997E+02  0.45594000000E+02  0.51100000000E-03 0.  1.
         11   -1    0    0    0    0 -0.00000000000E+00 -0.00000000000E+00 -0.45593999997E+02  0.45594000000E+02  0.51100000000E-03 0. -1.
    9900012    2    1    2    0    0 -0.27098607797E+02  0.15410304695E+01 -0.30273030542E+02  0.50528859605E+02  0.29999999256E+02 0.  0.
        -12    1    1    2    0    0  0.27098607797E+02 -0.15410304695E+01  0.30273030542E+02  0.40659140395E+02  0.00000000000E+00 0.  1.
         11    1    3    3    0    0 -0.16424974100E+02  0.84184001315E+01 -0.16171243845E+02  0.24538915272E+02  0.51100000000E-03 0. -1.
        -11    1    3    3    0    0 -0.14579095253E+02 -0.82876672055E+01 -0.79278123994E+01  0.18549545973E+02  0.51100000000E-03 0.  1.
         12    1    3    3    0    0  0.39054615560E+01  0.14102975435E+01 -0.61739742980E+01  0.74403983603E+01  0.00000000000E+00 0. -1.
</event>
<event>
 7    1  0.5041278E-013  0.5052887E+02  0.7816164E-02  0.1300439E+00
        -11   -1    0    0    0    0  0.00000000000E+00  0.00000000000E+00  0.45593999997E+02  0.45594000000E+02  0.51100000000E-03 0.  1.
         11   -1    0    0    0    0 -0.00000000000E+00 -0.00000000000E+00 -0.45593999997E+02  0.45594000000E+02  0.51100000000E-03 0. -1.
    9900012    2    1    2    0    0 -0.36278502966E+02 -0.18271375680E+02 -0.17866834591E+01  0.50528865916E+02  0.30000018439E+02 0.  0.
        -12    1    1    2    0    0  0.36278502966E+02  0.18271375680E+02  0.17866834591E+01  0.40659134084E+02  0.00000000000E+00 0.  1.
         11    1    3    3    0    0 -0.24598189269E+02 -0.17066449670E+02 -0.43298479242E+01  0.30250325667E+02  0.51100000000E-03 0. -1.
        -11    1    3    3    0    0 -0.12644488107E+02 -0.48992578744E+00  0.78143808749E+01  0.14872378945E+02  0.51100000000E-03 0.  1.
        -12    1    3    3    0    0  0.96417440995E+00 -0.71500022246E+00 -0.52712164098E+01  0.54061613045E+01  0.00000000000E+00 0.  1.
</event>
<event>
 7    1  0.5041278E-013  0.5052886E+02  0.7816164E-02  0.1300439E+00
        -11   -1    0    0    0    0  0.00000000000E+00  0.00000000000E+00  0.45593999997E+02  0.45594000000E+02  0.51100000000E-03 0.  1.
         11   -1    0    0    0    0 -0.00000000000E+00 -0.00000000000E+00 -0.45593999997E+02  0.45594000000E+02  0.51100000000E-03 0. -1.
    9900012    2    1    2    0    0 -0.18724618167E+02 -0.34015101001E+02 -0.12063473879E+02  0.50528858056E+02  0.29999994546E+02 0.  0.
        -12    1    1    2    0    0  0.18724618167E+02  0.34015101001E+02  0.12063473879E+02  0.40659141944E+02  0.00000000000E+00 0.  1.
         11    1    3    3    0    0 -0.14873654861E+02 -0.29923355708E+02 -0.10239712911E+02  0.34949743154E+02  0.51100000000E-03 0. -1.
        -11    1    3    3    0    0  0.54073483464E+01 -0.25468221943E+01  0.18619082228E+00  0.59799988890E+01  0.51100000000E-03 0.  1.
        -12    1    3    3    0    0 -0.92583116524E+01 -0.15449230988E+01 -0.20099517909E+01  0.95991160133E+01  0.00000000000E+00 0.  1.
</event>
<event>
 7    1  0.5041278E-013  0.5052886E+02  0.7816164E-02  0.1300439E+00
        -11   -1    0    0    0    0  0.00000000000E+00  0.00000000000E+00  0.45593999997E+02  0.45594000000E+02  0.51100000000E-03 0.  1.
         11   -1    0    0    0    0 -0.00000000000E+00 -0.00000000000E+00 -0.45593999997E+02  0.45594000000E+02  0.51100000000E-03 0. -1.
    9900012    2    1    2    0    0 -0.40224425179E+02  0.42553852354E+01 -0.41295141883E+01  0.50528861151E+02  0.30000003955E+02 0.  0.
        -12    1    1    2    0    0  0.40224425179E+02 -0.42553852354E+01  0.41295141883E+01  0.40659138849E+02  0.00000000000E+00 0.  1.
         11    1    3    3    0    0 -0.32887073917E+02 -0.38601842328E+01  0.37907709236E+01  0.33329125365E+02  0.51100000000E-03 0. -1.
        -11    1    3    3    0    0  0.87704947742E+00  0.18620532336E+00  0.19252168418E+01  0.21237580741E+01  0.51100000000E-03 0.  1.
        -12    1    3    3    0    0 -0.82144007391E+01  0.79293641449E+01 -0.98455019537E+01  0.15075977712E+02  0.00000000000E+00 0.  1.
</event>
<event>
 7    1  0.5041278E-013  0.5052886E+02  0.7816164E-02  0.1300439E+00
        -11   -1    0    0    0    0  0.00000000000E+00  0.00000000000E+00  0.45593999997E+02  0.45594000000E+02  0.51100000000E-03 0.  1.
         11   -1    0    0    0    0 -0.00000000000E+00 -0.00000000000E+00 -0.45593999997E+02  0.45594000000E+02  0.51100000000E-03 0. -1.
    9900012    2    1    2    0    0  0.10673005699E+02 -0.36723954472E+02 -0.13805942726E+02  0.50528856659E+02  0.29999990299E+02 0.  0.
        -12    1    1    2    0    0 -0.10673005699E+02  0.36723954472E+02  0.13805942726E+02  0.40659143341E+02  0.00000000000E+00 0.  1.
         11    1    3    3    0    0  0.20312390309E+01 -0.11455269587E+02 -0.67044458361E+01  0.13427536168E+02  0.51100000000E-03 0. -1.
        -11    1    3    3    0    0 -0.14759912405E+01 -0.23203136269E+02  0.20006869134E+01  0.23335955760E+02  0.51100000000E-03 0.  1.
        -12    1    3    3    0    0  0.10117757909E+02 -0.20655486167E+01 -0.91021838031E+01  0.13765364731E+02  0.00000000000E+00 0.  1.
</event>
<event>
 7    1  0.5041278E-013  0.5052887E+02  0.7816164E-02  0.1300439E+00
        -11   -1    0    0    0    0  0.00000000000E+00  0.00000000000E+00  0.45593999997E+02  0.45594000000E+02  0.51100000000E-03 0. -1.
         11   -1    0    0    0    0 -0.00000000000E+00 -0.00000000000E+00 -0.45593999997E+02  0.45594000000E+02  0.51100000000E-03 0.  1.
    9900012    2    1    2    0    0 -0.13637323518E+02  0.33501972882E+02  0.18568958470E+02  0.50528868204E+02  0.30000025393E+02 0.  0.
        -12    1    1    2    0    0  0.13637323518E+02 -0.33501972882E+02 -0.18568958470E+02  0.40659131796E+02  0.00000000000E+00 0.  1.
         11    1    3    3    0    0 -0.13547542471E+02  0.14712068596E+02  0.66197515819E+00  0.20010474276E+02  0.51100000000E-03 0. -1.
        -11    1    3    3    0    0 -0.35308864513E+01  0.20541987532E+02  0.14824110244E+02  0.25577229242E+02  0.51100000000E-03 0.  1.
        -12    1    3    3    0    0  0.34411054040E+01 -0.17520832463E+01  0.30828730678E+01  0.49411646862E+01  0.00000000000E+00 0.  1.
</event>
<event>
 7    1  0.5041278E-013  0.5052886E+02  0.7816164E-02  0.1300439E+00
        -11   -1    0    0    0    0  0.00000000000E+00  0.00000000000E+00  0.45593999997E+02  0.45594000000E+02  0.51100000000E-03 0.  1.
         11   -1    0    0    0    0 -0.00000000000E+00 -0.00000000000E+00 -0.45593999997E+02  0.45594000000E+02  0.51100000000E-03 0. -1.
    9900012    2    1    2    0    0  0.34276553599E+02  0.10680855481E+02 -0.19084093616E+02  0.50528862902E+02  0.30000009277E+02 0.  0.
        -12    1    1    2    0    0 -0.34276553599E+02 -0.10680855481E+02  0.19084093616E+02  0.40659137098E+02  0.00000000000E+00 0.  1.
         11    1    3    3    0    0  0.18835737769E+02  0.97020767759E+01 -0.76833678133E+01  0.22537733965E+02  0.51100000000E-03 0. -1.
        -11    1    3    3    0    0  0.16949589658E+02 -0.62818523326E+01 -0.90260988108E+01  0.20204472731E+02  0.51100000000E-03 0.  1.
         12    1    3    3    0    0 -0.15087738285E+01  0.72606310376E+01 -0.23746269919E+01  0.77866562067E+01  0.00000000000E+00 0. -1.
</event>
<event>
 7    1  0.5041278E-013  0.5052887E+02  0.7816164E-02  0.1300439E+00
        -11   -1    0    0    0    0  0.00000000000E+00  0.00000000000E+00  0.45593999997E+02  0.45594000000E+02  0.51100000000E-03 0. -1.
         11   -1    0    0    0    0 -0.00000000000E+00 -0.00000000000E+00 -0.45593999997E+02  0.45594000000E+02  0.51100000000E-03 0.  1.
    9900012    2    1    2    0    0 -0.60252772020E+01  0.37005732116E+02  0.15730129298E+02  0.50528866432E+02  0.30000020006E+02 0.  0.
        -12    1    1    2    0    0  0.60252772020E+01 -0.37005732116E+02 -0.15730129298E+02  0.40659133568E+02  0.00000000000E+00 0.  1.
         11    1    3    3    0    0 -0.84995769096E+00  0.72654519833E+00  0.57786949568E-01  0.11196586955E+01  0.51100000000E-03 0. -1.
        -11    1    3    3    0    0  0.39731920080E+01 -0.28713448006E+01 -0.22456425211E+01  0.53920113399E+01  0.51100000000E-03 0.  1.
         12    1    3    3    0    0 -0.91485115190E+01  0.39150531718E+02  0.17917984869E+02  0.44017196396E+02  0.00000000000E+00 0. -1.
</event>
<event>
 7    1  0.5041278E-013  0.5052887E+02  0.7816164E-02  0.1300439E+00
        -11   -1    0    0    0    0  0.00000000000E+00  0.00000000000E+00  0.45593999997E+02  0.45594000000E+02  0.51100000000E-03 0.  1.
         11   -1    0    0    0    0 -0.00000000000E+00 -0.00000000000E+00 -0.45593999997E+02  0.45594000000E+02  0.51100000000E-03 0. -1.
    9900012    2    1    2    0    0  0.20392403955E+02  0.29420820640E+02 -0.19280302440E+02  0.50528869558E+02  0.30000029507E+02 0.  0.
        -12    1    1    2    0    0 -0.20392403955E+02 -0.29420820640E+02  0.19280302440E+02  0.40659130442E+02  0.00000000000E+00 0.  1.
         11    1    3    3    0    0  0.86522612867E+01  0.74517268154E+01 -0.55361955754E+01  0.12690126856E+02  0.51100000000E-03 0. -1.
        -11    1    3    3    0    0  0.19618875879E+02  0.14755375914E+02 -0.10210593394E+02  0.26587170343E+02  0.51100000000E-03 0.  1.
        -12    1    3    3    0    0 -0.78787332113E+01  0.72137179102E+01 -0.35335134700E+01  0.11251572359E+02  0.00000000000E+00 0.  1.
</event>
<event>
 7    1  0.5041278E-013  0.5052886E+02  0.7816164E-02  0.1300439E+00
        -11   -1    0    0    0    0  0.00000000000E+00  0.00000000000E+00  0.45593999997E+02  0.45594000000E+02  0.51100000000E-03 0. -1.
         11   -1    0    0    0    0 -0.00000000000E+00 -0.00000000000E+00 -0.45593999997E+02  0.45594000000E+02  0.51100000000E-03 0.  1.
    9900012    2    1    2    0    0 -0.72017757593E+00 -0.87145513056E+01  0.39707730497E+02  0.50528856854E+02  0.29999990892E+02 0.  0.
        -12    1    1    2    0    0  0.72017757593E+00  0.87145513056E+01 -0.39707730497E+02  0.40659143146E+02  0.00000000000E+00 0.  1.
         11    1    3    3    0    0  0.88794388963E+01 -0.69559682409E+01  0.92115216848E+01  0.14563037502E+02  0.51100000000E-03 0. -1.
        -11    1    3    3    0    0 -0.22310306290E+01 -0.42285703481E+01  0.30537803360E+00  0.47907787322E+01  0.51100000000E-03 0.  1.
         12    1    3    3    0    0 -0.73685858432E+01  0.24699872834E+01  0.30190830778E+02  0.31175040619E+02  0.00000000000E+00 0. -1.
</event>
<event>
 7    1  0.5041278E-013  0.5052886E+02  0.7816164E-02  0.1300439E+00
        -11   -1    0    0    0    0  0.00000000000E+00  0.00000000000E+00  0.45593999997E+02  0.45594000000E+02  0.51100000000E-03 0.  1.
         11   -1    0    0    0    0 -0.00000000000E+00 -0.00000000000E+00 -0.45593999997E+02  0.45594000000E+02  0.51100000000E-03 0. -1.
    9900012    2    1    2    0    0 -0.11626861962E+02  0.17287013943E+02 -0.34916199295E+02  0.50528859043E+02  0.29999997547E+02 0.  0.
        -12    1    1    2    0    0  0.11626861962E+02 -0.17287013943E+02  0.34916199295E+02  0.40659140957E+02  0.00000000000E+00 0.  1.
         11    1    3    3    0    0 -0.40687033459E+01  0.95539682955E+01 -0.22042220492E+02  0.24365798603E+02  0.51100000000E-03 0. -1.
        -11    1    3    3    0    0  0.18678886628E+01  0.12182123038E+02 -0.76275646771E+01  0.14493890883E+02  0.51100000000E-03 0.  1.
        -12    1    3    3    0    0 -0.94260472793E+01 -0.44490773908E+01 -0.52464141261E+01  0.11669169556E+02  0.00000000000E+00 0.  1.
</event>
<event>
 7    1  0.5041278E-013  0.5052885E+02  0.7816164E-02  0.1300439E+00
        -11   -1    0    0    0    0  0.00000000000E+00  0.00000000000E+00  0.45593999997E+02  0.45594000000E+02  0.51100000000E-03 0.  1.
         11   -1    0    0    0    0 -0.00000000000E+00 -0.00000000000E+00 -0.45593999997E+02  0.45594000000E+02  0.51100000000E-03 0. -1.
    9900012    2    1    2    0    0  0.30549736489E+02 -0.13597549002E+02 -0.23129780117E+02  0.50528850148E+02  0.29999970509E+02 0.  0.
        -12    1    1    2    0    0 -0.30549736489E+02  0.13597549002E+02  0.23129780117E+02  0.40659149852E+02  0.00000000000E+00 0.  1.
         11    1    3    3    0    0  0.27014666528E+02 -0.10499993411E+02 -0.10723955246E+02  0.30903806976E+02  0.51100000000E-03 0. -1.
        -11    1    3    3    0    0  0.84308072228E+01  0.13334400782E+01 -0.79052011672E+01  0.11633949399E+02  0.51100000000E-03 0.  1.
         12    1    3    3    0    0 -0.48957372613E+01 -0.44309956691E+01 -0.45006237045E+01  0.79910937725E+01  0.00000000000E+00 0. -1.
</event>
<event>
 7    1  0.5041278E-013  0.5052886E+02  0.7816164E-02  0.1300439E+00
        -11   -1    0    0    0    0  0.00000000000E+00  0.00000000000E+00  0.45593999997E+02  0.45594000000E+02  0.51100000000E-03 0.  1.
         11   -1    0    0    0    0 -0.00000000000E+00 -0.00000000000E+00 -0.45593999997E+02  0.45594000000E+02  0.51100000000E-03 0. -1.
    9900012    2    1    2    0    0  0.30916497816E+02 -0.10114604294E+02 -0.24393249950E+02  0.50528859572E+02  0.29999999155E+02 0.  0.
        -12    1    1    2    0    0 -0.30916497816E+02  0.10114604294E+02  0.24393249950E+02  0.40659140428E+02  0.00000000000E+00 0.  1.
         11    1    3    3    0    0  0.19097188542E+01  0.27439066758E+01  0.39365032624E+01  0.51645046368E+01  0.51100000000E-03 0. -1.
        -11    1    3    3    0    0  0.10730277559E+02  0.24913098433E+01 -0.54034012141E+01  0.12269565036E+02  0.51100000000E-03 0.  1.
         12    1    3    3    0    0  0.18276501403E+02 -0.15349820813E+02 -0.22926351999E+02  0.33094789899E+02  0.00000000000E+00 0. -1.
</event>
<event>
 7    1  0.5041278E-013  0.5052885E+02  0.7816164E-02  0.1300439E+00
        -11   -1    0    0    0    0  0.00000000000E+00  0.00000000000E+00  0.45593999997E+02  0.45594000000E+02  0.51100000000E-03 0.  1.
         11   -1    0    0    0    0 -0.00000000000E+00 -0.00000000000E+00 -0.45593999997E+02  0.45594000000E+02  0.51100000000E-03 0. -1.
    9900012    2    1    2    0    0 -0.38766940443E+01  0.20028821726E+02 -0.35170787627E+02  0.50528846556E+02  0.29999959593E+02 0.  0.
        -12    1    1    2    0    0  0.38766940443E+01 -0.20028821726E+02  0.35170787627E+02  0.40659153444E+02  0.00000000000E+00 0.  1.
         11    1    3    3    0    0  0.29997811140E+01  0.79569210836E+01 -0.13593951947E+02  0.16034550498E+02  0.51100000000E-03 0. -1.
        -11    1    3    3    0    0  0.47389823484E+01 -0.37760250788E+01 -0.99886193682E+01  0.11682843671E+02  0.51100000000E-03 0.  1.
        -12    1    3    3    0    0 -0.11615457507E+02  0.15847925721E+02 -0.11588216312E+02  0.22811452388E+02  0.00000000000E+00 0.  1.
</event>
<event>
 7    1  0.5041278E-013  0.5052886E+02  0.7816164E-02  0.1300439E+00
        -11   -1    0    0    0    0  0.00000000000E+00  0.00000000000E+00  0.45593999997E+02  0.45594000000E+02  0.51100000000E-03 0. -1.
         11   -1    0    0    0    0 -0.00000000000E+00 -0.00000000000E+00 -0.45593999997E+02  0.45594000000E+02  0.51100000000E-03 0.  1.
    9900012    2    1    2    0    0 -0.28023963804E+02 -0.11124146702E+02  0.27277762275E+02  0.50528862013E+02  0.30000006573E+02 0.  0.
        -12    1    1    2    0    0  0.28023963804E+02  0.11124146702E+02 -0.27277762275E+02  0.40659137987E+02  0.00000000000E+00 0.  1.
         11    1    3    3    0    0 -0.27800957522E+02 -0.81122866519E+01  0.29791546068E+02  0.41548028247E+02  0.51100000000E-03 0. -1.
        -11    1    3    3    0    0 -0.57038723727E+00 -0.51529543840E+01  0.56452830532E+00  0.52150717111E+01  0.51100000000E-03 0.  1.
        -12    1    3    3    0    0  0.34738095554E+00  0.21410943343E+01 -0.30783120977E+01  0.37657620540E+01  0.00000000000E+00 0.  1.
</event>
<event>
 7    1  0.5041278E-013  0.5052885E+02  0.7816164E-02  0.1300439E+00
        -11   -1    0    0    0    0  0.00000000000E+00  0.00000000000E+00  0.45593999997E+02  0.45594000000E+02  0.51100000000E-03 0. -1.
         11   -1    0    0    0    0 -0.00000000000E+00 -0.00000000000E+00 -0.45593999997E+02  0.45594000000E+02  0.51100000000E-03 0.  1.
    9900012    2    1    2    0    0 -0.22869040485E+00 -0.35713214521E+02  0.19434005530E+02  0.50528848981E+02  0.29999966961E+02 0.  0.
        -12    1    1    2    0    0  0.22869040485E+00  0.35713214521E+02 -0.19434005530E+02  0.40659151019E+02  0.00000000000E+00 0.  1.
         11    1    3    3    0    0 -0.51264094988E+01 -0.81428856863E+01  0.10796630791E+02  0.14462154001E+02  0.51100000000E-03 0. -1.
        -11    1    3    3    0    0 -0.56463226688E+01 -0.15977836971E+01  0.51721602716E+01  0.78220914440E+01  0.51100000000E-03 0.  1.
        -12    1    3    3    0    0  0.10544041763E+02 -0.25972545137E+02  0.34652144674E+01  0.28244603536E+02  0.00000000000E+00 0.  1.
</event>
<event>
 7    1  0.5041278E-013  0.5052887E+02  0.7816164E-02  0.1300439E+00
        -11   -1    0    0    0    0  0.00000000000E+00  0.00000000000E+00  0.45593999997E+02  0.45594000000E+02  0.51100000000E-03 0.  1.
         11   -1    0    0    0    0 -0.00000000000E+00 -0.00000000000E+00 -0.45593999997E+02  0.45594000000E+02  0.51100000000E-03 0. -1.
    9900012    2    1    2    0    0  0.15995086101E+02 -0.30433763294E+02 -0.21705028518E+02  0.50528868300E+02  0.30000025685E+02 0.  0.
        -12    1    1    2    0    0 -0.15995086101E+02  0.30433763294E+02  0.21705028518E+02  0.40659131700E+02  0.00000000000E+00 0.  1.
         11    1    3    3    0    0 -0.15971362566E+01 -0.14474775695E+02 -0.12980164493E+02  0.19507809876E+02  0.51100000000E-03 0. -1.
        -11    1    3    3    0    0  0.83160359808E+01 -0.16426392191E+02 -0.19794285575E+00  0.18412549972E+02  0.51100000000E-03 0.  1.
        -12    1    3    3    0    0  0.92761863766E+01  0.46740459158E+00 -0.85269211696E+01  0.12608508452E+02  0.00000000000E+00 0.  1.
</event>
<event>
 7    1  0.5041278E-013  0.5052882E+02  0.7816164E-02  0.1300439E+00
        -11   -1    0    0    0    0  0.00000000000E+00  0.00000000000E+00  0.45593999997E+02  0.45594000000E+02  0.51100000000E-03 0.  1.
         11   -1    0    0    0    0 -0.00000000000E+00 -0.00000000000E+00 -0.45593999997E+02  0.45594000000E+02  0.51100000000E-03 0. -1.
    9900012    2    1    2    0    0  0.17458826227E+01 -0.30658461687E+02 -0.26649188375E+02  0.50528823665E+02  0.29999890013E+02 0.  0.
        -12    1    1    2    0    0 -0.17458826227E+01  0.30658461687E+02  0.26649188375E+02  0.40659176335E+02  0.00000000000E+00 0.  1.
         11    1    3    3    0    0  0.50070507513E+01 -0.10948869673E+02 -0.76419657427E+01  0.14260012097E+02  0.51100000000E-03 0. -1.
        -11    1    3    3    0    0  0.55076587656E+01 -0.17730242542E+02 -0.43408385983E+01  0.19066690476E+02  0.51100000000E-03 0.  1.
        -12    1    3    3    0    0 -0.87688268942E+01 -0.19793494718E+01 -0.14666384034E+02  0.17202121092E+02  0.00000000000E+00 0.  1.
</event>
<event>
 7    1  0.5041278E-013  0.5052888E+02  0.7816164E-02  0.1300439E+00
        -11   -1    0    0    0    0  0.00000000000E+00  0.00000000000E+00  0.45593999997E+02  0.45594000000E+02  0.51100000000E-03 0. -1.
         11   -1    0    0    0    0 -0.00000000000E+00 -0.00000000000E+00 -0.45593999997E+02  0.45594000000E+02  0.51100000000E-03 0.  1.
    9900012    2    1    2    0    0 -0.19335428300E+02 -0.52905013983E+01  0.35373943308E+02  0.50528879772E+02  0.30000060554E+02 0.  0.
        -12    1    1    2    0    0  0.19335428300E+02  0.52905013983E+01 -0.35373943308E+02  0.40659120228E+02  0.00000000000E+00 0.  1.
         11    1    3    3    0    0 -0.52988027671E+00  0.27443345717E+01 -0.49464718808E+00  0.28384540601E+01  0.51100000000E-03 0.  1.
        -11    1    3    3    0    0 -0.99243643131E+01  0.82083321960E+01  0.13570533252E+02  0.18709064580E+02  0.51100000000E-03 0. -1.
         12    1    3    3    0    0 -0.88811837102E+01 -0.16243168166E+02  0.22298057244E+02  0.28981361131E+02  0.00000000000E+00 0. -1.
</event>
<event>
 7    1  0.5041278E-013  0.5052886E+02  0.7816164E-02  0.1300439E+00
        -11   -1    0    0    0    0  0.00000000000E+00  0.00000000000E+00  0.45593999997E+02  0.45594000000E+02  0.51100000000E-03 0.  1.
         11   -1    0    0    0    0 -0.00000000000E+00 -0.00000000000E+00 -0.45593999997E+02  0.45594000000E+02  0.51100000000E-03 0. -1.
    9900012    2    1    2    0    0  0.13304368630E+00  0.97112076062E+01 -0.39482152110E+02  0.50528860941E+02  0.30000003316E+02 0.  0.
        -12    1    1    2    0    0 -0.13304368630E+00 -0.97112076062E+01  0.39482152110E+02  0.40659139059E+02  0.00000000000E+00 0.  1.
         11    1    3    3    0    0 -0.21337451693E+01 -0.27497229518E+01 -0.79357133430E+01  0.86654135090E+01  0.51100000000E-03 0. -1.
        -11    1    3    3    0    0  0.10881825701E+02  0.29749131504E+00 -0.20838587275E+02  0.23510622101E+02  0.51100000000E-03 0.  1.
        -12    1    3    3    0    0 -0.86150368456E+01  0.12163439243E+02 -0.10707851491E+02  0.18352825331E+02  0.00000000000E+00 0.  1.
</event>
<event>
 7    1  0.5041278E-013  0.5052886E+02  0.7816164E-02  0.1300439E+00
        -11   -1    0    0    0    0  0.00000000000E+00  0.00000000000E+00  0.45593999997E+02  0.45594000000E+02  0.51100000000E-03 0.  1.
         11   -1    0    0    0    0 -0.00000000000E+00 -0.00000000000E+00 -0.45593999997E+02  0.45594000000E+02  0.51100000000E-03 0. -1.
    9900012    2    1    2    0    0  0.14096639082E+02 -0.31055713459E+02 -0.22135782324E+02  0.50528862885E+02  0.30000009224E+02 0.  0.
        -12    1    1    2    0    0 -0.14096639082E+02  0.31055713459E+02  0.22135782324E+02  0.40659137115E+02  0.00000000000E+00 0.  1.
         11    1    3    3    0    0 -0.11676740581E+01 -0.16193988562E+02 -0.53660611871E+01  0.17099805297E+02  0.51100000000E-03 0. -1.
        -11    1    3    3    0    0  0.54578452251E+01  0.57699993767E+00  0.31970301250E+01  0.63515356656E+01  0.51100000000E-03 0.  1.
         12    1    3    3    0    0  0.98064679151E+01 -0.15438724834E+02 -0.19966751262E+02  0.27077521922E+02  0.00000000000E+00 0. -1.
</event>
<event>
 7    1  0.5041278E-013  0.5052884E+02  0.7816164E-02  0.1300439E+00
        -11   -1    0    0    0    0  0.00000000000E+00  0.00000000000E+00  0.45593999997E+02  0.45594000000E+02  0.51100000000E-03 0. -1.
         11   -1    0    0    0    0 -0.00000000000E+00 -0.00000000000E+00 -0.45593999997E+02  0.45594000000E+02  0.51100000000E-03 0.  1.
    9900012    2    1    2    0    0 -0.20079458501E+01  0.31436857118E+02  0.25707181571E+02  0.50528843389E+02  0.29999949965E+02 0.  0.
        -12    1    1    2    0    0  0.20079458501E+01 -0.31436857118E+02 -0.25707181571E+02  0.40659156611E+02  0.00000000000E+00 0.  1.
         11    1    3    3    0    0 -0.38499119759E+01  0.16232068042E+01  0.88370019850E+01  0.97749284854E+01  0.51100000000E-03 0. -1.
        -11    1    3    3    0    0  0.81546148712E+01  0.36820585105E+01  0.91192267108E+01  0.12775585882E+02  0.51100000000E-03 0.  1.
        -12    1    3    3    0    0 -0.63126487454E+01  0.26131591803E+02  0.77509528756E+01  0.27978329021E+02  0.00000000000E+00 0.  1.
</event>
<event>
 7    1  0.5041278E-013  0.5052885E+02  0.7816164E-02  0.1300439E+00
        -11   -1    0    0    0    0  0.00000000000E+00  0.00000000000E+00  0.45593999997E+02  0.45594000000E+02  0.51100000000E-03 0.  1.
         11   -1    0    0    0    0 -0.00000000000E+00 -0.00000000000E+00 -0.45593999997E+02  0.45594000000E+02  0.51100000000E-03 0. -1.
    9900012    2    1    2    0    0 -0.27247903470E+02  0.18517072612E+02 -0.23829312122E+02  0.50528851732E+02  0.29999975324E+02 0.  0.
        -12    1    1    2    0    0  0.27247903470E+02 -0.18517072612E+02  0.23829312122E+02  0.40659148268E+02  0.00000000000E+00 0.  1.
         11    1    3    3    0    0 -0.19064746173E+02  0.16695588487E+02 -0.14262135487E+02  0.29079472665E+02  0.51100000000E-03 0. -1.
        -11    1    3    3    0    0  0.41985500247E-01  0.70156374536E+01  0.99959920440E+00  0.70866162936E+01  0.51100000000E-03 0.  1.
        -12    1    3    3    0    0 -0.82251427972E+01 -0.51941533280E+01 -0.10566775840E+02  0.14362762773E+02  0.00000000000E+00 0.  1.
</event>
<event>
 7    1  0.5041278E-013  0.5052886E+02  0.7816164E-02  0.1300439E+00
        -11   -1    0    0    0    0  0.00000000000E+00  0.00000000000E+00  0.45593999997E+02  0.45594000000E+02  0.51100000000E-03 0.  1.
         11   -1    0    0    0    0 -0.00000000000E+00 -0.00000000000E+00 -0.45593999997E+02  0.45594000000E+02  0.51100000000E-03 0. -1.
    9900012    2    1    2    0    0 -0.15609479428E+02 -0.85665093662E+01 -0.36553038840E+02  0.50528861062E+02  0.30000003684E+02 0.  0.
        -12    1    1    2    0    0  0.15609479428E+02  0.85665093662E+01  0.36553038840E+02  0.40659138938E+02  0.00000000000E+00 0.  1.
         11    1    3    3    0    0  0.22826648712E+01 -0.65945977123E+01 -0.21378804330E+02  0.22488942900E+02  0.51100000000E-03 0. -1.
        -11    1    3    3    0    0  0.56818060405E+00  0.24330188632E+01  0.13815241598E+01  0.28549989935E+01  0.51100000000E-03 0.  1.
        -12    1    3    3    0    0 -0.18460324903E+02 -0.44049305171E+01 -0.16555758670E+02  0.25184919168E+02  0.00000000000E+00 0.  1.
</event>
<event>
 7    1  0.5041278E-013  0.5052887E+02  0.7816164E-02  0.1300439E+00
        -11   -1    0    0    0    0  0.00000000000E+00  0.00000000000E+00  0.45593999997E+02  0.45594000000E+02  0.51100000000E-03 0. -1.
         11   -1    0    0    0    0 -0.00000000000E+00 -0.00000000000E+00 -0.45593999997E+02  0.45594000000E+02  0.51100000000E-03 0.  1.
    9900012    2    1    2    0    0 -0.27382390614E+02 -0.30054160212E+02 -0.34209381403E+00  0.50528869538E+02  0.30000029447E+02 0.  0.
        -12    1    1    2    0    0  0.27382390614E+02  0.30054160212E+02  0.34209381403E+00  0.40659130462E+02  0.00000000000E+00 0.  1.
         11    1    3    3    0    0 -0.22465459301E+02 -0.17695085971E+02 -0.80299639575E+01  0.29703421529E+02  0.51100000000E-03 0. -1.
        -11    1    3    3    0    0 -0.47654020248E+01  0.17102683214E+01  0.68573319468E+00  0.51092371705E+01  0.51100000000E-03 0.  1.
        -12    1    3    3    0    0 -0.15152928832E+00 -0.14069342562E+02  0.70021369488E+01  0.15716210838E+02  0.00000000000E+00 0.  1.
</event>
<event>
 7    1  0.5041278E-013  0.5052886E+02  0.7816164E-02  0.1300439E+00
        -11   -1    0    0    0    0  0.00000000000E+00  0.00000000000E+00  0.45593999997E+02  0.45594000000E+02  0.51100000000E-03 0. -1.
         11   -1    0    0    0    0 -0.00000000000E+00 -0.00000000000E+00 -0.45593999997E+02  0.45594000000E+02  0.51100000000E-03 0.  1.
    9900012    2    1    2    0    0  0.32293046071E+02 -0.41572506452E+01  0.24352448368E+02  0.50528864508E+02  0.30000014159E+02 0.  0.
        -12    1    1    2    0    0 -0.32293046071E+02  0.41572506452E+01 -0.24352448368E+02  0.40659135492E+02  0.00000000000E+00 0.  1.
         11    1    3    3    0    0  0.61900215544E+00  0.23220095405E+01  0.13387217845E+02  0.13601194575E+02  0.51100000000E-03 0. -1.
        -11    1    3    3    0    0  0.50865006901E+01  0.60439493172E+00 -0.31397695168E+01  0.60079892962E+01  0.51100000000E-03 0.  1.
         12    1    3    3    0    0  0.26587543225E+02 -0.70836551173E+01  0.14105000040E+02  0.30919680637E+02  0.00000000000E+00 0. -1.
</event>
<event>
 7    1  0.5041278E-013  0.5052886E+02  0.7816164E-02  0.1300439E+00
        -11   -1    0    0    0    0  0.00000000000E+00  0.00000000000E+00  0.45593999997E+02  0.45594000000E+02  0.51100000000E-03 0.  1.
         11   -1    0    0    0    0 -0.00000000000E+00 -0.00000000000E+00 -0.45593999997E+02  0.45594000000E+02  0.51100000000E-03 0. -1.
    9900012    2    1    2    0    0  0.19778983596E+01  0.37515240296E+02 -0.15551866040E+02  0.50528857441E+02  0.29999992676E+02 0.  0.
        -12    1    1    2    0    0 -0.19778983596E+01 -0.37515240296E+02  0.15551866040E+02  0.40659142559E+02  0.00000000000E+00 0.  1.
         11    1    3    3    0    0 -0.25284468422E+01  0.23571310256E+02 -0.63535354502E+01  0.24543168573E+02  0.51100000000E-03 0. -1.
        -11    1    3    3    0    0 -0.51971977581E+01  0.85620758180E+01 -0.10851233637E+02  0.14767168942E+02  0.51100000000E-03 0.  1.
        -12    1    3    3    0    0  0.97035429600E+01  0.53818542210E+01  0.16529030475E+01  0.11218519925E+02  0.00000000000E+00 0.  1.
</event>
<event>
 7    1  0.5041278E-013  0.5052888E+02  0.7816164E-02  0.1300439E+00
        -11   -1    0    0    0    0  0.00000000000E+00  0.00000000000E+00  0.45593999997E+02  0.45594000000E+02  0.51100000000E-03 0.  1.
         11   -1    0    0    0    0 -0.00000000000E+00 -0.00000000000E+00 -0.45593999997E+02  0.45594000000E+02  0.51100000000E-03 0. -1.
    9900012    2    1    2    0    0 -0.25823192389E+02 -0.56422149369E+00 -0.31400776774E+02  0.50528875648E+02  0.30000048020E+02 0.  0.
        -12    1    1    2    0    0  0.25823192389E+02  0.56422149369E+00  0.31400776774E+02  0.40659124352E+02  0.00000000000E+00 0.  1.
         11    1    3    3    0    0 -0.13484159206E+02 -0.16487227579E+00  0.83207051313E+00  0.13510813224E+02  0.51100000000E-03 0. -1.
        -11    1    3    3    0    0 -0.10245636233E+01 -0.21926268128E+01  0.38172087954E+00  0.24501130687E+01  0.51100000000E-03 0.  1.
         12    1    3    3    0    0 -0.11314469560E+02  0.17932775949E+01 -0.32614568167E+02  0.34567949356E+02  0.00000000000E+00 0. -1.
</event>
<event>
 7    1  0.5041278E-013  0.5052885E+02  0.7816164E-02  0.1300439E+00
        -11   -1    0    0    0    0  0.00000000000E+00  0.00000000000E+00  0.45593999997E+02  0.45594000000E+02  0.51100000000E-03 0. -1.
         11   -1    0    0    0    0 -0.00000000000E+00 -0.00000000000E+00 -0.45593999997E+02  0.45594000000E+02  0.51100000000E-03 0.  1.
    9900012    2    1    2    0    0  0.29216630953E+02  0.11436896762E+02  0.25860248631E+02  0.50528848618E+02  0.29999965861E+02 0.  0.
        -12    1    1    2    0    0 -0.29216630953E+02 -0.11436896762E+02 -0.25860248631E+02  0.40659151382E+02  0.00000000000E+00 0.  1.
         11    1    3    3    0    0  0.14932214252E+02 -0.26283833031E+01  0.12225882230E+02  0.19476950938E+02  0.51100000000E-03 0. -1.
        -11    1    3    3    0    0 -0.39118306430E+01  0.68631315374E+01  0.15456446806E+01  0.80494727293E+01  0.51100000000E-03 0.  1.
         12    1    3    3    0    0  0.18196247344E+02  0.72021485275E+01  0.12088721721E+02  0.23002424951E+02  0.00000000000E+00 0. -1.
</event>
<event>
 7    1  0.5041278E-013  0.5052884E+02  0.7816164E-02  0.1300439E+00
        -11   -1    0    0    0    0  0.00000000000E+00  0.00000000000E+00  0.45593999997E+02  0.45594000000E+02  0.51100000000E-03 0.  1.
         11   -1    0    0    0    0 -0.00000000000E+00 -0.00000000000E+00 -0.45593999997E+02  0.45594000000E+02  0.51100000000E-03 0. -1.
    9900012    2    1    2    0    0  0.38392030533E+02  0.12568279853E+02  0.46106284243E+01  0.50528836686E+02  0.29999929591E+02 0.  0.
        -12    1    1    2    0    0 -0.38392030533E+02 -0.12568279853E+02 -0.46106284243E+01  0.40659163314E+02  0.00000000000E+00 0.  1.
         11    1    3    3    0    0  0.97514677313E+01  0.20403629168E+01  0.94076613259E+01  0.13702492315E+02  0.51100000000E-03 0.  1.
        -11    1    3    3    0    0  0.84334787768E+00  0.86071362371E+01 -0.10378371523E+01  0.87104038978E+01  0.51100000000E-03 0. -1.
         12    1    3    3    0    0  0.27797214924E+02  0.19207806995E+01 -0.37591957493E+01  0.28115940474E+02  0.00000000000E+00 0. -1.
</event>
<event>
 7    1  0.5041278E-013  0.5052880E+02  0.7816164E-02  0.1300439E+00
        -11   -1    0    0    0    0  0.00000000000E+00  0.00000000000E+00  0.45593999997E+02  0.45594000000E+02  0.51100000000E-03 0. -1.
         11   -1    0    0    0    0 -0.00000000000E+00 -0.00000000000E+00 -0.45593999997E+02  0.45594000000E+02  0.51100000000E-03 0.  1.
    9900012    2    1    2    0    0  0.38933375942E+02  0.11394597821E+02  0.27432933721E+01  0.50528803251E+02  0.29999827961E+02 0.  0.
        -12    1    1    2    0    0 -0.38933375942E+02 -0.11394597821E+02 -0.27432933721E+01  0.40659196749E+02  0.00000000000E+00 0.  1.
         11    1    3    3    0    0  0.20627756771E+02  0.12273654086E+02 -0.79286652238E+01  0.25278660299E+02  0.51100000000E-03 0. -1.
        -11    1    3    3    0    0  0.15301814826E+02  0.50880907504E+01  0.84789467955E+01  0.18218856810E+02  0.51100000000E-03 0.  1.
        -12    1    3    3    0    0  0.30038043456E+01 -0.59671470155E+01  0.21930118003E+01  0.70312861418E+01  0.00000000000E+00 0.  1.
</event>
<event>
 7    1  0.5041278E-013  0.5052884E+02  0.7816164E-02  0.1300439E+00
        -11   -1    0    0    0    0  0.00000000000E+00  0.00000000000E+00  0.45593999997E+02  0.45594000000E+02  0.51100000000E-03 0.  1.
         11   -1    0    0    0    0 -0.00000000000E+00 -0.00000000000E+00 -0.45593999997E+02  0.45594000000E+02  0.51100000000E-03 0. -1.
    9900012    2    1    2    0    0  0.89216170878E+01  0.14891553846E+02 -0.36767022549E+02  0.50528836525E+02  0.29999929100E+02 0.  0.
        -12    1    1    2    0    0 -0.89216170878E+01 -0.14891553846E+02  0.36767022549E+02  0.40659163475E+02  0.00000000000E+00 0.  1.
         11    1    3    3    0    0  0.55169225383E+01  0.11426952405E+02 -0.19049101394E+02  0.22888423706E+02  0.51100000000E-03 0. -1.
        -11    1    3    3    0    0  0.85322824222E+01  0.75561722650E+01 -0.34036194030E+01  0.11894545302E+02  0.51100000000E-03 0.  1.
        -12    1    3    3    0    0 -0.51275878728E+01 -0.40915708246E+01 -0.14314301752E+02  0.15745867517E+02  0.00000000000E+00 0.  1.
</event>
<event>
 7    1  0.5041278E-013  0.5052886E+02  0.7816164E-02  0.1300439E+00
        -11   -1    0    0    0    0  0.00000000000E+00  0.00000000000E+00  0.45593999997E+02  0.45594000000E+02  0.51100000000E-03 0.  1.
         11   -1    0    0    0    0 -0.00000000000E+00 -0.00000000000E+00 -0.45593999997E+02  0.45594000000E+02  0.51100000000E-03 0. -1.
    9900012    2    1    2    0    0  0.33137933957E+02 -0.23204320584E+02 -0.40745679237E+01  0.50528864932E+02  0.30000015447E+02 0.  0.
        -12    1    1    2    0    0 -0.33137933957E+02  0.23204320584E+02  0.40745679237E+01  0.40659135068E+02  0.00000000000E+00 0.  1.
         11    1    3    3    0    0  0.77305476976E+01 -0.58841955062E+01  0.96725986955E+01  0.13709277525E+02  0.51100000000E-03 0.  1.
        -11    1    3    3    0    0 -0.73250612755E-01 -0.56303598674E+01 -0.47802807947E+01  0.73862983033E+01  0.51100000000E-03 0. -1.
         12    1    3    3    0    0  0.25480636872E+02 -0.11689765211E+02 -0.89668858246E+01  0.29433289104E+02  0.00000000000E+00 0. -1.
</event>
<event>
 7    1  0.5041278E-013  0.5052886E+02  0.7816164E-02  0.1300439E+00
        -11   -1    0    0    0    0  0.00000000000E+00  0.00000000000E+00  0.45593999997E+02  0.45594000000E+02  0.51100000000E-03 0. -1.
         11   -1    0    0    0    0 -0.00000000000E+00 -0.00000000000E+00 -0.45593999997E+02  0.45594000000E+02  0.51100000000E-03 0.  1.
    9900012    2    1    2    0    0  0.58870311484E+01  0.34431052766E+02  0.20808924276E+02  0.50528857611E+02  0.29999993194E+02 0.  0.
        -12    1    1    2    0    0 -0.58870311484E+01 -0.34431052766E+02 -0.20808924276E+02  0.40659142389E+02  0.00000000000E+00 0.  1.
         11    1    3    3    0    0  0.56391837603E+01  0.14273251177E+02  0.10698653398E+02  0.18707946906E+02  0.51100000000E-03 0. -1.
        -11    1    3    3    0    0  0.80143946710E+01  0.13823763187E+02 -0.19976850134E+01  0.16103344257E+02  0.51100000000E-03 0.  1.
        -12    1    3    3    0    0 -0.77665472829E+01  0.63340384017E+01  0.12107955891E+02  0.15717566448E+02  0.00000000000E+00 0.  1.
</event>
<event>
 7    1  0.5041278E-013  0.5052890E+02  0.7816164E-02  0.1300439E+00
        -11   -1    0    0    0    0  0.00000000000E+00  0.00000000000E+00  0.45593999997E+02  0.45594000000E+02  0.51100000000E-03 0.  1.
         11   -1    0    0    0    0 -0.00000000000E+00 -0.00000000000E+00 -0.45593999997E+02  0.45594000000E+02  0.51100000000E-03 0. -1.
    9900012    2    1    2    0    0 -0.36209217703E+02  0.55699032586E+01 -0.17636072749E+02  0.50528901006E+02  0.30000125099E+02 0.  0.
        -12    1    1    2    0    0  0.36209217703E+02 -0.55699032586E+01  0.17636072749E+02  0.40659098994E+02  0.00000000000E+00 0.  1.
         11    1    3    3    0    0 -0.24933516651E+02  0.17423177611E+01 -0.23457084687E+02  0.34277554552E+02  0.51100000000E-03 0. -1.
        -11    1    3    3    0    0 -0.67562003946E+01  0.41340338658E+01 -0.10825689656E+01  0.79942751768E+01  0.51100000000E-03 0.  1.
        -12    1    3    3    0    0 -0.45195006572E+01 -0.30644836835E+00  0.69035809038E+01  0.82570712779E+01  0.00000000000E+00 0.  1.
</event>
<event>
 7    1  0.5041278E-013  0.5052885E+02  0.7816164E-02  0.1300439E+00
        -11   -1    0    0    0    0  0.00000000000E+00  0.00000000000E+00  0.45593999997E+02  0.45594000000E+02  0.51100000000E-03 0.  1.
         11   -1    0    0    0    0 -0.00000000000E+00 -0.00000000000E+00 -0.45593999997E+02  0.45594000000E+02  0.51100000000E-03 0. -1.
    9900012    2    1    2    0    0 -0.20808793930E+02  0.18241927058E+02 -0.29789140068E+02  0.50528847603E+02  0.29999962774E+02 0.  0.
        -12    1    1    2    0    0  0.20808793930E+02 -0.18241927058E+02  0.29789140068E+02  0.40659152397E+02  0.00000000000E+00 0.  1.
         11    1    3    3    0    0 -0.85443127391E+01  0.77077886908E+01 -0.18429937029E+02  0.21727352942E+02  0.51100000000E-03 0. -1.
        -11    1    3    3    0    0 -0.68618917292E+01  0.16210746498E+02 -0.11386489854E+02  0.20964875663E+02  0.51100000000E-03 0.  1.
        -12    1    3    3    0    0 -0.54025894619E+01 -0.56766081302E+01  0.27286814690E-01  0.78366189985E+01  0.00000000000E+00 0.  1.
</event>
<event>
 7    1  0.5041278E-013  0.5052887E+02  0.7816164E-02  0.1300439E+00
        -11   -1    0    0    0    0  0.00000000000E+00  0.00000000000E+00  0.45593999997E+02  0.45594000000E+02  0.51100000000E-03 0.  1.
         11   -1    0    0    0    0 -0.00000000000E+00 -0.00000000000E+00 -0.45593999997E+02  0.45594000000E+02  0.51100000000E-03 0. -1.
    9900012    2    1    2    0    0 -0.11855824196E+02 -0.38281950627E+02  0.68627169492E+01  0.50528865785E+02  0.30000018041E+02 0.  0.
        -12    1    1    2    0    0  0.11855824196E+02  0.38281950627E+02 -0.68627169492E+01  0.40659134215E+02  0.00000000000E+00 0.  1.
         11    1    3    3    0    0  0.63689933523E+01 -0.57865877341E+01  0.45499586006E+01  0.97340021294E+01  0.51100000000E-03 0. -1.
        -11    1    3    3    0    0 -0.11021987594E+02 -0.13211214067E+02  0.86483654500E+01  0.19256547273E+02  0.51100000000E-03 0.  1.
         12    1    3    3    0    0 -0.72028299548E+01 -0.19284148826E+02 -0.63356071015E+01  0.21538316383E+02  0.00000000000E+00 0. -1.
</event>
<event>
 7    1  0.5041278E-013  0.5052887E+02  0.7816164E-02  0.1300439E+00
        -11   -1    0    0    0    0  0.00000000000E+00  0.00000000000E+00  0.45593999997E+02  0.45594000000E+02  0.51100000000E-03 0.  1.
         11   -1    0    0    0    0 -0.00000000000E+00 -0.00000000000E+00 -0.45593999997E+02  0.45594000000E+02  0.51100000000E-03 0. -1.
    9900012    2    1    2    0    0  0.28768246746E+02  0.10795896395E+02 -0.26627078560E+02  0.50528871721E+02  0.30000036083E+02 0.  0.
        -12    1    1    2    0    0 -0.28768246746E+02 -0.10795896395E+02  0.26627078560E+02  0.40659128279E+02  0.00000000000E+00 0.  1.
         11    1    3    3    0    0  0.12623867836E+02  0.60238102047E+01 -0.34263890526E+01  0.14400988533E+02  0.51100000000E-03 0. -1.
        -11    1    3    3    0    0  0.12351381936E+02  0.32664998882E+01 -0.20992146020E+00  0.12777743327E+02  0.51100000000E-03 0.  1.
         12    1    3    3    0    0  0.37929969734E+01  0.15055863019E+01 -0.22990768047E+02  0.23350139861E+02  0.00000000000E+00 0. -1.
</event>
<event>
 7    1  0.5041278E-013  0.5052884E+02  0.7816164E-02  0.1300439E+00
        -11   -1    0    0    0    0  0.00000000000E+00  0.00000000000E+00  0.45593999997E+02  0.45594000000E+02  0.51100000000E-03 0.  1.
         11   -1    0    0    0    0 -0.00000000000E+00 -0.00000000000E+00 -0.45593999997E+02  0.45594000000E+02  0.51100000000E-03 0. -1.
    9900012    2    1    2    0    0  0.15214939880E+02  0.38757540393E+01 -0.37505348647E+02  0.50528843073E+02  0.29999949004E+02 0.  0.
        -12    1    1    2    0    0 -0.15214939880E+02 -0.38757540393E+01  0.37505348647E+02  0.40659156927E+02  0.00000000000E+00 0.  1.
         11    1    3    3    0    0  0.13045911175E+01 -0.51224303119E+01 -0.14983643511E+02  0.15888701124E+02  0.51100000000E-03 0. -1.
        -11    1    3    3    0    0  0.44705112320E+01  0.14110515663E+02 -0.17090277761E+02  0.22609062722E+02  0.51100000000E-03 0.  1.
         12    1    3    3    0    0  0.94398375303E+01 -0.51123313116E+01 -0.54314273746E+01  0.12031079227E+02  0.00000000000E+00 0. -1.
</event>
<event>
 7    1  0.5041278E-013  0.5052887E+02  0.7816164E-02  0.1300439E+00
        -11   -1    0    0    0    0  0.00000000000E+00  0.00000000000E+00  0.45593999997E+02  0.45594000000E+02  0.51100000000E-03 0. -1.
         11   -1    0    0    0    0 -0.00000000000E+00 -0.00000000000E+00 -0.45593999997E+02  0.45594000000E+02  0.51100000000E-03 0.  1.
    9900012    2    1    2    0    0  0.40535555162E+02  0.18105409940E+01 -0.25991934811E+01  0.50528866982E+02  0.30000021679E+02 0.  0.
        -12    1    1    2    0    0 -0.40535555162E+02 -0.18105409940E+01  0.25991934811E+01  0.40659133018E+02  0.00000000000E+00 0.  1.
         11    1    3    3    0    0  0.97267387109E+01 -0.52040499569E+01 -0.10918710160E+01  0.11085294966E+02  0.51100000000E-03 0. -1.
        -11    1    3    3    0    0  0.17917256353E+01  0.36321891060E+00 -0.86400536041E+01  0.88313495725E+01  0.51100000000E-03 0.  1.
         12    1    3    3    0    0  0.29017090816E+02  0.66513720404E+01  0.71327311390E+01  0.30612222444E+02  0.00000000000E+00 0. -1.
</event>
<event>
 7    1  0.5041278E-013  0.5052886E+02  0.7816164E-02  0.1300439E+00
        -11   -1    0    0    0    0  0.00000000000E+00  0.00000000000E+00  0.45593999997E+02  0.45594000000E+02  0.51100000000E-03 0. -1.
         11   -1    0    0    0    0 -0.00000000000E+00 -0.00000000000E+00 -0.45593999997E+02  0.45594000000E+02  0.51100000000E-03 0.  1.
    9900012    2    1    2    0    0 -0.19583438388E+02  0.34623716822E+02 -0.84174164714E+01  0.50528859259E+02  0.29999998205E+02 0.  0.
        -12    1    1    2    0    0  0.19583438388E+02 -0.34623716822E+02  0.84174164714E+01  0.40659140741E+02  0.00000000000E+00 0.  1.
         11    1    3    3    0    0 -0.90327515616E+01  0.65571417264E+01 -0.12401918066E+01  0.11230529122E+02  0.51100000000E-03 0. -1.
        -11    1    3    3    0    0 -0.16799578115E+01  0.22678768542E+01  0.77164791125E+01  0.82164209866E+01  0.51100000000E-03 0.  1.
        -12    1    3    3    0    0 -0.88707290153E+01  0.25798698242E+02 -0.14893703777E+02  0.31081909150E+02  0.00000000000E+00 0.  1.
</event>
<event>
 7    1  0.5041278E-013  0.5052887E+02  0.7816164E-02  0.1300439E+00
        -11   -1    0    0    0    0  0.00000000000E+00  0.00000000000E+00  0.45593999997E+02  0.45594000000E+02  0.51100000000E-03 0.  1.
         11   -1    0    0    0    0 -0.00000000000E+00 -0.00000000000E+00 -0.45593999997E+02  0.45594000000E+02  0.51100000000E-03 0. -1.
    9900012    2    1    2    0    0  0.16154572036E+02  0.49997592863E+01 -0.36975625724E+02  0.50528872018E+02  0.30000036984E+02 0.  0.
        -12    1    1    2    0    0 -0.16154572036E+02 -0.49997592863E+01  0.36975625724E+02  0.40659127982E+02  0.00000000000E+00 0.  1.
         11    1    3    3    0    0  0.10914071490E+02 -0.24276749207E+01 -0.84627871273E+01  0.14022457996E+02  0.51100000000E-03 0. -1.
        -11    1    3    3    0    0  0.67285088875E+00  0.41321945812E+01  0.25732600923E+01  0.49142067660E+01  0.51100000000E-03 0.  1.
         12    1    3    3    0    0  0.45676496572E+01  0.32952396258E+01 -0.31086098689E+02  0.31592207256E+02  0.00000000000E+00 0. -1.
</event>
<event>
 7    1  0.5041278E-013  0.5052887E+02  0.7816164E-02  0.1300439E+00
        -11   -1    0    0    0    0  0.00000000000E+00  0.00000000000E+00  0.45593999997E+02  0.45594000000E+02  0.51100000000E-03 0.  1.
         11   -1    0    0    0    0 -0.00000000000E+00 -0.00000000000E+00 -0.45593999997E+02  0.45594000000E+02  0.51100000000E-03 0. -1.
    9900012    2    1    2    0    0  0.37362397892E+02 -0.15255818389E+02 -0.49473319986E+01  0.50528869846E+02  0.30000030383E+02 0.  0.
        -12    1    1    2    0    0 -0.37362397892E+02  0.15255818389E+02  0.49473319986E+01  0.40659130154E+02  0.00000000000E+00 0.  1.
         11    1    3    3    0    0 -0.45992898546E+00 -0.15704361759E+01 -0.67446839919E+01  0.69403578341E+01  0.51100000000E-03 0. -1.
        -11    1    3    3    0    0  0.74286384966E+01  0.26065388579E+01  0.43765346034E+01  0.90073730980E+01  0.51100000000E-03 0.  1.
         12    1    3    3    0    0  0.30393688381E+02 -0.16291921071E+02 -0.25791826101E+01  0.34581138914E+02  0.00000000000E+00 0. -1.
</event>
<event>
 7    1  0.5041278E-013  0.5052886E+02  0.7816164E-02  0.1300439E+00
        -11   -1    0    0    0    0  0.00000000000E+00  0.00000000000E+00  0.45593999997E+02  0.45594000000E+02  0.51100000000E-03 0.  1.
         11   -1    0    0    0    0 -0.00000000000E+00 -0.00000000000E+00 -0.45593999997E+02  0.45594000000E+02  0.51100000000E-03 0. -1.
    9900012    2    1    2    0    0  0.29924650433E+02  0.10499926893E+00 -0.27525807454E+02  0.50528858293E+02  0.29999995267E+02 0.  0.
        -12    1    1    2    0    0 -0.29924650433E+02 -0.10499926893E+00  0.27525807454E+02  0.40659141707E+02  0.00000000000E+00 0.  1.
         11    1    3    3    0    0  0.68041735088E+01 -0.51466179941E+01 -0.11061886024E+02  0.13969601877E+02  0.51100000000E-03 0. -1.
        -11    1    3    3    0    0 -0.26479904533E+01 -0.36532250596E+01  0.35366855016E+00  0.45258135713E+01  0.51100000000E-03 0.  1.
         12    1    3    3    0    0  0.25768467377E+02  0.89048423226E+01 -0.16817589980E+02  0.32033442845E+02  0.00000000000E+00 0. -1.
</event>
<event>
 7    1  0.5041278E-013  0.5052886E+02  0.7816164E-02  0.1300439E+00
        -11   -1    0    0    0    0  0.00000000000E+00  0.00000000000E+00  0.45593999997E+02  0.45594000000E+02  0.51100000000E-03 0.  1.
         11   -1    0    0    0    0 -0.00000000000E+00 -0.00000000000E+00 -0.45593999997E+02  0.45594000000E+02  0.51100000000E-03 0. -1.
    9900012    2    1    2    0    0 -0.23303321718E+02 -0.18634126711E+02 -0.27620470775E+02  0.50528857274E+02  0.29999992171E+02 0.  0.
        -12    1    1    2    0    0  0.23303321718E+02  0.18634126711E+02  0.27620470775E+02  0.40659142726E+02  0.00000000000E+00 0.  1.
         11    1    3    3    0    0  0.69199540827E+00  0.63990030676E+01 -0.31334772644E+01  0.71585457973E+01  0.51100000000E-03 0.  1.
        -11    1    3    3    0    0 -0.11508829074E+02 -0.15202382829E+02 -0.86610628176E+01  0.20942292132E+02  0.51100000000E-03 0. -1.
        -12    1    3    3    0    0 -0.12486488052E+02 -0.98307469501E+01 -0.15825930693E+02  0.22428019345E+02  0.00000000000E+00 0.  1.
</event>
<event>
 7    1  0.5041278E-013  0.5052890E+02  0.7816164E-02  0.1300439E+00
        -11   -1    0    0    0    0  0.00000000000E+00  0.00000000000E+00  0.45593999997E+02  0.45594000000E+02  0.51100000000E-03 0.  1.
         11   -1    0    0    0    0 -0.00000000000E+00 -0.00000000000E+00 -0.45593999997E+02  0.45594000000E+02  0.51100000000E-03 0. -1.
    9900012    2    1    2    0    0 -0.32886085559E+02 -0.72199161552E+01 -0.22793434418E+02  0.50528899355E+02  0.30000120080E+02 0.  0.
        -12    1    1    2    0    0  0.32886085559E+02  0.72199161552E+01  0.22793434418E+02  0.40659100645E+02  0.00000000000E+00 0.  1.
         11    1    3    3    0    0 -0.36848188903E+01 -0.11462259117E+02 -0.43639458588E+01  0.12806455327E+02  0.51100000000E-03 0. -1.
        -11    1    3    3    0    0 -0.11588614343E+02  0.25715327057E+01  0.41085221291E+00  0.11877607615E+02  0.51100000000E-03 0.  1.
         12    1    3    3    0    0 -0.17612652325E+02  0.16708102561E+01 -0.18840340772E+02  0.25844836413E+02  0.00000000000E+00 0. -1.
</event>
<event>
 7    1  0.5041278E-013  0.5052886E+02  0.7816164E-02  0.1300439E+00
        -11   -1    0    0    0    0  0.00000000000E+00  0.00000000000E+00  0.45593999997E+02  0.45594000000E+02  0.51100000000E-03 0. -1.
         11   -1    0    0    0    0 -0.00000000000E+00 -0.00000000000E+00 -0.45593999997E+02  0.45594000000E+02  0.51100000000E-03 0.  1.
    9900012    2    1    2    0    0  0.70387834358E+01 -0.54380347946E+01  0.39674286538E+02  0.50528859491E+02  0.29999998908E+02 0.  0.
        -12    1    1    2    0    0 -0.70387834358E+01  0.54380347946E+01 -0.39674286538E+02  0.40659140509E+02  0.00000000000E+00 0.  1.
         11    1    3    3    0    0  0.87123933464E+01 -0.13638116351E+01  0.19830912418E+01  0.90387184452E+01  0.51100000000E-03 0. -1.
        -11    1    3    3    0    0 -0.86014698646E+00 -0.62039810431E+01  0.34065595819E+01  0.71297883607E+01  0.51100000000E-03 0.  1.
         12    1    3    3    0    0 -0.81346292410E+00  0.21297578836E+01  0.34284635714E+02  0.34360352685E+02  0.00000000000E+00 0. -1.
</event>
<event>
 7    1  0.5041278E-013  0.5052886E+02  0.7816164E-02  0.1300439E+00
        -11   -1    0    0    0    0  0.00000000000E+00  0.00000000000E+00  0.45593999997E+02  0.45594000000E+02  0.51100000000E-03 0.  1.
         11   -1    0    0    0    0 -0.00000000000E+00 -0.00000000000E+00 -0.45593999997E+02  0.45594000000E+02  0.51100000000E-03 0. -1.
    9900012    2    1    2    0    0  0.32876789748E+02 -0.38419021930E+01 -0.23611910748E+02  0.50528857784E+02  0.29999993720E+02 0.  0.
        -12    1    1    2    0    0 -0.32876789748E+02  0.38419021930E+01  0.23611910748E+02  0.40659142216E+02  0.00000000000E+00 0.  1.
         11    1    3    3    0    0  0.21746444972E+02 -0.96734785893E+00 -0.11902418458E+02  0.24809498105E+02  0.51100000000E-03 0. -1.
        -11    1    3    3    0    0  0.99478472720E+01  0.47054050908E+01 -0.13911619241E+02  0.17737915678E+02  0.51100000000E-03 0.  1.
        -12    1    3    3    0    0  0.11824975040E+01 -0.75799594249E+01  0.22021269518E+01  0.79814440011E+01  0.00000000000E+00 0.  1.
</event>
<event>
 7    1  0.5041278E-013  0.5052882E+02  0.7816164E-02  0.1300439E+00
        -11   -1    0    0    0    0  0.00000000000E+00  0.00000000000E+00  0.45593999997E+02  0.45594000000E+02  0.51100000000E-03 0. -1.
         11   -1    0    0    0    0 -0.00000000000E+00 -0.00000000000E+00 -0.45593999997E+02  0.45594000000E+02  0.51100000000E-03 0.  1.
    9900012    2    1    2    0    0 -0.24928916750E+02  0.37972676447E+01  0.31895118142E+02  0.50528822768E+02  0.29999887285E+02 0.  0.
        -12    1    1    2    0    0  0.24928916750E+02 -0.37972676447E+01 -0.31895118142E+02  0.40659177232E+02  0.00000000000E+00 0.  1.
         11    1    3    3    0    0 -0.19958694803E+02 -0.20012774702E+01  0.23704853401E+02  0.31052772578E+02  0.51100000000E-03 0. -1.
        -11    1    3    3    0    0  0.70686502544E+00 -0.52069189286E+01  0.19093040018E+01  0.55908053915E+01  0.51100000000E-03 0.  1.
        -12    1    3    3    0    0 -0.56770869723E+01  0.11005464044E+02  0.62809607394E+01  0.13885244799E+02  0.00000000000E+00 0.  1.
</event>
<event>
 7    1  0.5041278E-013  0.5052886E+02  0.7816164E-02  0.1300439E+00
        -11   -1    0    0    0    0  0.00000000000E+00  0.00000000000E+00  0.45593999997E+02  0.45594000000E+02  0.51100000000E-03 0.  1.
         11   -1    0    0    0    0 -0.00000000000E+00 -0.00000000000E+00 -0.45593999997E+02  0.45594000000E+02  0.51100000000E-03 0. -1.
    9900012    2    1    2    0    0 -0.94824929138E+01 -0.20324300848E+02 -0.33914163004E+02  0.50528864138E+02  0.30000013033E+02 0.  0.
        -12    1    1    2    0    0  0.94824929138E+01  0.20324300848E+02  0.33914163004E+02  0.40659135862E+02  0.00000000000E+00 0.  1.
         11    1    3    3    0    0 -0.26278209385E+01  0.55332704948E+01 -0.28531843961E+01  0.67574541592E+01  0.51100000000E-03 0. -1.
        -11    1    3    3    0    0  0.43349742063E+01 -0.26800555189E+01 -0.54846313556E+01  0.74870475036E+01  0.51100000000E-03 0.  1.
        -12    1    3    3    0    0 -0.11189646182E+02 -0.23177515824E+02 -0.25576347252E+02  0.36284362475E+02  0.00000000000E+00 0.  1.
</event>
<event>
 7    1  0.5041278E-013  0.5052886E+02  0.7816164E-02  0.1300439E+00
        -11   -1    0    0    0    0  0.00000000000E+00  0.00000000000E+00  0.45593999997E+02  0.45594000000E+02  0.51100000000E-03 0.  1.
         11   -1    0    0    0    0 -0.00000000000E+00 -0.00000000000E+00 -0.45593999997E+02  0.45594000000E+02  0.51100000000E-03 0. -1.
    9900012    2    1    2    0    0 -0.58388629585E+01 -0.38805842344E+02 -0.10638594794E+02  0.50528863021E+02  0.30000009638E+02 0.  0.
        -12    1    1    2    0    0  0.58388629585E+01  0.38805842344E+02  0.10638594794E+02  0.40659136979E+02  0.00000000000E+00 0.  1.
         11    1    3    3    0    0  0.80415462706E+01 -0.89565049096E+01 -0.98614720616E+01  0.15560658023E+02  0.51100000000E-03 0. -1.
        -11    1    3    3    0    0 -0.60148482619E+00 -0.14472737991E+02 -0.19591279043E+01  0.14617117067E+02  0.51100000000E-03 0.  1.
        -12    1    3    3    0    0 -0.13278924403E+02 -0.15376599444E+02  0.11820051718E+01  0.20351087931E+02  0.00000000000E+00 0.  1.
</event>
<event>
 7    1  0.5041278E-013  0.5052884E+02  0.7816164E-02  0.1300439E+00
        -11   -1    0    0    0    0  0.00000000000E+00  0.00000000000E+00  0.45593999997E+02  0.45594000000E+02  0.51100000000E-03 0.  1.
         11   -1    0    0    0    0 -0.00000000000E+00 -0.00000000000E+00 -0.45593999997E+02  0.45594000000E+02  0.51100000000E-03 0. -1.
    9900012    2    1    2    0    0 -0.12717889907E+02  0.37496374819E+01 -0.38436475431E+02  0.50528841764E+02  0.29999945026E+02 0.  0.
        -12    1    1    2    0    0  0.12717889907E+02 -0.37496374819E+01  0.38436475431E+02  0.40659158236E+02  0.00000000000E+00 0.  1.
         11    1    3    3    0    0  0.16571192850E+01  0.63501306085E+00 -0.15050641691E+01  0.23269087491E+01  0.51100000000E-03 0. -1.
        -11    1    3    3    0    0  0.71502363784E+01  0.40891906843E+01 -0.48583466036E+01  0.95629960107E+01  0.51100000000E-03 0.  1.
        -12    1    3    3    0    0 -0.21525245570E+02 -0.97456626324E+00 -0.32073064658E+02  0.38638937004E+02  0.00000000000E+00 0.  1.
</event>
<event>
 7    1  0.5041278E-013  0.5052886E+02  0.7816164E-02  0.1300439E+00
        -11   -1    0    0    0    0  0.00000000000E+00  0.00000000000E+00  0.45593999997E+02  0.45594000000E+02  0.51100000000E-03 0.  1.
         11   -1    0    0    0    0 -0.00000000000E+00 -0.00000000000E+00 -0.45593999997E+02  0.45594000000E+02  0.51100000000E-03 0. -1.
    9900012    2    1    2    0    0  0.25475000973E+02 -0.26271414947E+02 -0.17720117632E+02  0.50528862198E+02  0.30000007137E+02 0.  0.
        -12    1    1    2    0    0 -0.25475000973E+02  0.26271414947E+02  0.17720117632E+02  0.40659137802E+02  0.00000000000E+00 0.  1.
         11    1    3    3    0    0  0.12544556630E+02 -0.51734016006E+01 -0.21287117652E+02  0.25244234260E+02  0.51100000000E-03 0.  1.
        -11    1    3    3    0    0  0.35644534102E+01 -0.48893554666E+01 -0.68002340144E+00  0.60888058829E+01  0.51100000000E-03 0. -1.
        -12    1    3    3    0    0  0.93659909330E+01 -0.16208657880E+02  0.42470234221E+01  0.19195822055E+02  0.00000000000E+00 0.  1.
</event>
<event>
 7    1  0.5041278E-013  0.5052885E+02  0.7816164E-02  0.1300439E+00
        -11   -1    0    0    0    0  0.00000000000E+00  0.00000000000E+00  0.45593999997E+02  0.45594000000E+02  0.51100000000E-03 0.  1.
         11   -1    0    0    0    0 -0.00000000000E+00 -0.00000000000E+00 -0.45593999997E+02  0.45594000000E+02  0.51100000000E-03 0. -1.
    9900012    2    1    2    0    0  0.27293461672E+02 -0.22269698086E+02  0.20305021266E+02  0.50528851073E+02  0.29999973321E+02 0.  0.
        -12    1    1    2    0    0 -0.27293461672E+02  0.22269698086E+02 -0.20305021266E+02  0.40659148927E+02  0.00000000000E+00 0.  1.
         11    1    3    3    0    0  0.10977947114E+02  0.39605030158E+01  0.86603673995E+01  0.14532820467E+02  0.51100000000E-03 0. -1.
        -11    1    3    3    0    0 -0.80362215375E+00 -0.84976118063E+01 -0.43661042840E+00  0.85466861358E+01  0.51100000000E-03 0.  1.
         12    1    3    3    0    0  0.17119136712E+02 -0.17732589295E+02  0.12081264295E+02  0.27449344470E+02  0.00000000000E+00 0. -1.
</event>
<event>
 7    1  0.5041278E-013  0.5052885E+02  0.7816164E-02  0.1300439E+00
        -11   -1    0    0    0    0  0.00000000000E+00  0.00000000000E+00  0.45593999997E+02  0.45594000000E+02  0.51100000000E-03 0. -1.
         11   -1    0    0    0    0 -0.00000000000E+00 -0.00000000000E+00 -0.45593999997E+02  0.45594000000E+02  0.51100000000E-03 0.  1.
    9900012    2    1    2    0    0 -0.97358760047E+00  0.27278980485E+02  0.30134289978E+02  0.50528854884E+02  0.29999984904E+02 0.  0.
        -12    1    1    2    0    0  0.97358760047E+00 -0.27278980485E+02 -0.30134289978E+02  0.40659145116E+02  0.00000000000E+00 0.  1.
         11    1    3    3    0    0 -0.72696432700E+01  0.13475178814E+02  0.80050257200E+01  0.17277401262E+02  0.51100000000E-03 0. -1.
        -11    1    3    3    0    0 -0.23826801641E+01  0.15592912639E+02  0.12186588898E+02  0.19933114121E+02  0.51100000000E-03 0.  1.
        -12    1    3    3    0    0  0.86787358337E+01 -0.17891109678E+01  0.99426753605E+01  0.13318339501E+02  0.00000000000E+00 0.  1.
</event>
<event>
 7    1  0.5041278E-013  0.5052887E+02  0.7816164E-02  0.1300439E+00
        -11   -1    0    0    0    0  0.00000000000E+00  0.00000000000E+00  0.45593999997E+02  0.45594000000E+02  0.51100000000E-03 0.  1.
         11   -1    0    0    0    0 -0.00000000000E+00 -0.00000000000E+00 -0.45593999997E+02  0.45594000000E+02  0.51100000000E-03 0. -1.
    9900012    2    1    2    0    0  0.32535255740E+02 -0.39767599735E+01 -0.24058422624E+02  0.50528865908E+02  0.30000018414E+02 0.  0.
        -12    1    1    2    0    0 -0.32535255740E+02  0.39767599735E+01  0.24058422624E+02  0.40659134092E+02  0.00000000000E+00 0.  1.
         11    1    3    3    0    0  0.31131263107E+01 -0.19536476900E+01  0.37714565216E+01  0.52661351367E+01  0.51100000000E-03 0. -1.
        -11    1    3    3    0    0  0.20322806026E+02 -0.10656976544E+02 -0.15630213823E+02  0.27764927125E+02  0.51100000000E-03 0.  1.
         12    1    3    3    0    0  0.90993234039E+01  0.86338642608E+01 -0.12199665322E+02  0.17497803647E+02  0.00000000000E+00 0. -1.
</event>
<event>
 7    1  0.5041278E-013  0.5052886E+02  0.7816164E-02  0.1300439E+00
        -11   -1    0    0    0    0  0.00000000000E+00  0.00000000000E+00  0.45593999997E+02  0.45594000000E+02  0.51100000000E-03 0.  1.
         11   -1    0    0    0    0 -0.00000000000E+00 -0.00000000000E+00 -0.45593999997E+02  0.45594000000E+02  0.51100000000E-03 0. -1.
    9900012    2    1    2    0    0  0.71409711580E+01 -0.12555183228E+02 -0.38007098052E+02  0.50528860839E+02  0.30000003007E+02 0.  0.
        -12    1    1    2    0    0 -0.71409711580E+01  0.12555183228E+02  0.38007098052E+02  0.40659139161E+02  0.00000000000E+00 0.  1.
         11    1    3    3    0    0 -0.13063493393E+01  0.60826033681E+00  0.18251356115E+01  0.23254353346E+01  0.51100000000E-03 0. -1.
        -11    1    3    3    0    0 -0.29134738149E+01 -0.13979724932E+02 -0.14124257291E+02  0.20085210557E+02  0.51100000000E-03 0.  1.
         12    1    3    3    0    0  0.11360794312E+02  0.81628136681E+00 -0.25707976372E+02  0.28118214947E+02  0.00000000000E+00 0. -1.
</event>
<event>
 7    1  0.5041278E-013  0.5052886E+02  0.7816164E-02  0.1300439E+00
        -11   -1    0    0    0    0  0.00000000000E+00  0.00000000000E+00  0.45593999997E+02  0.45594000000E+02  0.51100000000E-03 0. -1.
         11   -1    0    0    0    0 -0.00000000000E+00 -0.00000000000E+00 -0.45593999997E+02  0.45594000000E+02  0.51100000000E-03 0.  1.
    9900012    2    1    2    0    0  0.13878449836E+02  0.29584698212E+02  0.24192967104E+02  0.50528863322E+02  0.30000010552E+02 0.  0.
        -12    1    1    2    0    0 -0.13878449836E+02 -0.29584698212E+02 -0.24192967104E+02  0.40659136678E+02  0.00000000000E+00 0.  1.
         11    1    3    3    0    0  0.22158049631E+00  0.27047427131E+01 -0.21737330425E+01  0.34770456801E+01  0.51100000000E-03 0.  1.
        -11    1    3    3    0    0  0.12560421460E+02  0.52260623376E+00  0.91954238532E+01  0.15575401267E+02  0.51100000000E-03 0. -1.
         12    1    3    3    0    0  0.10964478799E+01  0.26357349265E+02  0.17171276293E+02  0.31476416374E+02  0.00000000000E+00 0. -1.
</event>
<event>
 7    1  0.5041278E-013  0.5052886E+02  0.7816164E-02  0.1300439E+00
        -11   -1    0    0    0    0  0.00000000000E+00  0.00000000000E+00  0.45593999997E+02  0.45594000000E+02  0.51100000000E-03 0. -1.
         11   -1    0    0    0    0 -0.00000000000E+00 -0.00000000000E+00 -0.45593999997E+02  0.45594000000E+02  0.51100000000E-03 0.  1.
    9900012    2    1    2    0    0 -0.99462092033E+01 -0.35947778768E+02  0.16186285668E+02  0.50528859335E+02  0.29999998435E+02 0.  0.
        -12    1    1    2    0    0  0.99462092033E+01  0.35947778768E+02 -0.16186285668E+02  0.40659140665E+02  0.00000000000E+00 0.  1.
         11    1    3    3    0    0 -0.60690984571E+01 -0.21564936482E+02  0.45855311488E+01  0.22867171616E+02  0.51100000000E-03 0. -1.
        -11    1    3    3    0    0  0.32061549763E+01 -0.16992387133E+02  0.98933806382E+01  0.19922339996E+02  0.51100000000E-03 0.  1.
        -12    1    3    3    0    0 -0.70832657225E+01  0.26095448470E+01  0.17073738813E+01  0.77393477228E+01  0.00000000000E+00 0.  1.
</event>
<event>
 7    1  0.5041278E-013  0.5052878E+02  0.7816164E-02  0.1300439E+00
        -11   -1    0    0    0    0  0.00000000000E+00  0.00000000000E+00  0.45593999997E+02  0.45594000000E+02  0.51100000000E-03 0.  1.
         11   -1    0    0    0    0 -0.00000000000E+00 -0.00000000000E+00 -0.45593999997E+02  0.45594000000E+02  0.51100000000E-03 0. -1.
    9900012    2    1    2    0    0 -0.20874159540E+01 -0.57348627859E+01 -0.40198585559E+02  0.50528779183E+02  0.29999754803E+02 0.  0.
        -12    1    1    2    0    0  0.20874159540E+01  0.57348627859E+01  0.40198585559E+02  0.40659220817E+02  0.00000000000E+00 0.  1.
         11    1    3    3    0    0 -0.80710914621E+00 -0.50989175914E+01 -0.17155438120E+02  0.17915341000E+02  0.51100000000E-03 0. -1.
        -11    1    3    3    0    0  0.10581620018E+02  0.23303826970E+01 -0.11448377422E+02  0.15762826890E+02  0.51100000000E-03 0.  1.
         12    1    3    3    0    0 -0.11861926826E+02 -0.29663278915E+01 -0.11594770017E+02  0.16850611293E+02  0.00000000000E+00 0. -1.
</event>
<event>
 7    1  0.5041278E-013  0.5052887E+02  0.7816164E-02  0.1300439E+00
        -11   -1    0    0    0    0  0.00000000000E+00  0.00000000000E+00  0.45593999997E+02  0.45594000000E+02  0.51100000000E-03 0. -1.
         11   -1    0    0    0    0 -0.00000000000E+00 -0.00000000000E+00 -0.45593999997E+02  0.45594000000E+02  0.51100000000E-03 0.  1.
    9900012    2    1    2    0    0 -0.17997524795E+02 -0.32397611853E+02  0.16722710927E+02  0.50528865562E+02  0.30000017361E+02 0.  0.
        -12    1    1    2    0    0  0.17997524795E+02  0.32397611853E+02 -0.16722710927E+02  0.40659134438E+02  0.00000000000E+00 0.  1.
         11    1    3    3    0    0 -0.14386534322E+01 -0.66710821298E+01  0.28035910165E+01  0.73778847463E+01  0.51100000000E-03 0. -1.
        -11    1    3    3    0    0 -0.78059660064E+01 -0.53460677550E+01 -0.76841125605E+01  0.12188483574E+02  0.51100000000E-03 0.  1.
        -12    1    3    3    0    0 -0.87529053563E+01 -0.20380461968E+02  0.21603232471E+02  0.30962497241E+02  0.00000000000E+00 0.  1.
</event>
<event>
 7    1  0.5041278E-013  0.5052885E+02  0.7816164E-02  0.1300439E+00
        -11   -1    0    0    0    0  0.00000000000E+00  0.00000000000E+00  0.45593999997E+02  0.45594000000E+02  0.51100000000E-03 0.  1.
         11   -1    0    0    0    0 -0.00000000000E+00 -0.00000000000E+00 -0.45593999997E+02  0.45594000000E+02  0.51100000000E-03 0. -1.
    9900012    2    1    2    0    0  0.75750675522E+01  0.18018689236E+02 -0.35652649848E+02  0.50528852795E+02  0.29999978556E+02 0.  0.
        -12    1    1    2    0    0 -0.75750675522E+01 -0.18018689236E+02  0.35652649848E+02  0.40659147205E+02  0.00000000000E+00 0.  1.
         11    1    3    3    0    0 -0.60131491284E+00 -0.15889208893E+01  0.10063939398E+01  0.19746083763E+01  0.51100000000E-03 0.  1.
        -11    1    3    3    0    0 -0.74534849555E+01  0.12722664856E+02 -0.16287553090E+02  0.21970549036E+02  0.51100000000E-03 0. -1.
        -12    1    3    3    0    0  0.15629867421E+02  0.68849452692E+01 -0.20371490698E+02  0.26583695383E+02  0.00000000000E+00 0.  1.
</event>
<event>
 7    1  0.5041278E-013  0.5052886E+02  0.7816164E-02  0.1300439E+00
        -11   -1    0    0    0    0  0.00000000000E+00  0.00000000000E+00  0.45593999997E+02  0.45594000000E+02  0.51100000000E-03 0.  1.
         11   -1    0    0    0    0 -0.00000000000E+00 -0.00000000000E+00 -0.45593999997E+02  0.45594000000E+02  0.51100000000E-03 0. -1.
    9900012    2    1    2    0    0  0.35542252756E+02  0.19741521536E+02  0.43159025303E+00  0.50528859900E+02  0.30000000152E+02 0.  0.
        -12    1    1    2    0    0 -0.35542252756E+02 -0.19741521536E+02 -0.43159025303E+00  0.40659140100E+02  0.00000000000E+00 0.  1.
         11    1    3    3    0    0  0.19885291933E+02  0.28598382829E+01  0.32187707095E+00  0.20092464144E+02  0.51100000000E-03 0. -1.
        -11    1    3    3    0    0  0.15410379108E+02  0.10002110952E+02 -0.77926151170E+01  0.19956123330E+02  0.51100000000E-03 0.  1.
        -12    1    3    3    0    0  0.24658171608E+00  0.68795723004E+01  0.79023282991E+01  0.10480272426E+02  0.00000000000E+00 0.  1.
</event>
<event>
 7    1  0.5041278E-013  0.5052887E+02  0.7816164E-02  0.1300439E+00
        -11   -1    0    0    0    0  0.00000000000E+00  0.00000000000E+00  0.45593999997E+02  0.45594000000E+02  0.51100000000E-03 0. -1.
         11   -1    0    0    0    0 -0.00000000000E+00 -0.00000000000E+00 -0.45593999997E+02  0.45594000000E+02  0.51100000000E-03 0.  1.
    9900012    2    1    2    0    0 -0.30629620615E+02 -0.26307530005E+02  0.47859317926E+01  0.50528868958E+02  0.30000027684E+02 0.  0.
        -12    1    1    2    0    0  0.30629620615E+02  0.26307530005E+02 -0.47859317926E+01  0.40659131042E+02  0.00000000000E+00 0.  1.
         11    1    3    3    0    0  0.94458400381E-01  0.40422754575E-01 -0.31983872711E+01  0.32000371538E+01  0.51100000000E-03 0. -1.
        -11    1    3    3    0    0  0.19950432846E+01 -0.94437838077E+01  0.32498253546E-01  0.96522695109E+01  0.51100000000E-03 0.  1.
         12    1    3    3    0    0 -0.32719122300E+02 -0.16904168952E+02  0.79518208101E+01  0.37676562293E+02  0.00000000000E+00 0. -1.
</event>
<event>
 7    1  0.5041278E-013  0.5052886E+02  0.7816164E-02  0.1300439E+00
        -11   -1    0    0    0    0  0.00000000000E+00  0.00000000000E+00  0.45593999997E+02  0.45594000000E+02  0.51100000000E-03 0.  1.
         11   -1    0    0    0    0 -0.00000000000E+00 -0.00000000000E+00 -0.45593999997E+02  0.45594000000E+02  0.51100000000E-03 0. -1.
    9900012    2    1    2    0    0 -0.35631467747E+02 -0.14467642009E+02 -0.13200431351E+02  0.50528861458E+02  0.30000004889E+02 0.  0.
        -12    1    1    2    0    0  0.35631467747E+02  0.14467642009E+02  0.13200431351E+02  0.40659138542E+02  0.00000000000E+00 0.  1.
         11    1    3    3    0    0 -0.12826189576E+01 -0.20634940108E+01 -0.99463601331E+01  0.10238808480E+02  0.51100000000E-03 0. -1.
        -11    1    3    3    0    0 -0.14174652608E+02  0.30496074607E+01  0.95720250013E+00  0.14530558114E+02  0.51100000000E-03 0.  1.
         12    1    3    3    0    0 -0.20174196181E+02 -0.15453755459E+02 -0.42112737183E+01  0.25759494864E+02  0.00000000000E+00 0. -1.
</event>
<event>
 7    1  0.5041278E-013  0.5052886E+02  0.7816164E-02  0.1300439E+00
        -11   -1    0    0    0    0  0.00000000000E+00  0.00000000000E+00  0.45593999997E+02  0.45594000000E+02  0.51100000000E-03 0.  1.
         11   -1    0    0    0    0 -0.00000000000E+00 -0.00000000000E+00 -0.45593999997E+02  0.45594000000E+02  0.51100000000E-03 0. -1.
    9900012    2    1    2    0    0 -0.53443444562E+01  0.30736054939E+01 -0.40189010272E+02  0.50528860621E+02  0.30000002342E+02 0.  0.
        -12    1    1    2    0    0  0.53443444562E+01 -0.30736054939E+01  0.40189010272E+02  0.40659139379E+02  0.00000000000E+00 0.  1.
         11    1    3    3    0    0  0.43860185870E+01  0.26403354722E+01 -0.94193053560E+01  0.10720627039E+02  0.51100000000E-03 0. -1.
        -11    1    3    3    0    0 -0.31254931505E+01  0.10745547893E+02 -0.73758524472E+01  0.13402936489E+02  0.51100000000E-03 0.  1.
        -12    1    3    3    0    0 -0.66048698927E+01 -0.10312277871E+02 -0.23393852469E+02  0.26405297092E+02  0.00000000000E+00 0.  1.
</event>
<event>
 7    1  0.5968939E-013  0.5052888E+02  0.7816164E-02  0.1300439E+00
        -11   -1    0    0    0    0  0.00000000000E+00  0.00000000000E+00  0.45593999997E+02  0.45594000000E+02  0.51100000000E-03 0.  1.
         11   -1    0    0    0    0 -0.00000000000E+00 -0.00000000000E+00 -0.45593999997E+02  0.45594000000E+02  0.51100000000E-03 0. -1.
    9900012    2    1    2    0    0  0.16327508023E+02 -0.28467562650E+02  0.24003636924E+02  0.50528877689E+02  0.30000054223E+02 0.  0.
        -12    1    1    2    0    0 -0.16327508023E+02  0.28467562650E+02 -0.24003636924E+02  0.40659122311E+02  0.00000000000E+00 0.  1.
         11    1    3    3    0    0  0.10338650382E+02 -0.87412317503E+01  0.16584049102E+02  0.21408584940E+02  0.51100000000E-03 0. -1.
        -11    1    3    3    0    0 -0.47602065854E+01 -0.17660917678E-01  0.43751516477E+01  0.64654335388E+01  0.51100000000E-03 0.  1.
         12    1    3    3    0    0  0.10749064227E+02 -0.19708669982E+02  0.30444361746E+01  0.22654859210E+02  0.00000000000E+00 0. -1.
</event>
<event>
 7    1  0.5041278E-013  0.5052886E+02  0.7816164E-02  0.1300439E+00
        -11   -1    0    0    0    0  0.00000000000E+00  0.00000000000E+00  0.45593999997E+02  0.45594000000E+02  0.51100000000E-03 0.  1.
         11   -1    0    0    0    0 -0.00000000000E+00 -0.00000000000E+00 -0.45593999997E+02  0.45594000000E+02  0.51100000000E-03 0. -1.
    9900012    2    1    2    0    0  0.34930066042E+01 -0.16665032671E+02 -0.36922094845E+02  0.50528862075E+02  0.30000006763E+02 0.  0.
        -12    1    1    2    0    0 -0.34930066042E+01  0.16665032671E+02  0.36922094845E+02  0.40659137925E+02  0.00000000000E+00 0.  1.
         11    1    3    3    0    0  0.10122309850E+02 -0.68154331744E+01 -0.24985189554E+02  0.27805952300E+02  0.51100000000E-03 0. -1.
        -11    1    3    3    0    0 -0.44076374282E+01 -0.32737687336E+01  0.29967458987E+01  0.62550232343E+01  0.51100000000E-03 0.  1.
         12    1    3    3    0    0 -0.22216658174E+01 -0.65758307629E+01 -0.14933651190E+02  0.16467886540E+02  0.00000000000E+00 0. -1.
</event>
<event>
 7    1  0.5041278E-013  0.5052886E+02  0.7816164E-02  0.1300439E+00
        -11   -1    0    0    0    0  0.00000000000E+00  0.00000000000E+00  0.45593999997E+02  0.45594000000E+02  0.51100000000E-03 0.  1.
         11   -1    0    0    0    0 -0.00000000000E+00 -0.00000000000E+00 -0.45593999997E+02  0.45594000000E+02  0.51100000000E-03 0. -1.
    9900012    2    1    2    0    0  0.17288665209E+02 -0.11628566625E+01 -0.36781998607E+02  0.50528860784E+02  0.30000002838E+02 0.  0.
        -12    1    1    2    0    0 -0.17288665209E+02  0.11628566625E+01  0.36781998607E+02  0.40659139216E+02  0.00000000000E+00 0.  1.
         11    1    3    3    0    0  0.52046431733E+00 -0.72759956584E+01 -0.42445506798E+01  0.84396212392E+01  0.51100000000E-03 0. -1.
        -11    1    3    3    0    0  0.23423303623E+01  0.53196300055E+01  0.69326447541E+00  0.58536818171E+01  0.51100000000E-03 0.  1.
         12    1    3    3    0    0  0.14425870530E+02  0.79350899041E+00 -0.33230712402E+02  0.36235557727E+02  0.00000000000E+00 0. -1.
</event>
<event>
 7    1  0.5041278E-013  0.5052888E+02  0.7816164E-02  0.1300439E+00
        -11   -1    0    0    0    0  0.00000000000E+00  0.00000000000E+00  0.45593999997E+02  0.45594000000E+02  0.51100000000E-03 0.  1.
         11   -1    0    0    0    0 -0.00000000000E+00 -0.00000000000E+00 -0.45593999997E+02  0.45594000000E+02  0.51100000000E-03 0. -1.
    9900012    2    1    2    0    0 -0.23531186368E+02 -0.27480024140E+02 -0.18555193377E+02  0.50528884665E+02  0.30000075428E+02 0.  0.
        -12    1    1    2    0    0  0.23531186368E+02  0.27480024140E+02  0.18555193377E+02  0.40659115335E+02  0.00000000000E+00 0.  1.
         11    1    3    3    0    0 -0.15222884393E+01  0.50064995343E+01 -0.46496760614E+01  0.70001348142E+01  0.51100000000E-03 0. -1.
        -11    1    3    3    0    0 -0.15582264678E+01 -0.79958914563E+01 -0.73153627141E+01  0.10948830157E+02  0.51100000000E-03 0.  1.
        -12    1    3    3    0    0 -0.20450671460E+02 -0.24490632218E+02 -0.65901546011E+01  0.32579919694E+02  0.00000000000E+00 0.  1.
</event>
<event>
 7    1  0.5041278E-013  0.5052886E+02  0.7816164E-02  0.1300439E+00
        -11   -1    0    0    0    0  0.00000000000E+00  0.00000000000E+00  0.45593999997E+02  0.45594000000E+02  0.51100000000E-03 0.  1.
         11   -1    0    0    0    0 -0.00000000000E+00 -0.00000000000E+00 -0.45593999997E+02  0.45594000000E+02  0.51100000000E-03 0. -1.
    9900012    2    1    2    0    0  0.23827972075E+02  0.12275958941E+02 -0.30572770303E+02  0.50528859513E+02  0.29999998977E+02 0.  0.
        -12    1    1    2    0    0 -0.23827972075E+02 -0.12275958941E+02  0.30572770303E+02  0.40659140487E+02  0.00000000000E+00 0.  1.
         11    1    3    3    0    0  0.65854301331E+00 -0.17152153650E+01 -0.23508169783E+01  0.29836191740E+01  0.51100000000E-03 0. -1.
        -11    1    3    3    0    0  0.12437724418E+02  0.15774339839E+02 -0.30412677138E+02  0.36448013897E+02  0.51100000000E-03 0.  1.
        -12    1    3    3    0    0  0.10731704644E+02 -0.17831655332E+01  0.21907238138E+01  0.11097226443E+02  0.00000000000E+00 0.  1.
</event>
<event>
 7    1  0.5041278E-013  0.5052887E+02  0.7816164E-02  0.1300439E+00
        -11   -1    0    0    0    0  0.00000000000E+00  0.00000000000E+00  0.45593999997E+02  0.45594000000E+02  0.51100000000E-03 0. -1.
         11   -1    0    0    0    0 -0.00000000000E+00 -0.00000000000E+00 -0.45593999997E+02  0.45594000000E+02  0.51100000000E-03 0.  1.
    9900012    2    1    2    0    0  0.32901419983E+02  0.23843062837E+02  0.14731022279E+01  0.50528866800E+02  0.30000021126E+02 0.  0.
        -12    1    1    2    0    0 -0.32901419983E+02 -0.23843062837E+02 -0.14731022279E+01  0.40659133200E+02  0.00000000000E+00 0.  1.
         11    1    3    3    0    0  0.33012161641E+01 -0.20176872009E+01 -0.15079367438E+01  0.41524647244E+01  0.51100000000E-03 0. -1.
        -11    1    3    3    0    0  0.81531892223E+01  0.21087814182E+02  0.77362505029E+01  0.23896024221E+02  0.51100000000E-03 0.  1.
         12    1    3    3    0    0  0.21447014597E+02  0.47729358568E+01 -0.47552115312E+01  0.22480377855E+02  0.00000000000E+00 0. -1.
</event>
<event>
 7    1  0.5041278E-013  0.5052885E+02  0.7816164E-02  0.1300439E+00
        -11   -1    0    0    0    0  0.00000000000E+00  0.00000000000E+00  0.45593999997E+02  0.45594000000E+02  0.51100000000E-03 0.  1.
         11   -1    0    0    0    0 -0.00000000000E+00 -0.00000000000E+00 -0.45593999997E+02  0.45594000000E+02  0.51100000000E-03 0. -1.
    9900012    2    1    2    0    0  0.33921946047E+01 -0.33196683273E+02 -0.23230145754E+02  0.50528850521E+02  0.29999971645E+02 0.  0.
        -12    1    1    2    0    0 -0.33921946047E+01  0.33196683273E+02  0.23230145754E+02  0.40659149479E+02  0.00000000000E+00 0.  1.
         11    1    3    3    0    0 -0.64611024110E+01 -0.95334399874E+01 -0.10614834650E+02  0.15662280717E+02  0.51100000000E-03 0. -1.
        -11    1    3    3    0    0 -0.40004518623E+01 -0.45395920524E+01  0.27987605142E+01  0.66666762169E+01  0.51100000000E-03 0.  1.
         12    1    3    3    0    0  0.13853748878E+02 -0.19123651233E+02 -0.15414071618E+02  0.28199893587E+02  0.00000000000E+00 0. -1.
</event>
<event>
 7    1  0.5041278E-013  0.5052884E+02  0.7816164E-02  0.1300439E+00
        -11   -1    0    0    0    0  0.00000000000E+00  0.00000000000E+00  0.45593999997E+02  0.45594000000E+02  0.51100000000E-03 0.  1.
         11   -1    0    0    0    0 -0.00000000000E+00 -0.00000000000E+00 -0.45593999997E+02  0.45594000000E+02  0.51100000000E-03 0. -1.
    9900012    2    1    2    0    0 -0.32153092162E+02  0.18620185517E+02 -0.16511652423E+02  0.50528839778E+02  0.29999938988E+02 0.  0.
        -12    1    1    2    0    0  0.32153092162E+02 -0.18620185517E+02  0.16511652423E+02  0.40659160222E+02  0.00000000000E+00 0.  1.
         11    1    3    3    0    0 -0.18515376140E+02  0.53564882992E+01  0.68063763196E+00  0.19286637559E+02  0.51100000000E-03 0. -1.
        -11    1    3    3    0    0 -0.72259371421E+01  0.11133549813E+02 -0.55402558361E+00  0.13284466253E+02  0.51100000000E-03 0.  1.
         12    1    3    3    0    0 -0.64117788800E+01  0.21301474041E+01 -0.16638264471E+02  0.17957735965E+02  0.00000000000E+00 0. -1.
</event>
<event>
 7    1  0.5596549E-013  0.5052886E+02  0.7816164E-02  0.1300439E+00
        -11   -1    0    0    0    0  0.00000000000E+00  0.00000000000E+00  0.45593999997E+02  0.45594000000E+02  0.51100000000E-03 0.  1.
         11   -1    0    0    0    0 -0.00000000000E+00 -0.00000000000E+00 -0.45593999997E+02  0.45594000000E+02  0.51100000000E-03 0. -1.
    9900012    2    1    2    0    0  0.19219544932E+02 -0.25035200286E+02 -0.25632275557E+02  0.50528859441E+02  0.29999998757E+02 0.  0.
        -12    1    1    2    0    0 -0.19219544932E+02  0.25035200286E+02  0.25632275557E+02  0.40659140559E+02  0.00000000000E+00 0.  1.
         11    1    3    3    0    0 -0.31236666182E+01  0.28217073689E+01 -0.45452936385E+01  0.61950803174E+01  0.51100000000E-03 0. -1.
        -11    1    3    3    0    0  0.64438813397E+01 -0.36962244932E+00 -0.46586392765E+00  0.64712639365E+01  0.51100000000E-03 0.  1.
         12    1    3    3    0    0  0.15899330210E+02 -0.27487285206E+02 -0.20621117991E+02  0.37862515187E+02  0.00000000000E+00 0. -1.
</event>
<event>
 7    1  0.5041278E-013  0.5052887E+02  0.7816164E-02  0.1300439E+00
        -11   -1    0    0    0    0  0.00000000000E+00  0.00000000000E+00  0.45593999997E+02  0.45594000000E+02  0.51100000000E-03 0. -1.
         11   -1    0    0    0    0 -0.00000000000E+00 -0.00000000000E+00 -0.45593999997E+02  0.45594000000E+02  0.51100000000E-03 0.  1.
    9900012    2    1    2    0    0 -0.27847213165E+02  0.24426438990E+02  0.16764449493E+02  0.50528868558E+02  0.30000026470E+02 0.  0.
        -12    1    1    2    0    0  0.27847213165E+02 -0.24426438990E+02 -0.16764449493E+02  0.40659131442E+02  0.00000000000E+00 0.  1.
         11    1    3    3    0    0 -0.22866353743E+02  0.11045949494E+02  0.31988442886E+01  0.25595228828E+02  0.51100000000E-03 0. -1.
        -11    1    3    3    0    0  0.86667906526E+00 -0.13026474943E+01 -0.21409389173E+01  0.26517244965E+01  0.51100000000E-03 0.  1.
        -12    1    3    3    0    0 -0.58475384873E+01  0.14683136990E+02  0.15706544122E+02  0.22281915234E+02  0.00000000000E+00 0.  1.
</event>
<event>
 7    1  0.5071752E-013  0.5052886E+02  0.7816164E-02  0.1300439E+00
        -11   -1    0    0    0    0  0.00000000000E+00  0.00000000000E+00  0.45593999997E+02  0.45594000000E+02  0.51100000000E-03 0.  1.
         11   -1    0    0    0    0 -0.00000000000E+00 -0.00000000000E+00 -0.45593999997E+02  0.45594000000E+02  0.51100000000E-03 0. -1.
    9900012    2    1    2    0    0 -0.32840975864E+02  0.59476372051E+01 -0.23222002378E+02  0.50528862300E+02  0.30000007447E+02 0.  0.
        -12    1    1    2    0    0  0.32840975864E+02 -0.59476372051E+01  0.23222002378E+02  0.40659137700E+02  0.00000000000E+00 0.  1.
         11    1    3    3    0    0 -0.22679687307E+02  0.10157816581E+02 -0.12835578723E+02  0.27969653832E+02  0.51100000000E-03 0. -1.
        -11    1    3    3    0    0 -0.90715452505E+01 -0.50468212522E+01  0.15919810209E+01  0.10502273174E+02  0.51100000000E-03 0.  1.
        -12    1    3    3    0    0 -0.10897433065E+01  0.83664187626E+00 -0.11978404676E+02  0.12056935294E+02  0.00000000000E+00 0.  1.
</event>
<event>
 7    1  0.5041278E-013  0.5052886E+02  0.7816164E-02  0.1300439E+00
        -11   -1    0    0    0    0  0.00000000000E+00  0.00000000000E+00  0.45593999997E+02  0.45594000000E+02  0.51100000000E-03 0.  1.
         11   -1    0    0    0    0 -0.00000000000E+00 -0.00000000000E+00 -0.45593999997E+02  0.45594000000E+02  0.51100000000E-03 0. -1.
    9900012    2    1    2    0    0 -0.19231410361E+02 -0.12221921952E+02 -0.33674067904E+02  0.50528863636E+02  0.30000011508E+02 0.  0.
        -12    1    1    2    0    0  0.19231410361E+02  0.12221921952E+02  0.33674067904E+02  0.40659136364E+02  0.00000000000E+00 0.  1.
         11    1    3    3    0    0 -0.15950018050E+02 -0.13201872873E+01 -0.93390173773E+01  0.18530062496E+02  0.51100000000E-03 0. -1.
        -11    1    3    3    0    0 -0.40678264338E+00 -0.81963463195E+01 -0.92515380580E+00  0.82584184281E+01  0.51100000000E-03 0.  1.
        -12    1    3    3    0    0 -0.28746096677E+01 -0.27053883456E+01 -0.23409896721E+02  0.23740382712E+02  0.00000000000E+00 0.  1.
</event>
<event>
 7    1  0.5041278E-013  0.5052886E+02  0.7816164E-02  0.1300439E+00
        -11   -1    0    0    0    0  0.00000000000E+00  0.00000000000E+00  0.45593999997E+02  0.45594000000E+02  0.51100000000E-03 0.  1.
         11   -1    0    0    0    0 -0.00000000000E+00 -0.00000000000E+00 -0.45593999997E+02  0.45594000000E+02  0.51100000000E-03 0. -1.
    9900012    2    1    2    0    0  0.13291030505E+02  0.38179499514E+02 -0.43405078908E+01  0.50528859776E+02  0.29999999775E+02 0.  0.
        -12    1    1    2    0    0 -0.13291030505E+02 -0.38179499514E+02  0.43405078908E+01  0.40659140224E+02  0.00000000000E+00 0.  1.
         11    1    3    3    0    0  0.17711658200E+02  0.37124479093E+02 -0.59533944161E+01  0.41561673323E+02  0.51100000000E-03 0. -1.
        -11    1    3    3    0    0  0.87147320666E+00  0.20198193842E+01  0.26963188535E+01  0.34798378577E+01  0.51100000000E-03 0.  1.
        -12    1    3    3    0    0 -0.52921009018E+01 -0.96479896320E+00 -0.10834323283E+01  0.54873485951E+01  0.00000000000E+00 0.  1.
</event>
<event>
 7    1  0.5041278E-013  0.5052884E+02  0.7816164E-02  0.1300439E+00
        -11   -1    0    0    0    0  0.00000000000E+00  0.00000000000E+00  0.45593999997E+02  0.45594000000E+02  0.51100000000E-03 0. -1.
         11   -1    0    0    0    0 -0.00000000000E+00 -0.00000000000E+00 -0.45593999997E+02  0.45594000000E+02  0.51100000000E-03 0.  1.
    9900012    2    1    2    0    0  0.31042248976E+02  0.85559590594E+00 -0.26245265472E+02  0.50528840816E+02  0.29999942144E+02 0.  0.
        -12    1    1    2    0    0 -0.31042248976E+02 -0.85559590594E+00  0.26245265472E+02  0.40659159184E+02  0.00000000000E+00 0.  1.
         11    1    3    3    0    0 -0.39411902851E+01  0.83890141015E+00 -0.10035150188E+02  0.10813925097E+02  0.51100000000E-03 0.  1.
        -11    1    3    3    0    0  0.12629299539E+02  0.20066464404E+01 -0.14868647037E+01  0.12873872909E+02  0.51100000000E-03 0. -1.
        -12    1    3    3    0    0  0.22354139722E+02 -0.19899519446E+01 -0.14723250580E+02  0.26841042809E+02  0.00000000000E+00 0.  1.
</event>
<event>
 7    1  0.5041278E-013  0.5052885E+02  0.7816164E-02  0.1300439E+00
        -11   -1    0    0    0    0  0.00000000000E+00  0.00000000000E+00  0.45593999997E+02  0.45594000000E+02  0.51100000000E-03 0.  1.
         11   -1    0    0    0    0 -0.00000000000E+00 -0.00000000000E+00 -0.45593999997E+02  0.45594000000E+02  0.51100000000E-03 0. -1.
    9900012    2    1    2    0    0 -0.38190095662E+02  0.13879914612E+02 -0.14250255777E+01  0.50528854237E+02  0.29999982938E+02 0.  0.
        -12    1    1    2    0    0  0.38190095662E+02 -0.13879914612E+02  0.14250255777E+01  0.40659145763E+02  0.00000000000E+00 0.  1.
         11    1    3    3    0    0 -0.22148196357E+02  0.12374308184E+02  0.67490312869E+01  0.26252914666E+02  0.51100000000E-03 0. -1.
        -11    1    3    3    0    0 -0.10245846918E+01  0.68115730898E+01 -0.17898316179E+01  0.71169374895E+01  0.51100000000E-03 0.  1.
         12    1    3    3    0    0 -0.15017314613E+02 -0.53059666620E+01 -0.63842252467E+01  0.17159002081E+02  0.00000000000E+00 0. -1.
</event>
<event>
 7    1  0.5041278E-013  0.5052885E+02  0.7816164E-02  0.1300439E+00
        -11   -1    0    0    0    0  0.00000000000E+00  0.00000000000E+00  0.45593999997E+02  0.45594000000E+02  0.51100000000E-03 0.  1.
         11   -1    0    0    0    0 -0.00000000000E+00 -0.00000000000E+00 -0.45593999997E+02  0.45594000000E+02  0.51100000000E-03 0. -1.
    9900012    2    1    2    0    0  0.27570473318E+02  0.25099380936E+02 -0.16219022687E+02  0.50528848272E+02  0.29999964807E+02 0.  0.
        -12    1    1    2    0    0 -0.27570473318E+02 -0.25099380936E+02  0.16219022687E+02  0.40659151728E+02  0.00000000000E+00 0.  1.
         11    1    3    3    0    0  0.19743352062E+02  0.16479742097E+02  0.13844723256E+00  0.25717717980E+02  0.51100000000E-03 0.  1.
        -11    1    3    3    0    0 -0.75344046874E+00  0.50608740019E+01  0.91627451390E+00  0.51980455413E+01  0.51100000000E-03 0. -1.
         12    1    3    3    0    0  0.85805617250E+01  0.35587648370E+01 -0.17273744433E+02  0.19613084750E+02  0.00000000000E+00 0. -1.
</event>
<event>
 7    1  0.5041278E-013  0.5052882E+02  0.7816164E-02  0.1300439E+00
        -11   -1    0    0    0    0  0.00000000000E+00  0.00000000000E+00  0.45593999997E+02  0.45594000000E+02  0.51100000000E-03 0.  1.
         11   -1    0    0    0    0 -0.00000000000E+00 -0.00000000000E+00 -0.45593999997E+02  0.45594000000E+02  0.51100000000E-03 0. -1.
    9900012    2    1    2    0    0  0.22772609695E+02 -0.29840545109E+02 -0.15624306826E+02  0.50528820858E+02  0.29999881479E+02 0.  0.
        -12    1    1    2    0    0 -0.22772609695E+02  0.29840545109E+02  0.15624306826E+02  0.40659179142E+02  0.00000000000E+00 0.  1.
         11    1    3    3    0    0  0.13778240779E+02 -0.86380120484E+01 -0.16215665924E+02  0.22965256209E+02  0.51100000000E-03 0. -1.
        -11    1    3    3    0    0  0.99905024311E+01 -0.14780015521E+02 -0.54872671735E+01  0.18664648374E+02  0.51100000000E-03 0.  1.
         12    1    3    3    0    0 -0.99613351499E+00 -0.64225175391E+01  0.60786262715E+01  0.88989162750E+01  0.00000000000E+00 0. -1.
</event>
<event>
 7    1  0.5041278E-013  0.5052886E+02  0.7816164E-02  0.1300439E+00
        -11   -1    0    0    0    0  0.00000000000E+00  0.00000000000E+00  0.45593999997E+02  0.45594000000E+02  0.51100000000E-03 0.  1.
         11   -1    0    0    0    0 -0.00000000000E+00 -0.00000000000E+00 -0.45593999997E+02  0.45594000000E+02  0.51100000000E-03 0. -1.
    9900012    2    1    2    0    0 -0.11299145910E+02 -0.82745637675E+00 -0.39048817193E+02  0.50528861955E+02  0.30000006400E+02 0.  0.
        -12    1    1    2    0    0  0.11299145910E+02  0.82745637675E+00  0.39048817193E+02  0.40659138045E+02  0.00000000000E+00 0.  1.
         11    1    3    3    0    0  0.43394758672E+01  0.27974939521E+01 -0.11591230764E+02  0.12689115576E+02  0.51100000000E-03 0. -1.
        -11    1    3    3    0    0 -0.78758957144E+01  0.85330390152E+01 -0.12231864202E+02  0.16865971370E+02  0.51100000000E-03 0.  1.
         12    1    3    3    0    0 -0.77627260622E+01 -0.12157989344E+02 -0.15225722227E+02  0.20973775010E+02  0.00000000000E+00 0. -1.
</event>
<event>
 7    1  0.5041278E-013  0.5052886E+02  0.7816164E-02  0.1300439E+00
        -11   -1    0    0    0    0  0.00000000000E+00  0.00000000000E+00  0.45593999997E+02  0.45594000000E+02  0.51100000000E-03 0. -1.
         11   -1    0    0    0    0 -0.00000000000E+00 -0.00000000000E+00 -0.45593999997E+02  0.45594000000E+02  0.51100000000E-03 0.  1.
    9900012    2    1    2    0    0 -0.30220318259E+02 -0.12490964517E+02  0.24163484619E+02  0.50528858111E+02  0.29999994713E+02 0.  0.
        -12    1    1    2    0    0  0.30220318259E+02  0.12490964517E+02 -0.24163484619E+02  0.40659141889E+02  0.00000000000E+00 0.  1.
         11    1    3    3    0    0 -0.20540653212E+01 -0.41766057195E+01  0.10490274947E+02  0.11476458008E+02  0.51100000000E-03 0. -1.
        -11    1    3    3    0    0 -0.22546261710E+02 -0.13974288400E+02  0.15698665688E+02  0.30823088067E+02  0.51100000000E-03 0.  1.
         12    1    3    3    0    0 -0.56199912281E+01  0.56599296024E+01 -0.20254560158E+01  0.82293120357E+01  0.00000000000E+00 0. -1.
</event>
<event>
 7    1  0.5041278E-013  0.5052884E+02  0.7816164E-02  0.1300439E+00
        -11   -1    0    0    0    0  0.00000000000E+00  0.00000000000E+00  0.45593999997E+02  0.45594000000E+02  0.51100000000E-03 0. -1.
         11   -1    0    0    0    0 -0.00000000000E+00 -0.00000000000E+00 -0.45593999997E+02  0.45594000000E+02  0.51100000000E-03 0.  1.
    9900012    2    1    2    0    0 -0.23022612404E+02  0.17847125413E+02  0.28365593398E+02  0.50528837979E+02  0.29999933521E+02 0.  0.
        -12    1    1    2    0    0  0.23022612404E+02 -0.17847125413E+02 -0.28365593398E+02  0.40659162021E+02  0.00000000000E+00 0.  1.
         11    1    3    3    0    0 -0.20516396214E+02  0.12962290067E+02  0.14555339046E+02  0.28298434098E+02  0.51100000000E-03 0. -1.
        -11    1    3    3    0    0 -0.91915983183E+01  0.46733968528E+01  0.59330946851E+01  0.11896542800E+02  0.51100000000E-03 0.  1.
        -12    1    3    3    0    0  0.66853821280E+01  0.21143849374E+00  0.78771596666E+01  0.10333861081E+02  0.00000000000E+00 0.  1.
</event>
<event>
 7    1  0.5041278E-013  0.5052884E+02  0.7816164E-02  0.1300439E+00
        -11   -1    0    0    0    0  0.00000000000E+00  0.00000000000E+00  0.45593999997E+02  0.45594000000E+02  0.51100000000E-03 0. -1.
         11   -1    0    0    0    0 -0.00000000000E+00 -0.00000000000E+00 -0.45593999997E+02  0.45594000000E+02  0.51100000000E-03 0.  1.
    9900012    2    1    2    0    0 -0.29917785778E+02  0.24454244728E+02 -0.12652407311E+02  0.50528838648E+02  0.29999935555E+02 0.  0.
        -12    1    1    2    0    0  0.29917785778E+02 -0.24454244728E+02  0.12652407311E+02  0.40659161352E+02  0.00000000000E+00 0.  1.
         11    1    3    3    0    0 -0.98554440618E+01  0.46178526919E+01 -0.48807350991E+01  0.11927946869E+02  0.51100000000E-03 0. -1.
        -11    1    3    3    0    0 -0.22541004193E+01  0.17011912752E+02 -0.10858880282E+02  0.20307669128E+02  0.51100000000E-03 0.  1.
         12    1    3    3    0    0 -0.17808241297E+02  0.28244792841E+01  0.30872080699E+01  0.18293222651E+02  0.00000000000E+00 0. -1.
</event>
<event>
 7    1  0.5041278E-013  0.5052886E+02  0.7816164E-02  0.1300439E+00
        -11   -1    0    0    0    0  0.00000000000E+00  0.00000000000E+00  0.45593999997E+02  0.45594000000E+02  0.51100000000E-03 0.  1.
         11   -1    0    0    0    0 -0.00000000000E+00 -0.00000000000E+00 -0.45593999997E+02  0.45594000000E+02  0.51100000000E-03 0. -1.
    9900012    2    1    2    0    0  0.30942977459E+02  0.98572853445E+01 -0.24464902811E+02  0.50528863291E+02  0.30000010458E+02 0.  0.
        -12    1    1    2    0    0 -0.30942977459E+02 -0.98572853445E+01  0.24464902811E+02  0.40659136709E+02  0.00000000000E+00 0.  1.
         11    1    3    3    0    0 -0.31485049025E+01 -0.17008913320E+01 -0.80051870363E+01  0.87686449462E+01  0.51100000000E-03 0. -1.
        -11    1    3    3    0    0  0.46985799425E+01 -0.84369208400E+00  0.16809060035E+01  0.50610191723E+01  0.51100000000E-03 0.  1.
        -12    1    3    3    0    0  0.29392902419E+02  0.12401868760E+02 -0.18140621778E+02  0.36699199172E+02  0.00000000000E+00 0.  1.
</event>
<event>
 7    1  0.5041278E-013  0.5052886E+02  0.7816164E-02  0.1300439E+00
        -11   -1    0    0    0    0  0.00000000000E+00  0.00000000000E+00  0.45593999997E+02  0.45594000000E+02  0.51100000000E-03 0.  1.
         11   -1    0    0    0    0 -0.00000000000E+00 -0.00000000000E+00 -0.45593999997E+02  0.45594000000E+02  0.51100000000E-03 0. -1.
    9900012    2    1    2    0    0 -0.22576063322E+02  0.63283813664E+01 -0.33218044923E+02  0.50528861367E+02  0.30000004612E+02 0.  0.
        -12    1    1    2    0    0  0.22576063322E+02 -0.63283813664E+01  0.33218044923E+02  0.40659138633E+02  0.00000000000E+00 0.  1.
         11    1    3    3    0    0 -0.61837838859E+01  0.39143266891E+01 -0.19965240650E+02  0.21264335660E+02  0.51100000000E-03 0. -1.
        -11    1    3    3    0    0 -0.16827221935E+02  0.84877636760E+01 -0.59660828390E+01  0.19768451507E+02  0.51100000000E-03 0.  1.
         12    1    3    3    0    0  0.43494249844E+00 -0.60737089987E+01 -0.72867214337E+01  0.94960742010E+01  0.00000000000E+00 0. -1.
</event>
<event>
 7    1  0.5041278E-013  0.5052886E+02  0.7816164E-02  0.1300439E+00
        -11   -1    0    0    0    0  0.00000000000E+00  0.00000000000E+00  0.45593999997E+02  0.45594000000E+02  0.51100000000E-03 0.  1.
         11   -1    0    0    0    0 -0.00000000000E+00 -0.00000000000E+00 -0.45593999997E+02  0.45594000000E+02  0.51100000000E-03 0. -1.
    9900012    2    1    2    0    0  0.11449858973E+02 -0.37979619284E+02  0.89227127502E+01  0.50528861368E+02  0.30000004616E+02 0.  0.
        -12    1    1    2    0    0 -0.11449858973E+02  0.37979619284E+02 -0.89227127502E+01  0.40659138632E+02  0.00000000000E+00 0.  1.
         11    1    3    3    0    0  0.70272561115E+01 -0.81145364252E+01 -0.20080104409E+01  0.10920628922E+02  0.51100000000E-03 0. -1.
        -11    1    3    3    0    0  0.12324008044E+02 -0.25315505554E+02  0.11631177361E+02  0.30463753590E+02  0.51100000000E-03 0.  1.
        -12    1    3    3    0    0 -0.79014051831E+01 -0.45495773049E+01 -0.70045416981E+00  0.91444788569E+01  0.00000000000E+00 0.  1.
</event>
<event>
 7    1  0.5041278E-013  0.5052886E+02  0.7816164E-02  0.1300439E+00
        -11   -1    0    0    0    0  0.00000000000E+00  0.00000000000E+00  0.45593999997E+02  0.45594000000E+02  0.51100000000E-03 0. -1.
         11   -1    0    0    0    0 -0.00000000000E+00 -0.00000000000E+00 -0.45593999997E+02  0.45594000000E+02  0.51100000000E-03 0.  1.
    9900012    2    1    2    0    0 -0.43683788045E+01  0.11208796190E+02  0.38838719016E+02  0.50528856622E+02  0.29999990189E+02 0.  0.
        -12    1    1    2    0    0  0.43683788045E+01 -0.11208796190E+02 -0.38838719016E+02  0.40659143378E+02  0.00000000000E+00 0.  1.
         11    1    3    3    0    0 -0.10012338804E+02  0.58203975779E+01  0.19102651028E+02  0.22339096509E+02  0.51100000000E-03 0.  1.
        -11    1    3    3    0    0 -0.13056107908E+01  0.11033875301E+02  0.98070571532E+01  0.14819898581E+02  0.51100000000E-03 0. -1.
        -12    1    3    3    0    0  0.69495707905E+01 -0.56454766887E+01  0.99290108353E+01  0.13369861532E+02  0.00000000000E+00 0.  1.
</event>
<event>
 7    1  0.5041278E-013  0.5052888E+02  0.7816164E-02  0.1300439E+00
        -11   -1    0    0    0    0  0.00000000000E+00  0.00000000000E+00  0.45593999997E+02  0.45594000000E+02  0.51100000000E-03 0. -1.
         11   -1    0    0    0    0 -0.00000000000E+00 -0.00000000000E+00 -0.45593999997E+02  0.45594000000E+02  0.51100000000E-03 0.  1.
    9900012    2    1    2    0    0 -0.22805854317E+02  0.17965167723E+02  0.28465945888E+02  0.50528876575E+02  0.30000050836E+02 0.  0.
        -12    1    1    2    0    0  0.22805854317E+02 -0.17965167723E+02 -0.28465945888E+02  0.40659123425E+02  0.00000000000E+00 0.  1.
         11    1    3    3    0    0 -0.82112253208E+01  0.93419162757E+01  0.50713755736E+00  0.12448004247E+02  0.51100000000E-03 0. -1.
        -11    1    3    3    0    0  0.14405675018E+01  0.10656018498E+01 -0.23580928525E+01  0.29616455209E+01  0.51100000000E-03 0.  1.
         12    1    3    3    0    0 -0.16035196498E+02  0.75576495974E+01  0.30316901183E+02  0.35119226807E+02  0.00000000000E+00 0. -1.
</event>
<event>
 7    1  0.5041278E-013  0.5052886E+02  0.7816164E-02  0.1300439E+00
        -11   -1    0    0    0    0  0.00000000000E+00  0.00000000000E+00  0.45593999997E+02  0.45594000000E+02  0.51100000000E-03 0.  1.
         11   -1    0    0    0    0 -0.00000000000E+00 -0.00000000000E+00 -0.45593999997E+02  0.45594000000E+02  0.51100000000E-03 0. -1.
    9900012    2    1    2    0    0  0.27432454394E+02  0.15781089217E+02 -0.25526130841E+02  0.50528859740E+02  0.29999999665E+02 0.  0.
        -12    1    1    2    0    0 -0.27432454394E+02 -0.15781089217E+02  0.25526130841E+02  0.40659140260E+02  0.00000000000E+00 0.  1.
         11    1    3    3    0    0  0.63873368590E+01  0.54722122066E+01 -0.61076623294E+01  0.10394552322E+02  0.51100000000E-03 0. -1.
        -11    1    3    3    0    0  0.31751961363E+00  0.12841742484E+02 -0.13029595483E+02  0.18297036029E+02  0.51100000000E-03 0.  1.
        -12    1    3    3    0    0  0.20727597922E+02 -0.25328654736E+01 -0.63888730286E+01  0.21837271388E+02  0.00000000000E+00 0.  1.
</event>
<event>
 7    1  0.5041278E-013  0.5052885E+02  0.7816164E-02  0.1300439E+00
        -11   -1    0    0    0    0  0.00000000000E+00  0.00000000000E+00  0.45593999997E+02  0.45594000000E+02  0.51100000000E-03 0. -1.
         11   -1    0    0    0    0 -0.00000000000E+00 -0.00000000000E+00 -0.45593999997E+02  0.45594000000E+02  0.51100000000E-03 0.  1.
    9900012    2    1    2    0    0  0.10898891290E+02 -0.31752545184E+02  0.22938096827E+02  0.50528852898E+02  0.29999978869E+02 0.  0.
        -12    1    1    2    0    0 -0.10898891290E+02  0.31752545184E+02 -0.22938096827E+02  0.40659147102E+02  0.00000000000E+00 0.  1.
         11    1    3    3    0    0 -0.33676848240E+01 -0.10278411651E+02  0.85190992509E+01  0.13768155267E+02  0.51100000000E-03 0. -1.
        -11    1    3    3    0    0 -0.40987586688E+01 -0.12889305915E+02  0.63382690808E+01  0.14936789642E+02  0.51100000000E-03 0.  1.
        -12    1    3    3    0    0  0.18365334783E+02 -0.85848276179E+01  0.80807284957E+01  0.21823907990E+02  0.00000000000E+00 0.  1.
</event>
<event>
 7    1  0.5041278E-013  0.5052886E+02  0.7816164E-02  0.1300439E+00
        -11   -1    0    0    0    0  0.00000000000E+00  0.00000000000E+00  0.45593999997E+02  0.45594000000E+02  0.51100000000E-03 0.  1.
         11   -1    0    0    0    0 -0.00000000000E+00 -0.00000000000E+00 -0.45593999997E+02  0.45594000000E+02  0.51100000000E-03 0. -1.
    9900012    2    1    2    0    0 -0.38792138412E+02 -0.12065839187E+02  0.16586159292E+01  0.50528862224E+02  0.30000007216E+02 0.  0.
        -12    1    1    2    0    0  0.38792138412E+02  0.12065839187E+02 -0.16586159292E+01  0.40659137776E+02  0.00000000000E+00 0.  1.
         11    1    3    3    0    0 -0.13252021614E+02  0.27699351580E+01 -0.11333122914E+02  0.17655828865E+02  0.51100000000E-03 0. -1.
        -11    1    3    3    0    0 -0.22019002937E+01 -0.34947107689E+01  0.81543221818E+00  0.42102610638E+01  0.51100000000E-03 0.  1.
         12    1    3    3    0    0 -0.23338216504E+02 -0.11341063576E+02  0.12176306625E+02  0.28662772296E+02  0.00000000000E+00 0. -1.
</event>
<event>
 7    1  0.5041278E-013  0.5052887E+02  0.7816164E-02  0.1300439E+00
        -11   -1    0    0    0    0  0.00000000000E+00  0.00000000000E+00  0.45593999997E+02  0.45594000000E+02  0.51100000000E-03 0.  1.
         11   -1    0    0    0    0 -0.00000000000E+00 -0.00000000000E+00 -0.45593999997E+02  0.45594000000E+02  0.51100000000E-03 0. -1.
    9900012    2    1    2    0    0 -0.30997388940E+02 -0.24586227780E+02 -0.93725224622E+01  0.50528869477E+02  0.30000029263E+02 0.  0.
        -12    1    1    2    0    0  0.30997388940E+02  0.24586227780E+02  0.93725224622E+01  0.40659130523E+02  0.00000000000E+00 0.  1.
         11    1    3    3    0    0 -0.20518806892E+01  0.19898831096E+01 -0.46827938609E+01  0.54862015783E+01  0.51100000000E-03 0. -1.
        -11    1    3    3    0    0  0.19033639630E+01 -0.91940021747E+01 -0.98599817115E+00  0.94405859467E+01  0.51100000000E-03 0.  1.
        -12    1    3    3    0    0 -0.30848872214E+02 -0.17382108715E+02 -0.37037304301E+01  0.35602081952E+02  0.00000000000E+00 0.  1.
</event>
<event>
 7    1  0.5041278E-013  0.5052886E+02  0.7816164E-02  0.1300439E+00
        -11   -1    0    0    0    0  0.00000000000E+00  0.00000000000E+00  0.45593999997E+02  0.45594000000E+02  0.51100000000E-03 0.  1.
         11   -1    0    0    0    0 -0.00000000000E+00 -0.00000000000E+00 -0.45593999997E+02  0.45594000000E+02  0.51100000000E-03 0. -1.
    9900012    2    1    2    0    0  0.20188416855E+02  0.32376006181E+02 -0.14049478848E+02  0.50528858258E+02  0.29999995160E+02 0.  0.
        -12    1    1    2    0    0 -0.20188416855E+02 -0.32376006181E+02  0.14049478848E+02  0.40659141742E+02  0.00000000000E+00 0.  1.
         11    1    3    3    0    0  0.26879889739E+01 -0.52186614709E+01 -0.77663867841E+00  0.59213917426E+01  0.51100000000E-03 0.  1.
        -11    1    3    3    0    0  0.49367172433E+00  0.94033192392E+01 -0.49942076023E+01  0.10658716354E+02  0.51100000000E-03 0. -1.
        -12    1    3    3    0    0  0.17006756157E+02  0.28191348412E+02 -0.82786325672E+01  0.33948750161E+02  0.00000000000E+00 0.  1.
</event>
<event>
 7    1  0.5041278E-013  0.5052887E+02  0.7816164E-02  0.1300439E+00
        -11   -1    0    0    0    0  0.00000000000E+00  0.00000000000E+00  0.45593999997E+02  0.45594000000E+02  0.51100000000E-03 0.  1.
         11   -1    0    0    0    0 -0.00000000000E+00 -0.00000000000E+00 -0.45593999997E+02  0.45594000000E+02  0.51100000000E-03 0. -1.
    9900012    2    1    2    0    0  0.26006613556E+02 -0.31095989920E+02 -0.31401692359E+01  0.50528865718E+02  0.30000017836E+02 0.  0.
        -12    1    1    2    0    0 -0.26006613556E+02  0.31095989920E+02  0.31401692359E+01  0.40659134282E+02  0.00000000000E+00 0.  1.
         11    1    3    3    0    0 -0.38686981448E+00 -0.42105015219E+00 -0.55376150376E+01  0.55670577552E+01  0.51100000000E-03 0.  1.
        -11    1    3    3    0    0  0.16293344712E+02 -0.22730952046E+02 -0.72519961244E+01  0.28892225786E+02  0.51100000000E-03 0. -1.
        -12    1    3    3    0    0  0.10100138659E+02 -0.79439877212E+01  0.96494419260E+01  0.16069582177E+02  0.00000000000E+00 0.  1.
</event>
<event>
 7    1  0.5041278E-013  0.5052887E+02  0.7816164E-02  0.1300439E+00
        -11   -1    0    0    0    0  0.00000000000E+00  0.00000000000E+00  0.45593999997E+02  0.45594000000E+02  0.51100000000E-03 0.  1.
         11   -1    0    0    0    0 -0.00000000000E+00 -0.00000000000E+00 -0.45593999997E+02  0.45594000000E+02  0.51100000000E-03 0. -1.
    9900012    2    1    2    0    0  0.23105409292E+02  0.87595279623E+01 -0.32288941241E+02  0.50528868244E+02  0.30000025514E+02 0.  0.
        -12    1    1    2    0    0 -0.23105409292E+02 -0.87595279623E+01  0.32288941241E+02  0.40659131756E+02  0.00000000000E+00 0.  1.
         11    1    3    3    0    0  0.71532320433E+01  0.60411617876E+01 -0.10816698895E+02  0.14306129444E+02  0.51100000000E-03 0. -1.
        -11    1    3    3    0    0  0.89509079367E+00 -0.36496033802E+01 -0.19380174745E+02  0.19741123721E+02  0.51100000000E-03 0.  1.
        -12    1    3    3    0    0  0.15057086455E+02  0.63679695549E+01 -0.20920676012E+01  0.16481615079E+02  0.00000000000E+00 0.  1.
</event>
<event>
 7    1  0.5041278E-013  0.5052888E+02  0.7816164E-02  0.1300439E+00
        -11   -1    0    0    0    0  0.00000000000E+00  0.00000000000E+00  0.45593999997E+02  0.45594000000E+02  0.51100000000E-03 0.  1.
         11   -1    0    0    0    0 -0.00000000000E+00 -0.00000000000E+00 -0.45593999997E+02  0.45594000000E+02  0.51100000000E-03 0. -1.
    9900012    2    1    2    0    0  0.11880764691E+02 -0.27508181551E+02 -0.27482935266E+02  0.50528876144E+02  0.30000049528E+02 0.  0.
        -12    1    1    2    0    0 -0.11880764691E+02  0.27508181551E+02  0.27482935266E+02  0.40659123856E+02  0.00000000000E+00 0.  1.
         11    1    3    3    0    0  0.36242609489E+01 -0.24056401103E+01 -0.16215009101E+02  0.16788355850E+02  0.51100000000E-03 0. -1.
        -11    1    3    3    0    0  0.12247758733E+02 -0.92805328257E+01 -0.40085720406E+01  0.15880948762E+02  0.51100000000E-03 0.  1.
         12    1    3    3    0    0 -0.39912549908E+01 -0.15822008615E+02 -0.72593541250E+01  0.17859571532E+02  0.00000000000E+00 0. -1.
</event>
<event>
 7    1  0.5041278E-013  0.5052891E+02  0.7816164E-02  0.1300439E+00
        -11   -1    0    0    0    0  0.00000000000E+00  0.00000000000E+00  0.45593999997E+02  0.45594000000E+02  0.51100000000E-03 0.  1.
         11   -1    0    0    0    0 -0.00000000000E+00 -0.00000000000E+00 -0.45593999997E+02  0.45594000000E+02  0.51100000000E-03 0. -1.
    9900012    2    1    2    0    0  0.79082014758E+01  0.37896354221E+02  0.12429325417E+02  0.50528911912E+02  0.30000158247E+02 0.  0.
        -12    1    1    2    0    0 -0.79082014758E+01 -0.37896354221E+02 -0.12429325417E+02  0.40659088088E+02  0.00000000000E+00 0.  1.
         11    1    3    3    0    0  0.13570564226E+02  0.11333578939E+02  0.10481107510E+01  0.17711825468E+02  0.51100000000E-03 0. -1.
        -11    1    3    3    0    0 -0.30551883932E+01  0.27677513477E+02  0.11066889809E+02  0.29964228318E+02  0.51100000000E-03 0.  1.
         12    1    3    3    0    0 -0.26071743574E+01 -0.11147381947E+01  0.31432485659E+00  0.28528581262E+01  0.00000000000E+00 0. -1.
</event>
<event>
 7    1  0.5041278E-013  0.5052886E+02  0.7816164E-02  0.1300439E+00
        -11   -1    0    0    0    0  0.00000000000E+00  0.00000000000E+00  0.45593999997E+02  0.45594000000E+02  0.51100000000E-03 0.  1.
         11   -1    0    0    0    0 -0.00000000000E+00 -0.00000000000E+00 -0.45593999997E+02  0.45594000000E+02  0.51100000000E-03 0. -1.
    9900012    2    1    2    0    0  0.28293628337E+02 -0.99797915701E+01  0.27441569939E+02  0.50528863204E+02  0.30000010195E+02 0.  0.
        -12    1    1    2    0    0 -0.28293628337E+02  0.99797915701E+01 -0.27441569939E+02  0.40659136796E+02  0.00000000000E+00 0.  1.
         11    1    3    3    0    0  0.85332842562E+01 -0.11717291567E+01  0.15579012160E+02  0.17801559189E+02  0.51100000000E-03 0. -1.
        -11    1    3    3    0    0  0.91741810876E+00 -0.83690263719E+01  0.11009856345E+02  0.13859985404E+02  0.51100000000E-03 0.  1.
        -12    1    3    3    0    0  0.18842925972E+02 -0.43903604143E+00  0.85270143454E+00  0.18867318611E+02  0.00000000000E+00 0.  1.
</event>
<event>
 7    1  0.5041278E-013  0.5052889E+02  0.7816164E-02  0.1300439E+00
        -11   -1    0    0    0    0  0.00000000000E+00  0.00000000000E+00  0.45593999997E+02  0.45594000000E+02  0.51100000000E-03 0.  1.
         11   -1    0    0    0    0 -0.00000000000E+00 -0.00000000000E+00 -0.45593999997E+02  0.45594000000E+02  0.51100000000E-03 0. -1.
    9900012    2    1    2    0    0 -0.69870592837E+01 -0.18457553007E+02 -0.35548038211E+02  0.50528889322E+02  0.30000089584E+02 0.  0.
        -12    1    1    2    0    0  0.69870592837E+01  0.18457553007E+02  0.35548038211E+02  0.40659110678E+02  0.00000000000E+00 0.  1.
         11    1    3    3    0    0  0.93739447366E+01 -0.14499544228E+02 -0.13359983176E+02  0.21831096479E+02  0.51100000000E-03 0.  1.
        -11    1    3    3    0    0 -0.40422517934E+01 -0.10763025066E+01 -0.14920186469E+01  0.44412100322E+01  0.51100000000E-03 0. -1.
         12    1    3    3    0    0 -0.12318752227E+02 -0.28817062719E+01 -0.20696036389E+02  0.24256582811E+02  0.00000000000E+00 0. -1.
</event>
<event>
 7    1  0.5041278E-013  0.5052886E+02  0.7816164E-02  0.1300439E+00
        -11   -1    0    0    0    0  0.00000000000E+00  0.00000000000E+00  0.45593999997E+02  0.45594000000E+02  0.51100000000E-03 0.  1.
         11   -1    0    0    0    0 -0.00000000000E+00 -0.00000000000E+00 -0.45593999997E+02  0.45594000000E+02  0.51100000000E-03 0. -1.
    9900012    2    1    2    0    0  0.59732361317E+01  0.21763109089E+02 -0.33820900523E+02  0.50528858601E+02  0.29999996204E+02 0.  0.
        -12    1    1    2    0    0 -0.59732361317E+01 -0.21763109089E+02  0.33820900523E+02  0.40659141399E+02  0.00000000000E+00 0.  1.
         11    1    3    3    0    0  0.10864408660E+02  0.15927382152E+02 -0.10892578037E+02  0.22144189629E+02  0.51100000000E-03 0. -1.
        -11    1    3    3    0    0  0.16432653222E+01 -0.30051707364E+01 -0.57341103359E+00  0.34727759140E+01  0.51100000000E-03 0.  1.
         12    1    3    3    0    0 -0.65344378508E+01  0.88408976726E+01 -0.22354911452E+02  0.24911893058E+02  0.00000000000E+00 0. -1.
</event>
<event>
 7    1  0.5041278E-013  0.5052885E+02  0.7816164E-02  0.1300439E+00
        -11   -1    0    0    0    0  0.00000000000E+00  0.00000000000E+00  0.45593999997E+02  0.45594000000E+02  0.51100000000E-03 0.  1.
         11   -1    0    0    0    0 -0.00000000000E+00 -0.00000000000E+00 -0.45593999997E+02  0.45594000000E+02  0.51100000000E-03 0. -1.
    9900012    2    1    2    0    0  0.17958172906E+02  0.15739148520E+02 -0.32908202799E+02  0.50528848733E+02  0.29999966210E+02 0.  0.
        -12    1    1    2    0    0 -0.17958172906E+02 -0.15739148520E+02  0.32908202799E+02  0.40659151267E+02  0.00000000000E+00 0.  1.
         11    1    3    3    0    0 -0.18516924480E+01  0.72965773983E+01 -0.13719225393E+01  0.76518611047E+01  0.51100000000E-03 0. -1.
        -11    1    3    3    0    0 -0.30673220352E+01  0.15829300314E+00 -0.97334188411E+01  0.10206515749E+02  0.51100000000E-03 0.  1.
         12    1    3    3    0    0  0.22877187389E+02  0.82842781189E+01 -0.21802861419E+02  0.32670471879E+02  0.00000000000E+00 0. -1.
</event>
<event>
 7    1  0.5041278E-013  0.5052885E+02  0.7816164E-02  0.1300439E+00
        -11   -1    0    0    0    0  0.00000000000E+00  0.00000000000E+00  0.45593999997E+02  0.45594000000E+02  0.51100000000E-03 0.  1.
         11   -1    0    0    0    0 -0.00000000000E+00 -0.00000000000E+00 -0.45593999997E+02  0.45594000000E+02  0.51100000000E-03 0. -1.
    9900012    2    1    2    0    0  0.26751142883E-01  0.14740397207E+02 -0.37893092433E+02  0.50528849989E+02  0.29999970027E+02 0.  0.
        -12    1    1    2    0    0 -0.26751142883E-01 -0.14740397207E+02  0.37893092433E+02  0.40659150011E+02  0.00000000000E+00 0.  1.
         11    1    3    3    0    0 -0.12212221723E+02  0.13942734360E+02 -0.21310786183E+02  0.28243367520E+02  0.51100000000E-03 0. -1.
        -11    1    3    3    0    0  0.10397243939E+02  0.40347102067E+01 -0.12806210015E+02  0.16981772086E+02  0.51100000000E-03 0.  1.
        -12    1    3    3    0    0  0.18417289270E+01 -0.32370473600E+01 -0.37760962352E+01  0.53037103832E+01  0.00000000000E+00 0.  1.
</event>
<event>
 7    1  0.5041278E-013  0.5052885E+02  0.7816164E-02  0.1300439E+00
        -11   -1    0    0    0    0  0.00000000000E+00  0.00000000000E+00  0.45593999997E+02  0.45594000000E+02  0.51100000000E-03 0. -1.
         11   -1    0    0    0    0 -0.00000000000E+00 -0.00000000000E+00 -0.45593999997E+02  0.45594000000E+02  0.51100000000E-03 0.  1.
    9900012    2    1    2    0    0  0.19566913054E+02 -0.35263455981E+02  0.51759819829E+01  0.50528853382E+02  0.29999980340E+02 0.  0.
        -12    1    1    2    0    0 -0.19566913054E+02  0.35263455981E+02 -0.51759819829E+01  0.40659146618E+02  0.00000000000E+00 0.  1.
         11    1    3    3    0    0  0.85648891066E+01 -0.61652017620E-01  0.45667848730E+01  0.97065261920E+01  0.51100000000E-03 0. -1.
        -11    1    3    3    0    0  0.27697327059E+01 -0.78121299000E+01 -0.74113915573E+01  0.11118881145E+02  0.51100000000E-03 0.  1.
        -12    1    3    3    0    0  0.82322912413E+01 -0.27389674064E+02  0.80205886671E+01  0.29703446045E+02  0.00000000000E+00 0.  1.
</event>
<event>
 7    1  0.5041278E-013  0.5052886E+02  0.7816164E-02  0.1300439E+00
        -11   -1    0    0    0    0  0.00000000000E+00  0.00000000000E+00  0.45593999997E+02  0.45594000000E+02  0.51100000000E-03 0. -1.
         11   -1    0    0    0    0 -0.00000000000E+00 -0.00000000000E+00 -0.45593999997E+02  0.45594000000E+02  0.51100000000E-03 0.  1.
    9900012    2    1    2    0    0 -0.85002034664E+01 -0.14856369700E+02  0.36880898620E+02  0.50528857576E+02  0.29999993089E+02 0.  0.
        -12    1    1    2    0    0  0.85002034664E+01  0.14856369700E+02 -0.36880898620E+02  0.40659142424E+02  0.00000000000E+00 0.  1.
         11    1    3    3    0    0 -0.38014888405E+01 -0.12460425580E+02  0.76000100837E+01  0.15082230491E+02  0.51100000000E-03 0. -1.
        -11    1    3    3    0    0 -0.48299358847E+01 -0.10365287026E+02  0.12961858446E+02  0.17285173717E+02  0.51100000000E-03 0.  1.
        -12    1    3    3    0    0  0.13122125886E+00  0.79693429067E+01  0.16319030090E+02  0.18161453369E+02  0.00000000000E+00 0.  1.
</event>
<event>
 7    1  0.5041278E-013  0.5052886E+02  0.7816164E-02  0.1300439E+00
        -11   -1    0    0    0    0  0.00000000000E+00  0.00000000000E+00  0.45593999997E+02  0.45594000000E+02  0.51100000000E-03 0.  1.
         11   -1    0    0    0    0 -0.00000000000E+00 -0.00000000000E+00 -0.45593999997E+02  0.45594000000E+02  0.51100000000E-03 0. -1.
    9900012    2    1    2    0    0  0.17189115972E+02 -0.11242743123E+01 -0.36829819047E+02  0.50528864844E+02  0.30000015180E+02 0.  0.
        -12    1    1    2    0    0 -0.17189115972E+02  0.11242743123E+01  0.36829819047E+02  0.40659135156E+02  0.00000000000E+00 0.  1.
         11    1    3    3    0    0  0.26879988095E+01  0.69740601731E+01 -0.54437878728E+01  0.92464955288E+01  0.51100000000E-03 0. -1.
        -11    1    3    3    0    0 -0.65293602217E+00 -0.23778326620E+01  0.26309010965E+01  0.36058361663E+01  0.51100000000E-03 0.  1.
         12    1    3    3    0    0  0.15154053185E+02 -0.57205018234E+01 -0.34016932270E+02  0.37676533149E+02  0.00000000000E+00 0. -1.
</event>
<event>
 7    1  0.5041278E-013  0.5052886E+02  0.7816164E-02  0.1300439E+00
        -11   -1    0    0    0    0  0.00000000000E+00  0.00000000000E+00  0.45593999997E+02  0.45594000000E+02  0.51100000000E-03 0. -1.
         11   -1    0    0    0    0 -0.00000000000E+00 -0.00000000000E+00 -0.45593999997E+02  0.45594000000E+02  0.51100000000E-03 0.  1.
    9900012    2    1    2    0    0  0.36721848005E+02 -0.14905544470E+02  0.90827489776E+01  0.50528859504E+02  0.29999998949E+02 0.  0.
        -12    1    1    2    0    0 -0.36721848005E+02  0.14905544470E+02 -0.90827489776E+01  0.40659140496E+02  0.00000000000E+00 0.  1.
         11    1    3    3    0    0  0.12524896219E+02  0.13202302467E+01 -0.24547389921E+01  0.12831281190E+02  0.51100000000E-03 0. -1.
        -11    1    3    3    0    0  0.14622862409E+02 -0.18928988680E+01 -0.31202524532E+01  0.15071401620E+02  0.51100000000E-03 0.  1.
         12    1    3    3    0    0  0.95740893779E+01 -0.14332875849E+02  0.14657740423E+02  0.22626176695E+02  0.00000000000E+00 0. -1.
</event>
<event>
 7    1  0.5041278E-013  0.5052886E+02  0.7816164E-02  0.1300439E+00
        -11   -1    0    0    0    0  0.00000000000E+00  0.00000000000E+00  0.45593999997E+02  0.45594000000E+02  0.51100000000E-03 0.  1.
         11   -1    0    0    0    0 -0.00000000000E+00 -0.00000000000E+00 -0.45593999997E+02  0.45594000000E+02  0.51100000000E-03 0. -1.
    9900012    2    1    2    0    0 -0.37130996308E+02 -0.15748107638E+02  0.51431277460E+01  0.50528861494E+02  0.30000004998E+02 0.  0.
        -12    1    1    2    0    0  0.37130996308E+02  0.15748107638E+02 -0.51431277460E+01  0.40659138506E+02  0.00000000000E+00 0.  1.
         11    1    3    3    0    0  0.24433208460E+00 -0.13586230959E+01 -0.44573091243E+01  0.46661718544E+01  0.51100000000E-03 0.  1.
        -11    1    3    3    0    0 -0.24632218247E+02  0.12600076622E+01  0.54045499482E+01  0.25249612977E+02  0.51100000000E-03 0. -1.
         12    1    3    3    0    0 -0.12743110146E+02 -0.15649492205E+02  0.41958869220E+01  0.20613076663E+02  0.00000000000E+00 0. -1.
</event>
<event>
 7    1  0.5041278E-013  0.5052888E+02  0.7816164E-02  0.1300439E+00
        -11   -1    0    0    0    0  0.00000000000E+00  0.00000000000E+00  0.45593999997E+02  0.45594000000E+02  0.51100000000E-03 0.  1.
         11   -1    0    0    0    0 -0.00000000000E+00 -0.00000000000E+00 -0.45593999997E+02  0.45594000000E+02  0.51100000000E-03 0. -1.
    9900012    2    1    2    0    0  0.16137983382E+02  0.35341710033E+02 -0.11987220493E+02  0.50528875183E+02  0.30000046608E+02 0.  0.
        -12    1    1    2    0    0 -0.16137983382E+02 -0.35341710033E+02  0.11987220493E+02  0.40659124817E+02  0.00000000000E+00 0.  1.
         11    1    3    3    0    0 -0.25965676859E+01  0.11023977716E+02  0.11660883595E+01  0.11385517588E+02  0.51100000000E-03 0. -1.
        -11    1    3    3    0    0  0.15069089546E+02  0.11841754332E+02  0.18910099200E+01  0.19258258597E+02  0.51100000000E-03 0.  1.
         12    1    3    3    0    0  0.36654615219E+01  0.12475977985E+02 -0.15044318772E+02  0.19885098998E+02  0.00000000000E+00 0. -1.
</event>
<event>
 7    1  0.5041278E-013  0.5052889E+02  0.7816164E-02  0.1300439E+00
        -11   -1    0    0    0    0  0.00000000000E+00  0.00000000000E+00  0.45593999997E+02  0.45594000000E+02  0.51100000000E-03 0.  1.
         11   -1    0    0    0    0 -0.00000000000E+00 -0.00000000000E+00 -0.45593999997E+02  0.45594000000E+02  0.51100000000E-03 0. -1.
    9900012    2    1    2    0    0  0.37942673586E+02  0.22989815959E-01 -0.14612200816E+02  0.50528887613E+02  0.30000084390E+02 0.  0.
        -12    1    1    2    0    0 -0.37942673586E+02 -0.22989815959E-01  0.14612200816E+02  0.40659112387E+02  0.00000000000E+00 0.  1.
         11    1    3    3    0    0  0.30219652062E+02  0.11049328481E+01 -0.13068200953E+02  0.32942770433E+02  0.51100000000E-03 0. -1.
        -11    1    3    3    0    0  0.71286111708E+01  0.65308532292E+01  0.50144496259E+00  0.96809394398E+01  0.51100000000E-03 0.  1.
         12    1    3    3    0    0  0.59441035311E+00 -0.76127962614E+01 -0.20454448251E+01  0.79051777411E+01  0.00000000000E+00 0. -1.
</event>
<event>
 7    1  0.5041278E-013  0.5052886E+02  0.7816164E-02  0.1300439E+00
        -11   -1    0    0    0    0  0.00000000000E+00  0.00000000000E+00  0.45593999997E+02  0.45594000000E+02  0.51100000000E-03 0.  1.
         11   -1    0    0    0    0 -0.00000000000E+00 -0.00000000000E+00 -0.45593999997E+02  0.45594000000E+02  0.51100000000E-03 0. -1.
    9900012    2    1    2    0    0 -0.32291375879E+02 -0.19636579700E+02 -0.14994572586E+02  0.50528862952E+02  0.30000009429E+02 0.  0.
        -12    1    1    2    0    0  0.32291375879E+02  0.19636579700E+02  0.14994572586E+02  0.40659137048E+02  0.00000000000E+00 0.  1.
         11    1    3    3    0    0  0.75516661684E+00 -0.32304576271E+01 -0.30228662724E+01  0.44881904886E+01  0.51100000000E-03 0. -1.
        -11    1    3    3    0    0 -0.20468922503E+02 -0.21101422568E+02 -0.22875047614E+01  0.29486937806E+02  0.51100000000E-03 0.  1.
         12    1    3    3    0    0 -0.12577619992E+02  0.46953004956E+01 -0.96842015522E+01  0.16553734658E+02  0.00000000000E+00 0. -1.
</event>
<event>
 7    1  0.5041278E-013  0.5052886E+02  0.7816164E-02  0.1300439E+00
        -11   -1    0    0    0    0  0.00000000000E+00  0.00000000000E+00  0.45593999997E+02  0.45594000000E+02  0.51100000000E-03 0.  1.
         11   -1    0    0    0    0 -0.00000000000E+00 -0.00000000000E+00 -0.45593999997E+02  0.45594000000E+02  0.51100000000E-03 0. -1.
    9900012    2    1    2    0    0 -0.13232984571E+02 -0.38445434456E+02  0.49074665217E-01  0.50528859336E+02  0.29999998438E+02 0.  0.
        -12    1    1    2    0    0  0.13232984571E+02  0.38445434456E+02 -0.49074665217E-01  0.40659140664E+02  0.00000000000E+00 0.  1.
         11    1    3    3    0    0  0.12150357290E+01 -0.18640067360E+02 -0.28955949621E+01  0.18902721853E+02  0.51100000000E-03 0. -1.
        -11    1    3    3    0    0 -0.10581134942E+02 -0.68499005425E+01  0.10260959083E+02  0.16253271537E+02  0.51100000000E-03 0.  1.
         12    1    3    3    0    0 -0.38668853582E+01 -0.12955466554E+02 -0.73162894553E+01  0.15372865946E+02  0.00000000000E+00 0. -1.
</event>
<event>
 7    1  0.7462750E-013  0.5052885E+02  0.7816164E-02  0.1300439E+00
        -11   -1    0    0    0    0  0.00000000000E+00  0.00000000000E+00  0.45593999997E+02  0.45594000000E+02  0.51100000000E-03 0.  1.
         11   -1    0    0    0    0 -0.00000000000E+00 -0.00000000000E+00 -0.45593999997E+02  0.45594000000E+02  0.51100000000E-03 0. -1.
    9900012    2    1    2    0    0  0.36447819903E+02  0.28917482825E+00 -0.18017743830E+02  0.50528852315E+02  0.29999977096E+02 0.  0.
        -12    1    1    2    0    0 -0.36447819903E+02 -0.28917482825E+00  0.18017743830E+02  0.40659147685E+02  0.00000000000E+00 0.  1.
         11    1    3    3    0    0  0.25355311839E+02 -0.21544620042E+01 -0.65620237594E+01  0.26279149549E+02  0.51100000000E-03 0. -1.
        -11    1    3    3    0    0  0.54627448801E+01 -0.52553737634E+01  0.19219448310E+01  0.78201283374E+01  0.51100000000E-03 0.  1.
         12    1    3    3    0    0  0.56297631841E+01  0.76990105959E+01 -0.13377664902E+02  0.16429574428E+02  0.00000000000E+00 0. -1.
</event>
<event>
 7    1  0.1416308E-012  0.5052880E+02  0.7816164E-02  0.1300439E+00
        -11   -1    0    0    0    0  0.00000000000E+00  0.00000000000E+00  0.45593999997E+02  0.45594000000E+02  0.51100000000E-03 0.  1.
         11   -1    0    0    0    0 -0.00000000000E+00 -0.00000000000E+00 -0.45593999997E+02  0.45594000000E+02  0.51100000000E-03 0. -1.
    9900012    2    1    2    0    0  0.37382541525E+02 -0.14454312304E+02 -0.68402338758E+01  0.50528802338E+02  0.29999825187E+02 0.  0.
        -12    1    1    2    0    0 -0.37382541525E+02  0.14454312304E+02  0.68402338758E+01  0.40659197662E+02  0.00000000000E+00 0.  1.
         11    1    3    3    0    0  0.81418651042E+01 -0.44599723064E+00 -0.63253861224E+01  0.10319854203E+02  0.51100000000E-03 0. -1.
        -11    1    3    3    0    0 -0.78788593514E+00  0.44991052186E+01  0.16805379594E+01  0.48669210091E+01  0.51100000000E-03 0.  1.
         12    1    3    3    0    0  0.30028562355E+02 -0.18507420292E+02 -0.21953857128E+01  0.35342027127E+02  0.00000000000E+00 0. -1.
</event>
<event>
 7    1  0.5041278E-013  0.5052881E+02  0.7816164E-02  0.1300439E+00
        -11   -1    0    0    0    0  0.00000000000E+00  0.00000000000E+00  0.45593999997E+02  0.45594000000E+02  0.51100000000E-03 0.  1.
         11   -1    0    0    0    0 -0.00000000000E+00 -0.00000000000E+00 -0.45593999997E+02  0.45594000000E+02  0.51100000000E-03 0. -1.
    9900012    2    1    2    0    0  0.77571672734E+01 -0.22500864312E+02 -0.32965236409E+02  0.50528814686E+02  0.29999862719E+02 0.  0.
        -12    1    1    2    0    0 -0.77571672734E+01  0.22500864312E+02  0.32965236409E+02  0.40659185314E+02  0.00000000000E+00 0.  1.
         11    1    3    3    0    0  0.40640616380E+01 -0.10640034001E+02 -0.19520171436E+02  0.22600088798E+02  0.51100000000E-03 0. -1.
        -11    1    3    3    0    0 -0.19364024484E+01  0.30233891501E+01 -0.11318158135E+02  0.11873973229E+02  0.51100000000E-03 0.  1.
        -12    1    3    3    0    0  0.56295080838E+01 -0.14884219462E+02 -0.21269068381E+01  0.16054752659E+02  0.00000000000E+00 0.  1.
</event>
<event>
 7    1  0.5041278E-013  0.5052886E+02  0.7816164E-02  0.1300439E+00
        -11   -1    0    0    0    0  0.00000000000E+00  0.00000000000E+00  0.45593999997E+02  0.45594000000E+02  0.51100000000E-03 0.  1.
         11   -1    0    0    0    0 -0.00000000000E+00 -0.00000000000E+00 -0.45593999997E+02  0.45594000000E+02  0.51100000000E-03 0. -1.
    9900012    2    1    2    0    0  0.80254178546E+01  0.67923984219E+00 -0.39853441664E+02  0.50528861901E+02  0.30000006233E+02 0.  0.
        -12    1    1    2    0    0 -0.80254178546E+01 -0.67923984219E+00  0.39853441664E+02  0.40659138099E+02  0.00000000000E+00 0.  1.
         11    1    3    3    0    0  0.54250374172E+01 -0.24786989869E+01 -0.65520280467E+00  0.60003558746E+01  0.51100000000E-03 0. -1.
        -11    1    3    3    0    0  0.59103333159E+00  0.75024848075E+01 -0.31409591263E+01  0.81548895259E+01  0.51100000000E-03 0.  1.
         12    1    3    3    0    0  0.20093471059E+01 -0.43445459784E+01 -0.36057279733E+02  0.36373616500E+02  0.00000000000E+00 0. -1.
</event>
<event>
 7    1  0.5041278E-013  0.5052885E+02  0.7816164E-02  0.1300439E+00
        -11   -1    0    0    0    0  0.00000000000E+00  0.00000000000E+00  0.45593999997E+02  0.45594000000E+02  0.51100000000E-03 0.  1.
         11   -1    0    0    0    0 -0.00000000000E+00 -0.00000000000E+00 -0.45593999997E+02  0.45594000000E+02  0.51100000000E-03 0. -1.
    9900012    2    1    2    0    0 -0.11044832452E+02 -0.23272472289E+02 -0.31457431355E+02  0.50528852471E+02  0.29999977569E+02 0.  0.
        -12    1    1    2    0    0  0.11044832452E+02  0.23272472289E+02  0.31457431355E+02  0.40659147529E+02  0.00000000000E+00 0.  1.
         11    1    3    3    0    0  0.59393439841E+00 -0.23774903172E+01 -0.35345627413E+01  0.43009710894E+01  0.51100000000E-03 0. -1.
        -11    1    3    3    0    0 -0.92422060123E+01 -0.14294195730E+02  0.42101947298E+00  0.17027027374E+02  0.51100000000E-03 0.  1.
        -12    1    3    3    0    0 -0.23965608386E+01 -0.66007862422E+01 -0.28343888087E+02  0.29200854007E+02  0.00000000000E+00 0.  1.
</event>
<event>
 7    1  0.5041278E-013  0.5052886E+02  0.7816164E-02  0.1300439E+00
        -11   -1    0    0    0    0  0.00000000000E+00  0.00000000000E+00  0.45593999997E+02  0.45594000000E+02  0.51100000000E-03 0.  1.
         11   -1    0    0    0    0 -0.00000000000E+00 -0.00000000000E+00 -0.45593999997E+02  0.45594000000E+02  0.51100000000E-03 0. -1.
    9900012    2    1    2    0    0  0.27145360832E+01 -0.86338982549E+01 -0.39639032195E+02  0.50528858610E+02  0.29999996230E+02 0.  0.
        -12    1    1    2    0    0 -0.27145360832E+01  0.86338982549E+01  0.39639032195E+02  0.40659141390E+02  0.00000000000E+00 0.  1.
         11    1    3    3    0    0 -0.20876377555E-01 -0.41691807713E+01 -0.20558582634E+02  0.20977078545E+02  0.51100000000E-03 0. -1.
        -11    1    3    3    0    0 -0.66256852127E+01 -0.90952497907E+01 -0.13929603333E+02  0.17906901535E+02  0.51100000000E-03 0.  1.
         12    1    3    3    0    0  0.93610976735E+01  0.46305323071E+01 -0.51508462285E+01  0.11644878530E+02  0.00000000000E+00 0. -1.
</event>
<event>
 7    1  0.5041278E-013  0.5052892E+02  0.7816164E-02  0.1300439E+00
        -11   -1    0    0    0    0  0.00000000000E+00  0.00000000000E+00  0.45593999997E+02  0.45594000000E+02  0.51100000000E-03 0.  1.
         11   -1    0    0    0    0 -0.00000000000E+00 -0.00000000000E+00 -0.45593999997E+02  0.45594000000E+02  0.51100000000E-03 0. -1.
    9900012    2    1    2    0    0  0.12668128711E+02  0.31647809729E+02 -0.22160676856E+02  0.50528918057E+02  0.30000176926E+02 0.  0.
        -12    1    1    2    0    0 -0.12668128711E+02 -0.31647809729E+02  0.22160676856E+02  0.40659081943E+02  0.00000000000E+00 0.  1.
         11    1    3    3    0    0  0.73345935360E+00  0.87791576570E+01 -0.10762051738E+02  0.13908031121E+02  0.51100000000E-03 0. -1.
        -11    1    3    3    0    0  0.35012842154E+01  0.45943792364E+01 -0.15090865967E+02  0.16158636935E+02  0.51100000000E-03 0.  1.
        -12    1    3    3    0    0  0.84333851416E+01  0.18274272836E+02  0.36922408478E+01  0.20462250001E+02  0.00000000000E+00 0.  1.
</event>
<event>
 7    1  0.5041278E-013  0.5052888E+02  0.7816164E-02  0.1300439E+00
        -11   -1    0    0    0    0  0.00000000000E+00  0.00000000000E+00  0.45593999997E+02  0.45594000000E+02  0.51100000000E-03 0. -1.
         11   -1    0    0    0    0 -0.00000000000E+00 -0.00000000000E+00 -0.45593999997E+02  0.45594000000E+02  0.51100000000E-03 0.  1.
    9900012    2    1    2    0    0  0.14060823187E+02 -0.25291676402E+02  0.28562006373E+02  0.50528882302E+02  0.30000068245E+02 0.  0.
        -12    1    1    2    0    0 -0.14060823187E+02  0.25291676402E+02 -0.28562006373E+02  0.40659117698E+02  0.00000000000E+00 0.  1.
         11    1    3    3    0    0  0.15260091240E+02 -0.21081945327E+02  0.17592245712E+02  0.31413467063E+02  0.51100000000E-03 0. -1.
        -11    1    3    3    0    0  0.28171088352E+01  0.42797815150E+01  0.75419513667E+01  0.91177663210E+01  0.51100000000E-03 0.  1.
         12    1    3    3    0    0 -0.40163768885E+01 -0.84895125906E+01  0.34278092940E+01  0.99976489183E+01  0.00000000000E+00 0. -1.
</event>
<event>
 7    1  0.5041278E-013  0.5052886E+02  0.7816164E-02  0.1300439E+00
        -11   -1    0    0    0    0  0.00000000000E+00  0.00000000000E+00  0.45593999997E+02  0.45594000000E+02  0.51100000000E-03 0.  1.
         11   -1    0    0    0    0 -0.00000000000E+00 -0.00000000000E+00 -0.45593999997E+02  0.45594000000E+02  0.51100000000E-03 0. -1.
    9900012    2    1    2    0    0 -0.14018598067E+02  0.11817094638E+02 -0.36290504250E+02  0.50528861837E+02  0.30000006040E+02 0.  0.
        -12    1    1    2    0    0  0.14018598067E+02 -0.11817094638E+02  0.36290504250E+02  0.40659138163E+02  0.00000000000E+00 0.  1.
         11    1    3    3    0    0 -0.37027850428E+01 -0.64341233304E+00 -0.15165495498E+02  0.15624239196E+02  0.51100000000E-03 0. -1.
        -11    1    3    3    0    0 -0.13170602661E+02  0.84777919682E+01 -0.27694094038E+01  0.15906205073E+02  0.51100000000E-03 0.  1.
         12    1    3    3    0    0  0.28547896371E+01  0.39827150028E+01 -0.18355599348E+02  0.18998417568E+02  0.00000000000E+00 0. -1.
</event>
<event>
 7    1  0.5041278E-013  0.5052888E+02  0.7816164E-02  0.1300439E+00
        -11   -1    0    0    0    0  0.00000000000E+00  0.00000000000E+00  0.45593999997E+02  0.45594000000E+02  0.51100000000E-03 0.  1.
         11   -1    0    0    0    0 -0.00000000000E+00 -0.00000000000E+00 -0.45593999997E+02  0.45594000000E+02  0.51100000000E-03 0. -1.
    9900012    2    1    2    0    0 -0.25854207893E+02  0.26986647183E+02 -0.16013899799E+02  0.50528878284E+02  0.30000056032E+02 0.  0.
        -12    1    1    2    0    0  0.25854207893E+02 -0.26986647183E+02  0.16013899799E+02  0.40659121716E+02  0.00000000000E+00 0.  1.
         11    1    3    3    0    0 -0.49904858154E+01  0.86391808772E+01 -0.14727762589E+02  0.17788968099E+02  0.51100000000E-03 0. -1.
        -11    1    3    3    0    0  0.19475496862E+01 -0.65013451928E-01 -0.27706398533E+01  0.33872735329E+01  0.51100000000E-03 0.  1.
         12    1    3    3    0    0 -0.22811271764E+02  0.18412479757E+02  0.14845026436E+01  0.29352636652E+02  0.00000000000E+00 0. -1.
</event>
<event>
 7    1  0.5041278E-013  0.5052886E+02  0.7816164E-02  0.1300439E+00
        -11   -1    0    0    0    0  0.00000000000E+00  0.00000000000E+00  0.45593999997E+02  0.45594000000E+02  0.51100000000E-03 0.  1.
         11   -1    0    0    0    0 -0.00000000000E+00 -0.00000000000E+00 -0.45593999997E+02  0.45594000000E+02  0.51100000000E-03 0. -1.
    9900012    2    1    2    0    0 -0.40351943199E+02  0.42972613243E+01 -0.25338260303E+01  0.50528855282E+02  0.29999986116E+02 0.  0.
        -12    1    1    2    0    0  0.40351943199E+02 -0.42972613243E+01  0.25338260303E+01  0.40659144718E+02  0.00000000000E+00 0.  1.
         11    1    3    3    0    0 -0.61122430989E+01  0.78656863252E+00  0.77396162354E+01  0.98934253748E+01  0.51100000000E-03 0. -1.
        -11    1    3    3    0    0  0.13973025977E+01  0.34021414809E+01 -0.91943028759E+00  0.37910913364E+01  0.51100000000E-03 0.  1.
         12    1    3    3    0    0 -0.35637002698E+02  0.10855121087E+00 -0.93540119781E+01  0.36844338571E+02  0.00000000000E+00 0. -1.
</event>
<event>
 7    1  0.5041278E-013  0.5052886E+02  0.7816164E-02  0.1300439E+00
        -11   -1    0    0    0    0  0.00000000000E+00  0.00000000000E+00  0.45593999997E+02  0.45594000000E+02  0.51100000000E-03 0. -1.
         11   -1    0    0    0    0 -0.00000000000E+00 -0.00000000000E+00 -0.45593999997E+02  0.45594000000E+02  0.51100000000E-03 0.  1.
    9900012    2    1    2    0    0 -0.22060373114E+02 -0.18846532127E+02  0.28483571819E+02  0.50528859592E+02  0.29999999216E+02 0.  0.
        -12    1    1    2    0    0  0.22060373114E+02  0.18846532127E+02 -0.28483571819E+02  0.40659140408E+02  0.00000000000E+00 0.  1.
         11    1    3    3    0    0 -0.20219268941E+02 -0.12080679204E+02  0.86908207990E+01  0.25105617159E+02  0.51100000000E-03 0. -1.
        -11    1    3    3    0    0  0.33287378304E+01 -0.82971469259E+01  0.64256009621E+01  0.11009609014E+02  0.51100000000E-03 0.  1.
        -12    1    3    3    0    0 -0.51698420035E+01  0.15312940029E+01  0.13367150058E+02  0.14413633419E+02  0.00000000000E+00 0.  1.
</event>
<event>
 7    1  0.5041278E-013  0.5052886E+02  0.7816164E-02  0.1300439E+00
        -11   -1    0    0    0    0  0.00000000000E+00  0.00000000000E+00  0.45593999997E+02  0.45594000000E+02  0.51100000000E-03 0.  1.
         11   -1    0    0    0    0 -0.00000000000E+00 -0.00000000000E+00 -0.45593999997E+02  0.45594000000E+02  0.51100000000E-03 0. -1.
    9900012    2    1    2    0    0 -0.20999861706E+02  0.13156317154E+02 -0.32234806279E+02  0.50528860701E+02  0.30000002586E+02 0.  0.
        -12    1    1    2    0    0  0.20999861706E+02 -0.13156317154E+02  0.32234806279E+02  0.40659139299E+02  0.00000000000E+00 0.  1.
         11    1    3    3    0    0 -0.86309453234E+01  0.16476621752E+02 -0.11819071790E+02  0.22037757140E+02  0.51100000000E-03 0. -1.
        -11    1    3    3    0    0  0.27696037700E+01 -0.14789663539E+01 -0.87333657620E+01  0.92806101262E+01  0.51100000000E-03 0.  1.
        -12    1    3    3    0    0 -0.15138520153E+02 -0.18413382438E+01 -0.11682368726E+02  0.19210493435E+02  0.00000000000E+00 0.  1.
</event>
<event>
 7    1  0.5041278E-013  0.5052881E+02  0.7816164E-02  0.1300439E+00
        -11   -1    0    0    0    0  0.00000000000E+00  0.00000000000E+00  0.45593999997E+02  0.45594000000E+02  0.51100000000E-03 0.  1.
         11   -1    0    0    0    0 -0.00000000000E+00 -0.00000000000E+00 -0.45593999997E+02  0.45594000000E+02  0.51100000000E-03 0. -1.
    9900012    2    1    2    0    0 -0.29333104451E+02  0.29144931713E+01 -0.28004359715E+02  0.50528813459E+02  0.29999858988E+02 0.  0.
        -12    1    1    2    0    0  0.29333104451E+02 -0.29144931713E+01  0.28004359715E+02  0.40659186541E+02  0.00000000000E+00 0.  1.
         11    1    3    3    0    0 -0.18948507097E+02  0.87395367675E+01 -0.15602334454E+02  0.26054908651E+02  0.51100000000E-03 0.  1.
        -11    1    3    3    0    0 -0.27432469164E+01  0.86312237380E+00 -0.13913097097E+02  0.14207204333E+02  0.51100000000E-03 0. -1.
        -12    1    3    3    0    0 -0.76413504374E+01 -0.66881659700E+01  0.15110718357E+01  0.10266700475E+02  0.00000000000E+00 0.  1.
</event>
<event>
 7    1  0.5041278E-013  0.5052886E+02  0.7816164E-02  0.1300439E+00
        -11   -1    0    0    0    0  0.00000000000E+00  0.00000000000E+00  0.45593999997E+02  0.45594000000E+02  0.51100000000E-03 0. -1.
         11   -1    0    0    0    0 -0.00000000000E+00 -0.00000000000E+00 -0.45593999997E+02  0.45594000000E+02  0.51100000000E-03 0.  1.
    9900012    2    1    2    0    0  0.33974857363E+02 -0.15108966199E+02  0.16449738583E+02  0.50528859676E+02  0.29999999470E+02 0.  0.
        -12    1    1    2    0    0 -0.33974857363E+02  0.15108966199E+02 -0.16449738583E+02  0.40659140324E+02  0.00000000000E+00 0.  1.
         11    1    3    3    0    0  0.76095200191E+01 -0.13302928619E+02  0.11579575788E+02  0.19208312796E+02  0.51100000000E-03 0. -1.
        -11    1    3    3    0    0  0.23619919170E+02 -0.72546548210E+01  0.50368262125E+01  0.25217062016E+02  0.51100000000E-03 0.  1.
        -12    1    3    3    0    0  0.27454181740E+01  0.54486172407E+01 -0.16666341803E+00  0.61034848636E+01  0.00000000000E+00 0.  1.
</event>
<event>
 7    1  0.5041278E-013  0.5052886E+02  0.7816164E-02  0.1300439E+00
        -11   -1    0    0    0    0  0.00000000000E+00  0.00000000000E+00  0.45593999997E+02  0.45594000000E+02  0.51100000000E-03 0. -1.
         11   -1    0    0    0    0 -0.00000000000E+00 -0.00000000000E+00 -0.45593999997E+02  0.45594000000E+02  0.51100000000E-03 0.  1.
    9900012    2    1    2    0    0  0.95498145386E+01  0.39418810609E+02  0.28502437632E+01  0.50528862318E+02  0.30000007503E+02 0.  0.
        -12    1    1    2    0    0 -0.95498145386E+01 -0.39418810609E+02 -0.28502437632E+01  0.40659137682E+02  0.00000000000E+00 0.  1.
         11    1    3    3    0    0  0.12037598029E+01  0.14409268063E+01 -0.55028603570E+01  0.58143598181E+01  0.51100000000E-03 0. -1.
        -11    1    3    3    0    0  0.18504102552E+01  0.21358065733E+02 -0.54905759594E+01  0.22130011627E+02  0.51100000000E-03 0.  1.
         12    1    3    3    0    0  0.64956444805E+01  0.16619818069E+02  0.13843680080E+02  0.22584490873E+02  0.00000000000E+00 0. -1.
</event>
<event>
 7    1  0.5041278E-013  0.5052886E+02  0.7816164E-02  0.1300439E+00
        -11   -1    0    0    0    0  0.00000000000E+00  0.00000000000E+00  0.45593999997E+02  0.45594000000E+02  0.51100000000E-03 0.  1.
         11   -1    0    0    0    0 -0.00000000000E+00 -0.00000000000E+00 -0.45593999997E+02  0.45594000000E+02  0.51100000000E-03 0. -1.
    9900012    2    1    2    0    0  0.37211602685E+02  0.80125840168E+00 -0.16365216124E+02  0.50528859722E+02  0.29999999610E+02 0.  0.
        -12    1    1    2    0    0 -0.37211602685E+02 -0.80125840168E+00  0.16365216124E+02  0.40659140278E+02  0.00000000000E+00 0.  1.
         11    1    3    3    0    0  0.30296808914E+01 -0.10255874273E+01 -0.13166182724E+02  0.13549138853E+02  0.51100000000E-03 0. -1.
        -11    1    3    3    0    0 -0.45535794650E+00  0.14922657636E+01 -0.17014123442E+01  0.23084653333E+01  0.51100000000E-03 0.  1.
         12    1    3    3    0    0  0.34637279740E+02  0.33458006540E+00 -0.14976210555E+01  0.34671255536E+02  0.00000000000E+00 0. -1.
</event>
<event>
 7    1  0.5041278E-013  0.5052886E+02  0.7816164E-02  0.1300439E+00
        -11   -1    0    0    0    0  0.00000000000E+00  0.00000000000E+00  0.45593999997E+02  0.45594000000E+02  0.51100000000E-03 0.  1.
         11   -1    0    0    0    0 -0.00000000000E+00 -0.00000000000E+00 -0.45593999997E+02  0.45594000000E+02  0.51100000000E-03 0. -1.
    9900012    2    1    2    0    0 -0.12734104299E+02  0.15204676557E+02 -0.35494030404E+02  0.50528858398E+02  0.29999995586E+02 0.  0.
        -12    1    1    2    0    0  0.12734104299E+02 -0.15204676557E+02  0.35494030404E+02  0.40659141602E+02  0.00000000000E+00 0.  1.
         11    1    3    3    0    0  0.23060844911E+00 -0.26802861435E+01  0.13347158424E+00  0.26934975391E+01  0.51100000000E-03 0. -1.
        -11    1    3    3    0    0 -0.72201997850E+01  0.20136626521E+02 -0.14544551788E+02  0.25868107769E+02  0.51100000000E-03 0.  1.
         12    1    3    3    0    0 -0.57445129630E+01 -0.22516638207E+01 -0.21082950200E+02  0.21967253089E+02  0.00000000000E+00 0. -1.
</event>
<event>
 7    1  0.5041278E-013  0.5052886E+02  0.7816164E-02  0.1300439E+00
        -11   -1    0    0    0    0  0.00000000000E+00  0.00000000000E+00  0.45593999997E+02  0.45594000000E+02  0.51100000000E-03 0.  1.
         11   -1    0    0    0    0 -0.00000000000E+00 -0.00000000000E+00 -0.45593999997E+02  0.45594000000E+02  0.51100000000E-03 0. -1.
    9900012    2    1    2    0    0 -0.15737964302E+02 -0.18791834608E+02 -0.32439924510E+02  0.50528864858E+02  0.30000015222E+02 0.  0.
        -12    1    1    2    0    0  0.15737964302E+02  0.18791834608E+02  0.32439924510E+02  0.40659135142E+02  0.00000000000E+00 0.  1.
         11    1    3    3    0    0 -0.41616594908E+01 -0.11889659687E+02 -0.20930086323E+02  0.24428506523E+02  0.51100000000E-03 0. -1.
        -11    1    3    3    0    0 -0.65177480255E+01 -0.11790506963E+02 -0.13204953987E+02  0.18864461398E+02  0.51100000000E-03 0.  1.
        -12    1    3    3    0    0 -0.50585567856E+01  0.48883320423E+01  0.16951158001E+01  0.72358969372E+01  0.00000000000E+00 0.  1.
</event>
<event>
 7    1  0.5041278E-013  0.5052886E+02  0.7816164E-02  0.1300439E+00
        -11   -1    0    0    0    0  0.00000000000E+00  0.00000000000E+00  0.45593999997E+02  0.45594000000E+02  0.51100000000E-03 0.  1.
         11   -1    0    0    0    0 -0.00000000000E+00 -0.00000000000E+00 -0.45593999997E+02  0.45594000000E+02  0.51100000000E-03 0. -1.
    9900012    2    1    2    0    0  0.25151613253E+02  0.31364053383E+02  0.60711031945E+01  0.50528858496E+02  0.29999995885E+02 0.  0.
        -12    1    1    2    0    0 -0.25151613253E+02 -0.31364053383E+02 -0.60711031945E+01  0.40659141504E+02  0.00000000000E+00 0.  1.
         11    1    3    3    0    0  0.68890499212E+01  0.18871829119E+02  0.88954300662E+01  0.21971199772E+02  0.51100000000E-03 0. -1.
        -11    1    3    3    0    0  0.23598552579E+01  0.43816749066E+01  0.66828217670E+01  0.83323525403E+01  0.51100000000E-03 0.  1.
        -12    1    3    3    0    0  0.15902708074E+02  0.81105493571E+01 -0.95071486388E+01  0.20225306183E+02  0.00000000000E+00 0.  1.
</event>
<event>
 7    1  0.5041278E-013  0.5052886E+02  0.7816164E-02  0.1300439E+00
        -11   -1    0    0    0    0  0.00000000000E+00  0.00000000000E+00  0.45593999997E+02  0.45594000000E+02  0.51100000000E-03 0. -1.
         11   -1    0    0    0    0 -0.00000000000E+00 -0.00000000000E+00 -0.45593999997E+02  0.45594000000E+02  0.51100000000E-03 0.  1.
    9900012    2    1    2    0    0  0.40585509574E+02  0.18278557135E+01  0.16250735545E+01  0.50528861938E+02  0.30000006348E+02 0.  0.
        -12    1    1    2    0    0 -0.40585509574E+02 -0.18278557135E+01 -0.16250735545E+01  0.40659138062E+02  0.00000000000E+00 0.  1.
         11    1    3    3    0    0  0.45818804513E+01 -0.40417388280E+01 -0.37772219042E+01  0.71830833768E+01  0.51100000000E-03 0. -1.
        -11    1    3    3    0    0  0.22095246269E+02 -0.76319065149E-01 -0.76342682338E+01  0.23377078175E+02  0.51100000000E-03 0.  1.
         12    1    3    3    0    0  0.13908382853E+02  0.59459136066E+01  0.13036563692E+02  0.19968700386E+02  0.00000000000E+00 0. -1.
</event>
<event>
 7    1  0.5041278E-013  0.5052886E+02  0.7816164E-02  0.1300439E+00
        -11   -1    0    0    0    0  0.00000000000E+00  0.00000000000E+00  0.45593999997E+02  0.45594000000E+02  0.51100000000E-03 0.  1.
         11   -1    0    0    0    0 -0.00000000000E+00 -0.00000000000E+00 -0.45593999997E+02  0.45594000000E+02  0.51100000000E-03 0. -1.
    9900012    2    1    2    0    0  0.27455321843E+02  0.25553499324E+02 -0.15696808652E+02  0.50528858014E+02  0.29999994420E+02 0.  0.
        -12    1    1    2    0    0 -0.27455321843E+02 -0.25553499324E+02  0.15696808652E+02  0.40659141986E+02  0.00000000000E+00 0.  1.
         11    1    3    3    0    0  0.16088420726E+02  0.20494656029E+01 -0.87795628958E+01  0.18442296918E+02  0.51100000000E-03 0. -1.
        -11    1    3    3    0    0  0.15502197738E+02  0.13687507516E+02 -0.45597677104E+01  0.21176814646E+02  0.51100000000E-03 0.  1.
        -12    1    3    3    0    0 -0.41352966211E+01  0.98165262049E+01 -0.23574780462E+01  0.10909746450E+02  0.00000000000E+00 0.  1.
</event>
<event>
 7    1  0.5041278E-013  0.5052886E+02  0.7816164E-02  0.1300439E+00
        -11   -1    0    0    0    0  0.00000000000E+00  0.00000000000E+00  0.45593999997E+02  0.45594000000E+02  0.51100000000E-03 0.  1.
         11   -1    0    0    0    0 -0.00000000000E+00 -0.00000000000E+00 -0.45593999997E+02  0.45594000000E+02  0.51100000000E-03 0. -1.
    9900012    2    1    2    0    0  0.17155982660E+02 -0.24412504925E+02 -0.27620052459E+02  0.50528862828E+02  0.30000009053E+02 0.  0.
        -12    1    1    2    0    0 -0.17155982660E+02  0.24412504925E+02  0.27620052459E+02  0.40659137172E+02  0.00000000000E+00 0.  1.
         11    1    3    3    0    0 -0.23776367570E+01 -0.87549929716E+01 -0.60333743790E+01  0.10895167054E+02  0.51100000000E-03 0. -1.
        -11    1    3    3    0    0  0.71585921550E+01 -0.94485952006E+01  0.22518784733E+01  0.12066165498E+02  0.51100000000E-03 0.  1.
        -12    1    3    3    0    0  0.12375027262E+02 -0.62089167525E+01 -0.23838556553E+02  0.27567530276E+02  0.00000000000E+00 0.  1.
</event>
<event>
 7    1  0.5041278E-013  0.5052886E+02  0.7816164E-02  0.1300439E+00
        -11   -1    0    0    0    0  0.00000000000E+00  0.00000000000E+00  0.45593999997E+02  0.45594000000E+02  0.51100000000E-03 0.  1.
         11   -1    0    0    0    0 -0.00000000000E+00 -0.00000000000E+00 -0.45593999997E+02  0.45594000000E+02  0.51100000000E-03 0. -1.
    9900012    2    1    2    0    0  0.85061648075E+01  0.17812587423E+02 -0.35546057279E+02  0.50528864514E+02  0.30000014176E+02 0.  0.
        -12    1    1    2    0    0 -0.85061648075E+01 -0.17812587423E+02  0.35546057279E+02  0.40659135486E+02  0.00000000000E+00 0.  1.
         11    1    3    3    0    0 -0.89535198129E+00 -0.20893393703E+01 -0.75394438318E+01  0.78746560388E+01  0.51100000000E-03 0. -1.
        -11    1    3    3    0    0  0.94780246564E+01  0.13198121648E+02 -0.31238411507E+02  0.35211670226E+02  0.51100000000E-03 0.  1.
        -12    1    3    3    0    0 -0.76507867640E-01  0.67038051454E+01  0.32317980596E+01  0.74425382484E+01  0.00000000000E+00 0.  1.
</event>
<event>
 7    1  0.6086068E-013  0.5052886E+02  0.7816164E-02  0.1300439E+00
        -11   -1    0    0    0    0  0.00000000000E+00  0.00000000000E+00  0.45593999997E+02  0.45594000000E+02  0.51100000000E-03 0.  1.
         11   -1    0    0    0    0 -0.00000000000E+00 -0.00000000000E+00 -0.45593999997E+02  0.45594000000E+02  0.51100000000E-03 0. -1.
    9900012    2    1    2    0    0  0.28131045368E+02 -0.26966510062E+02 -0.11602474035E+02  0.50528858566E+02  0.29999996097E+02 0.  0.
        -12    1    1    2    0    0 -0.28131045368E+02  0.26966510062E+02  0.11602474035E+02  0.40659141434E+02  0.00000000000E+00 0.  1.
         11    1    3    3    0    0 -0.76839496760E+00 -0.68085128728E+01 -0.60487981932E+01  0.91397066807E+01  0.51100000000E-03 0. -1.
        -11    1    3    3    0    0  0.19334085750E+01  0.25427493755E+01  0.37568425934E+01  0.49312787020E+01  0.51100000000E-03 0.  1.
         12    1    3    3    0    0  0.26966031761E+02 -0.22700746564E+02 -0.93105184355E+01  0.36457873183E+02  0.00000000000E+00 0. -1.
</event>
<event>
 7    1  0.5041278E-013  0.5052887E+02  0.7816164E-02  0.1300439E+00
        -11   -1    0    0    0    0  0.00000000000E+00  0.00000000000E+00  0.45593999997E+02  0.45594000000E+02  0.51100000000E-03 0.  1.
         11   -1    0    0    0    0 -0.00000000000E+00 -0.00000000000E+00 -0.45593999997E+02  0.45594000000E+02  0.51100000000E-03 0. -1.
    9900012    2    1    2    0    0  0.66238255928E+01  0.38971233922E+02 -0.95148714350E+01  0.50528869201E+02  0.30000028424E+02 0.  0.
        -12    1    1    2    0    0 -0.66238255928E+01 -0.38971233922E+02  0.95148714350E+01  0.40659130799E+02  0.00000000000E+00 0.  1.
         11    1    3    3    0    0  0.55948958621E+00  0.26954373404E+02 -0.10628963020E+02  0.28979753783E+02  0.51100000000E-03 0. -1.
        -11    1    3    3    0    0 -0.51531547621E+01  0.49525168828E+01  0.36916086517E+01  0.80442776043E+01  0.51100000000E-03 0.  1.
        -12    1    3    3    0    0  0.11217490769E+02  0.70643436355E+01 -0.25775170670E+01  0.13504837814E+02  0.00000000000E+00 0.  1.
</event>
<event>
 7    1  0.5041278E-013  0.5052886E+02  0.7816164E-02  0.1300439E+00
        -11   -1    0    0    0    0  0.00000000000E+00  0.00000000000E+00  0.45593999997E+02  0.45594000000E+02  0.51100000000E-03 0.  1.
         11   -1    0    0    0    0 -0.00000000000E+00 -0.00000000000E+00 -0.45593999997E+02  0.45594000000E+02  0.51100000000E-03 0. -1.
    9900012    2    1    2    0    0 -0.11321795658E+00  0.35313595594E+02 -0.20151989580E+02  0.50528861592E+02  0.30000005295E+02 0.  0.
        -12    1    1    2    0    0  0.11321795658E+00 -0.35313595594E+02  0.20151989580E+02  0.40659138408E+02  0.00000000000E+00 0.  1.
         11    1    3    3    0    0  0.43857352032E+01  0.32293971367E+01 -0.63894893249E+00  0.54837883929E+01  0.51100000000E-03 0. -1.
        -11    1    3    3    0    0  0.11924128705E+01  0.34363051212E+02 -0.17577240287E+02  0.38616065483E+02  0.51100000000E-03 0.  1.
         12    1    3    3    0    0 -0.56913660303E+01 -0.22788527552E+01 -0.19358003605E+01  0.64290077156E+01  0.00000000000E+00 0. -1.
</event>
<event>
 7    1  0.5041278E-013  0.5052883E+02  0.7816164E-02  0.1300439E+00
        -11   -1    0    0    0    0  0.00000000000E+00  0.00000000000E+00  0.45593999997E+02  0.45594000000E+02  0.51100000000E-03 0.  1.
         11   -1    0    0    0    0 -0.00000000000E+00 -0.00000000000E+00 -0.45593999997E+02  0.45594000000E+02  0.51100000000E-03 0. -1.
    9900012    2    1    2    0    0  0.11896212863E+02 -0.12044710824E+02 -0.36967195811E+02  0.50528825077E+02  0.29999894304E+02 0.  0.
        -12    1    1    2    0    0 -0.11896212863E+02  0.12044710824E+02  0.36967195811E+02  0.40659174923E+02  0.00000000000E+00 0.  1.
         11    1    3    3    0    0  0.16531056115E+02 -0.11043993720E+02 -0.38970058966E+02  0.43748269790E+02  0.51100000000E-03 0. -1.
        -11    1    3    3    0    0  0.69728574349E+00 -0.76483971685E+00  0.80311564970E+00  0.13100313769E+01  0.51100000000E-03 0.  1.
         12    1    3    3    0    0 -0.53321289960E+01 -0.23587738641E+00  0.11997475052E+01  0.54705239098E+01  0.00000000000E+00 0. -1.
</event>
<event>
 7    1  0.5041278E-013  0.5052886E+02  0.7816164E-02  0.1300439E+00
        -11   -1    0    0    0    0  0.00000000000E+00  0.00000000000E+00  0.45593999997E+02  0.45594000000E+02  0.51100000000E-03 0.  1.
         11   -1    0    0    0    0 -0.00000000000E+00 -0.00000000000E+00 -0.45593999997E+02  0.45594000000E+02  0.51100000000E-03 0. -1.
    9900012    2    1    2    0    0  0.26035586613E+02 -0.30432760235E+02 -0.70114719349E+01  0.50528863210E+02  0.30000010214E+02 0.  0.
        -12    1    1    2    0    0 -0.26035586613E+02  0.30432760235E+02  0.70114719349E+01  0.40659136790E+02  0.00000000000E+00 0.  1.
         11    1    3    3    0    0  0.21995083872E+01 -0.23838781591E+01  0.35322033776E+01  0.47955367984E+01  0.51100000000E-03 0.  1.
        -11    1    3    3    0    0  0.22081837482E+02 -0.12834991475E+02 -0.15205769137E+02  0.29724736635E+02  0.51100000000E-03 0. -1.
         12    1    3    3    0    0  0.17542407439E+01 -0.15213890601E+02  0.46620938249E+01  0.16008589777E+02  0.00000000000E+00 0. -1.
</event>
<event>
 7    1  0.5041278E-013  0.5052886E+02  0.7816164E-02  0.1300439E+00
        -11   -1    0    0    0    0  0.00000000000E+00  0.00000000000E+00  0.45593999997E+02  0.45594000000E+02  0.51100000000E-03 0. -1.
         11   -1    0    0    0    0 -0.00000000000E+00 -0.00000000000E+00 -0.45593999997E+02  0.45594000000E+02  0.51100000000E-03 0.  1.
    9900012    2    1    2    0    0  0.36718607655E+02 -0.15617695660E+02 -0.78100699044E+01  0.50528858866E+02  0.29999997009E+02 0.  0.
        -12    1    1    2    0    0 -0.36718607655E+02  0.15617695660E+02  0.78100699044E+01  0.40659141134E+02  0.00000000000E+00 0.  1.
         11    1    3    3    0    0  0.24441524615E+02 -0.12885904235E+02 -0.36966978568E+01  0.27876517515E+02  0.51100000000E-03 0. -1.
        -11    1    3    3    0    0  0.68710654235E+01 -0.69602570123E+01 -0.97208644970E+01  0.13789558534E+02  0.51100000000E-03 0.  1.
        -12    1    3    3    0    0  0.54060176163E+01  0.42284655872E+01  0.56074924493E+01  0.88627828169E+01  0.00000000000E+00 0.  1.
</event>
<event>
 7    1  0.5041278E-013  0.5052886E+02  0.7816164E-02  0.1300439E+00
        -11   -1    0    0    0    0  0.00000000000E+00  0.00000000000E+00  0.45593999997E+02  0.45594000000E+02  0.51100000000E-03 0.  1.
         11   -1    0    0    0    0 -0.00000000000E+00 -0.00000000000E+00 -0.45593999997E+02  0.45594000000E+02  0.51100000000E-03 0. -1.
    9900012    2    1    2    0    0  0.10776783837E+02 -0.16171626452E+02 -0.35714213338E+02  0.50528860728E+02  0.30000002669E+02 0.  0.
        -12    1    1    2    0    0 -0.10776783837E+02  0.16171626452E+02  0.35714213338E+02  0.40659139272E+02  0.00000000000E+00 0.  1.
         11    1    3    3    0    0  0.12206566205E+02 -0.11726813166E+02 -0.17095299274E+02  0.24057590550E+02  0.51100000000E-03 0. -1.
        -11    1    3    3    0    0 -0.14039369727E+01 -0.10171542229E+02 -0.17984747119E+02  0.20709477046E+02  0.51100000000E-03 0.  1.
        -12    1    3    3    0    0 -0.25845395547E-01  0.57267289432E+01 -0.63416694479E+00  0.57617931312E+01  0.00000000000E+00 0.  1.
</event>
<event>
 7    1  0.5041278E-013  0.5052886E+02  0.7816164E-02  0.1300439E+00
        -11   -1    0    0    0    0  0.00000000000E+00  0.00000000000E+00  0.45593999997E+02  0.45594000000E+02  0.51100000000E-03 0.  1.
         11   -1    0    0    0    0 -0.00000000000E+00 -0.00000000000E+00 -0.45593999997E+02  0.45594000000E+02  0.51100000000E-03 0. -1.
    9900012    2    1    2    0    0 -0.39274136223E+02 -0.46625863718E+01 -0.94323030598E+01  0.50528857993E+02  0.29999994356E+02 0.  0.
        -12    1    1    2    0    0  0.39274136223E+02  0.46625863718E+01  0.94323030598E+01  0.40659142007E+02  0.00000000000E+00 0.  1.
         11    1    3    3    0    0 -0.14779408670E+02 -0.11310804475E+02  0.11282141502E+01  0.18645055268E+02  0.51100000000E-03 0. -1.
        -11    1    3    3    0    0  0.21172387621E+01  0.21112332898E+00  0.75572841948E+00  0.22579634056E+01  0.51100000000E-03 0.  1.
        -12    1    3    3    0    0 -0.26611966315E+02  0.64370947740E+01 -0.11316245629E+02  0.29625839320E+02  0.00000000000E+00 0.  1.
</event>
<event>
 7    1  0.5041278E-013  0.5052885E+02  0.7816164E-02  0.1300439E+00
        -11   -1    0    0    0    0  0.00000000000E+00  0.00000000000E+00  0.45593999997E+02  0.45594000000E+02  0.51100000000E-03 0. -1.
         11   -1    0    0    0    0 -0.00000000000E+00 -0.00000000000E+00 -0.45593999997E+02  0.45594000000E+02  0.51100000000E-03 0.  1.
    9900012    2    1    2    0    0 -0.32143158584E+02 -0.20429137591E+02  0.14234948972E+02  0.50528854919E+02  0.29999985010E+02 0.  0.
        -12    1    1    2    0    0  0.32143158584E+02  0.20429137591E+02 -0.14234948972E+02  0.40659145081E+02  0.00000000000E+00 0.  1.
         11    1    3    3    0    0 -0.27363159712E+02 -0.18387865903E+02  0.15581320847E+02  0.36464142407E+02  0.51100000000E-03 0.  1.
        -11    1    3    3    0    0 -0.15843387902E+01 -0.74871882002E+01 -0.25813432234E+00  0.76573330956E+01  0.51100000000E-03 0. -1.
        -12    1    3    3    0    0 -0.31956600822E+01  0.54459165115E+01 -0.10882375522E+01  0.64073794161E+01  0.00000000000E+00 0.  1.
</event>
<event>
 7    1  0.5041278E-013  0.5052886E+02  0.7816164E-02  0.1300439E+00
        -11   -1    0    0    0    0  0.00000000000E+00  0.00000000000E+00  0.45593999997E+02  0.45594000000E+02  0.51100000000E-03 0. -1.
         11   -1    0    0    0    0 -0.00000000000E+00 -0.00000000000E+00 -0.45593999997E+02  0.45594000000E+02  0.51100000000E-03 0.  1.
    9900012    2    1    2    0    0 -0.27499451494E+02 -0.29773678378E+02  0.32363227629E+01  0.50528861523E+02  0.30000005086E+02 0.  0.
        -12    1    1    2    0    0  0.27499451494E+02  0.29773678378E+02 -0.32363227629E+01  0.40659138477E+02  0.00000000000E+00 0.  1.
         11    1    3    3    0    0 -0.18721796221E+02 -0.75040205260E+01  0.96171038482E+01  0.22345126190E+02  0.51100000000E-03 0. -1.
        -11    1    3    3    0    0  0.11809912597E+01 -0.15834721344E+01  0.28260176496E+01  0.34479704715E+01  0.51100000000E-03 0.  1.
         12    1    3    3    0    0 -0.99586465331E+01 -0.20686185718E+02 -0.92067987348E+01  0.24735764861E+02  0.00000000000E+00 0. -1.
</event>
<event>
 7    1  0.5041278E-013  0.5052886E+02  0.7816164E-02  0.1300439E+00
        -11   -1    0    0    0    0  0.00000000000E+00  0.00000000000E+00  0.45593999997E+02  0.45594000000E+02  0.51100000000E-03 0.  1.
         11   -1    0    0    0    0 -0.00000000000E+00 -0.00000000000E+00 -0.45593999997E+02  0.45594000000E+02  0.51100000000E-03 0. -1.
    9900012    2    1    2    0    0 -0.31087202488E+02 -0.22286040628E+02  0.13787081343E+02  0.50528863543E+02  0.30000011226E+02 0.  0.
        -12    1    1    2    0    0  0.31087202488E+02  0.22286040628E+02 -0.13787081343E+02  0.40659136457E+02  0.00000000000E+00 0.  1.
         11    1    3    3    0    0 -0.32998245934E+01 -0.81315033413E+01  0.66952876055E+01  0.11037982846E+02  0.51100000000E-03 0. -1.
        -11    1    3    3    0    0 -0.96220974554E+01  0.62648204262E+01  0.13134053393E+01  0.11556719615E+02  0.51100000000E-03 0.  1.
         12    1    3    3    0    0 -0.18165280440E+02 -0.20419357713E+02  0.57783883981E+01  0.27934161082E+02  0.00000000000E+00 0. -1.
</event>
<event>
 7    1  0.5041278E-013  0.5052886E+02  0.7816164E-02  0.1300439E+00
        -11   -1    0    0    0    0  0.00000000000E+00  0.00000000000E+00  0.45593999997E+02  0.45594000000E+02  0.51100000000E-03 0.  1.
         11   -1    0    0    0    0 -0.00000000000E+00 -0.00000000000E+00 -0.45593999997E+02  0.45594000000E+02  0.51100000000E-03 0. -1.
    9900012    2    1    2    0    0 -0.79826184596E+01 -0.11200180828E+01 -0.39852093697E+02  0.50528855764E+02  0.29999987581E+02 0.  0.
        -12    1    1    2    0    0  0.79826184596E+01  0.11200180828E+01  0.39852093697E+02  0.40659144236E+02  0.00000000000E+00 0.  1.
         11    1    3    3    0    0 -0.18416561585E+01 -0.13892701147E+01 -0.65791273069E+01  0.69718494848E+01  0.51100000000E-03 0. -1.
        -11    1    3    3    0    0 -0.85368715612E+01  0.55756228898E+01 -0.43366289118E+00  0.10205577418E+02  0.51100000000E-03 0.  1.
        -12    1    3    3    0    0  0.23959092601E+01 -0.53063708578E+01 -0.32839303499E+02  0.33351428862E+02  0.00000000000E+00 0.  1.
</event>
<event>
 7    1  0.5041278E-013  0.5052889E+02  0.7816164E-02  0.1300439E+00
        -11   -1    0    0    0    0  0.00000000000E+00  0.00000000000E+00  0.45593999997E+02  0.45594000000E+02  0.51100000000E-03 0. -1.
         11   -1    0    0    0    0 -0.00000000000E+00 -0.00000000000E+00 -0.45593999997E+02  0.45594000000E+02  0.51100000000E-03 0.  1.
    9900012    2    1    2    0    0  0.52775571133E+01  0.32205329742E+02  0.24251333687E+02  0.50528892060E+02  0.30000097906E+02 0.  0.
        -12    1    1    2    0    0 -0.52775571133E+01 -0.32205329742E+02 -0.24251333687E+02  0.40659107940E+02  0.00000000000E+00 0.  1.
         11    1    3    3    0    0  0.43888639918E+01 -0.13747324120E+00 -0.67478765528E+00  0.44425628495E+01  0.51100000000E-03 0. -1.
        -11    1    3    3    0    0  0.10553098621E+02  0.12494412448E+02  0.13619796240E+02  0.21283258275E+02  0.51100000000E-03 0.  1.
        -12    1    3    3    0    0 -0.96644054999E+01  0.19848390535E+02  0.11306325102E+02  0.24803070935E+02  0.00000000000E+00 0.  1.
</event>
<event>
 7    1  0.5041278E-013  0.5052887E+02  0.7816164E-02  0.1300439E+00
        -11   -1    0    0    0    0  0.00000000000E+00  0.00000000000E+00  0.45593999997E+02  0.45594000000E+02  0.51100000000E-03 0.  1.
         11   -1    0    0    0    0 -0.00000000000E+00 -0.00000000000E+00 -0.45593999997E+02  0.45594000000E+02  0.51100000000E-03 0. -1.
    9900012    2    1    2    0    0 -0.26106426539E+02  0.10449116807E+02 -0.29367245899E+02  0.50528872115E+02  0.30000037280E+02 0.  0.
        -12    1    1    2    0    0  0.26106426539E+02 -0.10449116807E+02  0.29367245899E+02  0.40659127885E+02  0.00000000000E+00 0.  1.
         11    1    3    3    0    0 -0.69011201783E+01  0.42585310135E+01 -0.13070070964E+02  0.15381394650E+02  0.51100000000E-03 0. -1.
        -11    1    3    3    0    0  0.43694797788E+01  0.60705576411E+01 -0.50664793405E+01  0.90340044709E+01  0.51100000000E-03 0.  1.
        -12    1    3    3    0    0 -0.23574786139E+02  0.12002815231E+00 -0.11230695595E+02  0.26113472994E+02  0.00000000000E+00 0.  1.
</event>
<event>
 7    1  0.5041278E-013  0.5052880E+02  0.7816164E-02  0.1300439E+00
        -11   -1    0    0    0    0  0.00000000000E+00  0.00000000000E+00  0.45593999997E+02  0.45594000000E+02  0.51100000000E-03 0.  1.
         11   -1    0    0    0    0 -0.00000000000E+00 -0.00000000000E+00 -0.45593999997E+02  0.45594000000E+02  0.51100000000E-03 0. -1.
    9900012    2    1    2    0    0  0.14658771327E+01 -0.20883705228E+02 -0.34855307959E+02  0.50528801376E+02  0.29999822263E+02 0.  0.
        -12    1    1    2    0    0 -0.14658771327E+01  0.20883705228E+02  0.34855307959E+02  0.40659198624E+02  0.00000000000E+00 0.  1.
         11    1    3    3    0    0  0.12039720105E+01  0.54220509700E+01  0.10166963374E+01  0.56464021312E+01  0.51100000000E-03 0. -1.
        -11    1    3    3    0    0  0.12661066814E+01 -0.52554122958E+01 -0.42268077793E+01  0.68620907012E+01  0.51100000000E-03 0.  1.
         12    1    3    3    0    0 -0.10042015592E+01 -0.21050343903E+02 -0.31645196517E+02  0.38020308544E+02  0.00000000000E+00 0. -1.
</event>
<event>
 7    1  0.5041278E-013  0.5052887E+02  0.7816164E-02  0.1300439E+00
        -11   -1    0    0    0    0  0.00000000000E+00  0.00000000000E+00  0.45593999997E+02  0.45594000000E+02  0.51100000000E-03 0.  1.
         11   -1    0    0    0    0 -0.00000000000E+00 -0.00000000000E+00 -0.45593999997E+02  0.45594000000E+02  0.51100000000E-03 0. -1.
    9900012    2    1    2    0    0  0.13837716554E+02 -0.23100641601E+01 -0.38162100088E+02  0.50528872132E+02  0.30000037334E+02 0.  0.
        -12    1    1    2    0    0 -0.13837716554E+02  0.23100641601E+01  0.38162100088E+02  0.40659127868E+02  0.00000000000E+00 0.  1.
         11    1    3    3    0    0 -0.49526057022E+01  0.36319359726E+01 -0.86533076677E+01  0.10611267408E+02  0.51100000000E-03 0. -1.
        -11    1    3    3    0    0  0.15025176860E+02 -0.15440602381E+00 -0.73874602965E+01  0.16743785438E+02  0.51100000000E-03 0.  1.
         12    1    3    3    0    0  0.37651453965E+01 -0.57875941089E+01 -0.22121332123E+02  0.23173819287E+02  0.00000000000E+00 0. -1.
</event>
<event>
 7    1  0.5041278E-013  0.5052885E+02  0.7816164E-02  0.1300439E+00
        -11   -1    0    0    0    0  0.00000000000E+00  0.00000000000E+00  0.45593999997E+02  0.45594000000E+02  0.51100000000E-03 0.  1.
         11   -1    0    0    0    0 -0.00000000000E+00 -0.00000000000E+00 -0.45593999997E+02  0.45594000000E+02  0.51100000000E-03 0. -1.
    9900012    2    1    2    0    0 -0.30133270591E+02  0.11509757635E+02 -0.24752340259E+02  0.50528845242E+02  0.29999955596E+02 0.  0.
        -12    1    1    2    0    0  0.30133270591E+02 -0.11509757635E+02  0.24752340259E+02  0.40659154758E+02  0.00000000000E+00 0.  1.
         11    1    3    3    0    0 -0.60199240809E+01  0.87817020526E+01 -0.10990447664E+02  0.15301886060E+02  0.51100000000E-03 0. -1.
        -11    1    3    3    0    0 -0.21086479593E+02  0.10486202786E+02 -0.72041844615E+01  0.24627227707E+02  0.51100000000E-03 0.  1.
        -12    1    3    3    0    0 -0.30268669169E+01 -0.77581472033E+01 -0.65577081339E+01  0.10599731474E+02  0.00000000000E+00 0.  1.
</event>
<event>
 7    1  0.5041278E-013  0.5052885E+02  0.7816164E-02  0.1300439E+00
        -11   -1    0    0    0    0  0.00000000000E+00  0.00000000000E+00  0.45593999997E+02  0.45594000000E+02  0.51100000000E-03 0.  1.
         11   -1    0    0    0    0 -0.00000000000E+00 -0.00000000000E+00 -0.45593999997E+02  0.45594000000E+02  0.51100000000E-03 0. -1.
    9900012    2    1    2    0    0 -0.90687039808E+01  0.11278718089E+02 -0.37996257111E+02  0.50528850623E+02  0.29999971954E+02 0.  0.
        -12    1    1    2    0    0  0.90687039808E+01 -0.11278718089E+02  0.37996257111E+02  0.40659149377E+02  0.00000000000E+00 0.  1.
         11    1    3    3    0    0  0.63371207829E+01  0.14011430947E+01 -0.16535270821E+02  0.17763374769E+02  0.51100000000E-03 0. -1.
        -11    1    3    3    0    0 -0.72380373967E+00 -0.39927866782E+01 -0.13854959974E+01  0.42878708855E+01  0.51100000000E-03 0.  1.
        -12    1    3    3    0    0 -0.14682021024E+02  0.13870361673E+02 -0.20075490292E+02  0.28477604968E+02  0.00000000000E+00 0.  1.
</event>
<event>
 7    1  0.5041278E-013  0.5052888E+02  0.7816164E-02  0.1300439E+00
        -11   -1    0    0    0    0  0.00000000000E+00  0.00000000000E+00  0.45593999997E+02  0.45594000000E+02  0.51100000000E-03 0. -1.
         11   -1    0    0    0    0 -0.00000000000E+00 -0.00000000000E+00 -0.45593999997E+02  0.45594000000E+02  0.51100000000E-03 0.  1.
    9900012    2    1    2    0    0  0.27766266378E+02  0.26431573013E+02  0.13548822083E+02  0.50528878264E+02  0.30000055970E+02 0.  0.
        -12    1    1    2    0    0 -0.27766266378E+02 -0.26431573013E+02 -0.13548822083E+02  0.40659121736E+02  0.00000000000E+00 0.  1.
         11    1    3    3    0    0  0.13037470753E+02  0.14534228116E+02  0.13991955940E+02  0.24020704858E+02  0.51100000000E-03 0.  1.
        -11    1    3    3    0    0  0.48751760939E+01  0.10144422142E+02  0.76737218515E+01  0.13622138227E+02  0.51100000000E-03 0. -1.
        -12    1    3    3    0    0  0.98536195310E+01  0.17529227551E+01 -0.81168557087E+01  0.12886035179E+02  0.00000000000E+00 0.  1.
</event>
<event>
 7    1  0.5041278E-013  0.5052887E+02  0.7816164E-02  0.1300439E+00
        -11   -1    0    0    0    0  0.00000000000E+00  0.00000000000E+00  0.45593999997E+02  0.45594000000E+02  0.51100000000E-03 0.  1.
         11   -1    0    0    0    0 -0.00000000000E+00 -0.00000000000E+00 -0.45593999997E+02  0.45594000000E+02  0.51100000000E-03 0. -1.
    9900012    2    1    2    0    0 -0.18395511420E+02  0.13990318261E+02 -0.33452076341E+02  0.50528865025E+02  0.30000015729E+02 0.  0.
        -12    1    1    2    0    0  0.18395511420E+02 -0.13990318261E+02  0.33452076341E+02  0.40659134975E+02  0.00000000000E+00 0.  1.
         11    1    3    3    0    0 -0.13752161083E+02 -0.13837780161E+01 -0.15557960854E+02  0.20810740550E+02  0.51100000000E-03 0. -1.
        -11    1    3    3    0    0 -0.93324178398E+01  0.60468923383E+01 -0.29786676967E+01  0.11512227899E+02  0.51100000000E-03 0.  1.
         12    1    3    3    0    0  0.46890675026E+01  0.93272039388E+01 -0.14915447790E+02  0.18205896576E+02  0.00000000000E+00 0. -1.
</event>
<event>
 7    1  0.5041278E-013  0.5052886E+02  0.7816164E-02  0.1300439E+00
        -11   -1    0    0    0    0  0.00000000000E+00  0.00000000000E+00  0.45593999997E+02  0.45594000000E+02  0.51100000000E-03 0. -1.
         11   -1    0    0    0    0 -0.00000000000E+00 -0.00000000000E+00 -0.45593999997E+02  0.45594000000E+02  0.51100000000E-03 0.  1.
    9900012    2    1    2    0    0 -0.10671965719E+02 -0.60366674464E+01  0.38766394140E+02  0.50528861780E+02  0.30000005867E+02 0.  0.
        -12    1    1    2    0    0  0.10671965719E+02  0.60366674464E+01 -0.38766394140E+02  0.40659138220E+02  0.00000000000E+00 0.  1.
         11    1    3    3    0    0 -0.67354712545E+00 -0.10277737294E+02  0.52726843895E+01  0.11570944238E+02  0.51100000000E-03 0. -1.
        -11    1    3    3    0    0 -0.10009205006E+02  0.13799115253E+01  0.69568945155E+01  0.12267302973E+02  0.51100000000E-03 0.  1.
         12    1    3    3    0    0  0.10786412391E-01  0.28611583224E+01  0.26536815235E+02  0.26690614570E+02  0.00000000000E+00 0. -1.
</event>
<event>
 7    1  0.5041278E-013  0.5052886E+02  0.7816164E-02  0.1300439E+00
        -11   -1    0    0    0    0  0.00000000000E+00  0.00000000000E+00  0.45593999997E+02  0.45594000000E+02  0.51100000000E-03 0.  1.
         11   -1    0    0    0    0 -0.00000000000E+00 -0.00000000000E+00 -0.45593999997E+02  0.45594000000E+02  0.51100000000E-03 0. -1.
    9900012    2    1    2    0    0  0.61427883657E+01 -0.81952320026E+01 -0.39348059575E+02  0.50528862419E+02  0.30000007809E+02 0.  0.
        -12    1    1    2    0    0 -0.61427883657E+01  0.81952320026E+01  0.39348059575E+02  0.40659137581E+02  0.00000000000E+00 0.  1.
         11    1    3    3    0    0 -0.37629894791E+01 -0.81432572098E+01 -0.11055924024E+02  0.14237492198E+02  0.51100000000E-03 0. -1.
        -11    1    3    3    0    0 -0.41631097823E+01  0.36461031336E+01 -0.13865367702E+01  0.57050885705E+01  0.51100000000E-03 0.  1.
         12    1    3    3    0    0  0.14068887627E+02 -0.36980779265E+01 -0.26905598781E+02  0.30586281650E+02  0.00000000000E+00 0. -1.
</event>
<event>
 7    1  0.5041278E-013  0.5052885E+02  0.7816164E-02  0.1300439E+00
        -11   -1    0    0    0    0  0.00000000000E+00  0.00000000000E+00  0.45593999997E+02  0.45594000000E+02  0.51100000000E-03 0.  1.
         11   -1    0    0    0    0 -0.00000000000E+00 -0.00000000000E+00 -0.45593999997E+02  0.45594000000E+02  0.51100000000E-03 0. -1.
    9900012    2    1    2    0    0 -0.13223121966E+02 -0.37948744159E+02  0.61812910004E+01  0.50528849785E+02  0.29999969407E+02 0.  0.
        -12    1    1    2    0    0  0.13223121966E+02  0.37948744159E+02 -0.61812910004E+01  0.40659150215E+02  0.00000000000E+00 0.  1.
         11    1    3    3    0    0  0.22891424841E+01 -0.10992378933E+01 -0.65112542813E+01  0.69889147824E+01  0.51100000000E-03 0.  1.
        -11    1    3    3    0    0 -0.52610991636E+01 -0.74417757905E+01 -0.16347693807E+01  0.92591394046E+01  0.51100000000E-03 0. -1.
         12    1    3    3    0    0 -0.10251165287E+02 -0.29407730475E+02  0.14327314662E+02  0.34280795598E+02  0.00000000000E+00 0. -1.
</event>
<event>
 7    1  0.5041278E-013  0.5052886E+02  0.7816164E-02  0.1300439E+00
        -11   -1    0    0    0    0  0.00000000000E+00  0.00000000000E+00  0.45593999997E+02  0.45594000000E+02  0.51100000000E-03 0.  1.
         11   -1    0    0    0    0 -0.00000000000E+00 -0.00000000000E+00 -0.45593999997E+02  0.45594000000E+02  0.51100000000E-03 0. -1.
    9900012    2    1    2    0    0  0.13373148242E+01  0.24416784891E+02 -0.32483807801E+02  0.50528861241E+02  0.30000004227E+02 0.  0.
        -12    1    1    2    0    0 -0.13373148242E+01 -0.24416784891E+02  0.32483807801E+02  0.40659138759E+02  0.00000000000E+00 0.  1.
         11    1    3    3    0    0 -0.42234469896E+01  0.64962342114E+01 -0.36800763954E+01  0.85779674714E+01  0.51100000000E-03 0. -1.
        -11    1    3    3    0    0 -0.92600139085E+00 -0.13723823135E+01  0.34414270486E+01  0.38189438569E+01  0.51100000000E-03 0.  1.
         12    1    3    3    0    0  0.64867632047E+01  0.19292932993E+02 -0.32245158455E+02  0.38131949912E+02  0.00000000000E+00 0. -1.
</event>
<event>
 7    1  0.5041278E-013  0.5052885E+02  0.7816164E-02  0.1300439E+00
        -11   -1    0    0    0    0  0.00000000000E+00  0.00000000000E+00  0.45593999997E+02  0.45594000000E+02  0.51100000000E-03 0.  1.
         11   -1    0    0    0    0 -0.00000000000E+00 -0.00000000000E+00 -0.45593999997E+02  0.45594000000E+02  0.51100000000E-03 0. -1.
    9900012    2    1    2    0    0  0.29546344914E+02 -0.27899413455E+02  0.13426052035E+01  0.50528851489E+02  0.29999974586E+02 0.  0.
        -12    1    1    2    0    0 -0.29546344914E+02  0.27899413455E+02 -0.13426052035E+01  0.40659148511E+02  0.00000000000E+00 0.  1.
         11    1    3    3    0    0  0.40593106787E+01 -0.14507609471E+00  0.86276214300E+01  0.95359793446E+01  0.51100000000E-03 0. -1.
        -11    1    3    3    0    0  0.14319199977E+01 -0.56162413375E+01 -0.59019591130E+01  0.82719818226E+01  0.51100000000E-03 0.  1.
         12    1    3    3    0    0  0.24055114237E+02 -0.22138096023E+02 -0.13830571135E+01  0.32720890322E+02  0.00000000000E+00 0. -1.
</event>
<event>
 7    1  0.5041278E-013  0.5052886E+02  0.7816164E-02  0.1300439E+00
        -11   -1    0    0    0    0  0.00000000000E+00  0.00000000000E+00  0.45593999997E+02  0.45594000000E+02  0.51100000000E-03 0.  1.
         11   -1    0    0    0    0 -0.00000000000E+00 -0.00000000000E+00 -0.45593999997E+02  0.45594000000E+02  0.51100000000E-03 0. -1.
    9900012    2    1    2    0    0  0.18980884465E+02  0.33861727176E+02 -0.12094416872E+02  0.50528862505E+02  0.30000008069E+02 0.  0.
        -12    1    1    2    0    0 -0.18980884465E+02 -0.33861727176E+02  0.12094416872E+02  0.40659137495E+02  0.00000000000E+00 0.  1.
         11    1    3    3    0    0  0.47285663801E+00  0.88180334588E+01 -0.24929653372E+01  0.91758478581E+01  0.51100000000E-03 0. -1.
        -11    1    3    3    0    0  0.18045458600E+02  0.21148981689E+02 -0.17277715019E+02  0.32732818991E+02  0.51100000000E-03 0.  1.
        -12    1    3    3    0    0  0.46256922731E+00  0.38947120278E+01  0.76762634839E+01  0.86201956558E+01  0.00000000000E+00 0.  1.
</event>
<event>
 7    1  0.5041278E-013  0.5052877E+02  0.7816164E-02  0.1300439E+00
        -11   -1    0    0    0    0  0.00000000000E+00  0.00000000000E+00  0.45593999997E+02  0.45594000000E+02  0.51100000000E-03 0. -1.
         11   -1    0    0    0    0 -0.00000000000E+00 -0.00000000000E+00 -0.45593999997E+02  0.45594000000E+02  0.51100000000E-03 0.  1.
    9900012    2    1    2    0    0  0.32311606176E+02 -0.17696954873E+02  0.17203217493E+02  0.50528772295E+02  0.29999733868E+02 0.  0.
        -12    1    1    2    0    0 -0.32311606176E+02  0.17696954873E+02 -0.17203217493E+02  0.40659227705E+02  0.00000000000E+00 0.  1.
         11    1    3    3    0    0  0.69316958647E+01 -0.13624809297E+02  0.70541108463E+01  0.16835804585E+02  0.51100000000E-03 0. -1.
        -11    1    3    3    0    0 -0.16195131686E+01  0.12273265676E+01  0.54024073963E+01  0.57719285636E+01  0.51100000000E-03 0.  1.
         12    1    3    3    0    0  0.26999423480E+02 -0.52994721432E+01  0.47466992499E+01  0.27921039146E+02  0.00000000000E+00 0. -1.
</event>
<event>
 7    1  0.5041278E-013  0.5052883E+02  0.7816164E-02  0.1300439E+00
        -11   -1    0    0    0    0  0.00000000000E+00  0.00000000000E+00  0.45593999997E+02  0.45594000000E+02  0.51100000000E-03 0.  1.
         11   -1    0    0    0    0 -0.00000000000E+00 -0.00000000000E+00 -0.45593999997E+02  0.45594000000E+02  0.51100000000E-03 0. -1.
    9900012    2    1    2    0    0  0.15552559294E+02 -0.25476836707E+02 -0.27608279020E+02  0.50528826624E+02  0.29999899007E+02 0.  0.
        -12    1    1    2    0    0 -0.15552559294E+02  0.25476836707E+02  0.27608279020E+02  0.40659173376E+02  0.00000000000E+00 0.  1.
         11    1    3    3    0    0  0.15904161953E+02 -0.11832930236E+02 -0.97402920305E+01  0.22086962093E+02  0.51100000000E-03 0. -1.
        -11    1    3    3    0    0  0.33692170922E+00 -0.14554037423E+02 -0.48068911272E+01  0.15331005320E+02  0.51100000000E-03 0.  1.
         12    1    3    3    0    0 -0.68852436819E+00  0.91013095213E+00 -0.13061095862E+02  0.13110859212E+02  0.00000000000E+00 0. -1.
</event>
<event>
 7    1  0.5041278E-013  0.5052887E+02  0.7816164E-02  0.1300439E+00
        -11   -1    0    0    0    0  0.00000000000E+00  0.00000000000E+00  0.45593999997E+02  0.45594000000E+02  0.51100000000E-03 0.  1.
         11   -1    0    0    0    0 -0.00000000000E+00 -0.00000000000E+00 -0.45593999997E+02  0.45594000000E+02  0.51100000000E-03 0. -1.
    9900012    2    1    2    0    0 -0.28140472991E+01 -0.15040925913E+01 -0.40533736812E+02  0.50528868471E+02  0.30000026204E+02 0.  0.
        -12    1    1    2    0    0  0.28140472991E+01  0.15040925913E+01  0.40533736812E+02  0.40659131529E+02  0.00000000000E+00 0.  1.
         11    1    3    3    0    0 -0.10025374771E+02 -0.49657649224E+01 -0.30788811393E+02  0.32758477801E+02  0.51100000000E-03 0. -1.
        -11    1    3    3    0    0  0.13425844601E+01  0.56444549601E+01 -0.99360207210E+01  0.11505951193E+02  0.51100000000E-03 0.  1.
        -12    1    3    3    0    0  0.58687430118E+01 -0.21827826291E+01  0.19109530167E+00  0.62644394768E+01  0.00000000000E+00 0.  1.
</event>
<event>
 7    1  0.5041278E-013  0.5052896E+02  0.7816164E-02  0.1300438E+00
        -11   -1    0    0    0    0  0.00000000000E+00  0.00000000000E+00  0.45593999997E+02  0.45594000000E+02  0.51100000000E-03 0. -1.
         11   -1    0    0    0    0 -0.00000000000E+00 -0.00000000000E+00 -0.45593999997E+02  0.45594000000E+02  0.51100000000E-03 0.  1.
    9900012    2    1    2    0    0  0.61497963788E+00 -0.36535749608E+02  0.17830273556E+02  0.50528956055E+02  0.30000292425E+02 0.  0.
        -12    1    1    2    0    0 -0.61497963788E+00  0.36535749608E+02 -0.17830273556E+02  0.40659043945E+02  0.00000000000E+00 0.  1.
         11    1    3    3    0    0 -0.85534182215E+01 -0.20689290265E+02  0.18893750774E+02  0.29294735253E+02  0.51100000000E-03 0. -1.
        -11    1    3    3    0    0 -0.19927089120E+01 -0.57703385802E+00 -0.10397999525E+01  0.23205691293E+01  0.51100000000E-03 0.  1.
        -12    1    3    3    0    0  0.11161106771E+02 -0.15269425485E+02 -0.23677265592E-01  0.18913651673E+02  0.00000000000E+00 0.  1.
</event>
<event>
 7    1  0.5041278E-013  0.5052885E+02  0.7816164E-02  0.1300439E+00
        -11   -1    0    0    0    0  0.00000000000E+00  0.00000000000E+00  0.45593999997E+02  0.45594000000E+02  0.51100000000E-03 0.  1.
         11   -1    0    0    0    0 -0.00000000000E+00 -0.00000000000E+00 -0.45593999997E+02  0.45594000000E+02  0.51100000000E-03 0. -1.
    9900012    2    1    2    0    0 -0.19610327602E+02 -0.12328863511E+02 -0.33415573264E+02  0.50528851451E+02  0.29999974471E+02 0.  0.
        -12    1    1    2    0    0  0.19610327602E+02  0.12328863511E+02  0.33415573264E+02  0.40659148549E+02  0.00000000000E+00 0.  1.
         11    1    3    3    0    0 -0.44369716587E+01  0.26861829225E+01 -0.11172113388E+02  0.12317402892E+02  0.51100000000E-03 0. -1.
        -11    1    3    3    0    0 -0.30861069830E+01  0.39601024750E+01  0.17530171386E+01  0.53178508133E+01  0.51100000000E-03 0.  1.
        -12    1    3    3    0    0 -0.12087248961E+02 -0.18975148909E+02 -0.23996477015E+02  0.32893597746E+02  0.00000000000E+00 0.  1.
</event>
<event>
 7    1  0.5041278E-013  0.5052885E+02  0.7816164E-02  0.1300439E+00
        -11   -1    0    0    0    0  0.00000000000E+00  0.00000000000E+00  0.45593999997E+02  0.45594000000E+02  0.51100000000E-03 0. -1.
         11   -1    0    0    0    0 -0.00000000000E+00 -0.00000000000E+00 -0.45593999997E+02  0.45594000000E+02  0.51100000000E-03 0.  1.
    9900012    2    1    2    0    0  0.33564394256E+02  0.22942173811E+02 -0.50419804357E+00  0.50528854453E+02  0.29999983596E+02 0.  0.
        -12    1    1    2    0    0 -0.33564394256E+02 -0.22942173811E+02  0.50419804357E+00  0.40659145547E+02  0.00000000000E+00 0.  1.
         11    1    3    3    0    0  0.21824876590E+02  0.81902946946E+01 -0.88989142854E+01  0.24951890531E+02  0.51100000000E-03 0. -1.
        -11    1    3    3    0    0  0.94710495774E+00  0.62310652923E+01 -0.36618818119E+01  0.72892085403E+01  0.51100000000E-03 0.  1.
         12    1    3    3    0    0  0.10792412708E+02  0.85208138241E+01  0.12056598054E+02  0.18287755382E+02  0.00000000000E+00 0. -1.
</event>
<event>
 7    1  0.5041278E-013  0.5052886E+02  0.7816164E-02  0.1300439E+00
        -11   -1    0    0    0    0  0.00000000000E+00  0.00000000000E+00  0.45593999997E+02  0.45594000000E+02  0.51100000000E-03 0.  1.
         11   -1    0    0    0    0 -0.00000000000E+00 -0.00000000000E+00 -0.45593999997E+02  0.45594000000E+02  0.51100000000E-03 0. -1.
    9900012    2    1    2    0    0  0.27642244965E+00 -0.40611632145E+02  0.19454346124E+01  0.50528858461E+02  0.29999995778E+02 0.  0.
        -12    1    1    2    0    0 -0.27642244965E+00  0.40611632145E+02 -0.19454346124E+01  0.40659141539E+02  0.00000000000E+00 0.  1.
         11    1    3    3    0    0  0.20644415046E+00 -0.19872626061E+02  0.26005895585E+01  0.20043127302E+02  0.51100000000E-03 0. -1.
        -11    1    3    3    0    0 -0.38224870297E-01 -0.35509794255E+00  0.82382195087E+01  0.82459575929E+01  0.51100000000E-03 0.  1.
         12    1    3    3    0    0  0.10820316949E+00 -0.20383908142E+02 -0.88933744549E+01  0.22239773566E+02  0.00000000000E+00 0. -1.
</event>
<event>
 7    1  0.5369873E-013  0.5052885E+02  0.7816164E-02  0.1300439E+00
        -11   -1    0    0    0    0  0.00000000000E+00  0.00000000000E+00  0.45593999997E+02  0.45594000000E+02  0.51100000000E-03 0.  1.
         11   -1    0    0    0    0 -0.00000000000E+00 -0.00000000000E+00 -0.45593999997E+02  0.45594000000E+02  0.51100000000E-03 0. -1.
    9900012    2    1    2    0    0 -0.20600478748E+02 -0.26968275077E+02 -0.22394162691E+02  0.50528854561E+02  0.29999983922E+02 0.  0.
        -12    1    1    2    0    0  0.20600478748E+02  0.26968275077E+02  0.22394162691E+02  0.40659145439E+02  0.00000000000E+00 0.  1.
         11    1    3    3    0    0  0.28801380124E+01 -0.18517538709E+01  0.16890238496E+01  0.38179823460E+01  0.51100000000E-03 0.  1.
        -11    1    3    3    0    0 -0.67319444100E+01  0.29334676738E+01 -0.48407268206E+01  0.87952796741E+01  0.51100000000E-03 0. -1.
         12    1    3    3    0    0 -0.16748672350E+02 -0.28049988879E+02 -0.19242459720E+02  0.37915592540E+02  0.00000000000E+00 0. -1.
</event>
<event>
 7    1  0.5041278E-013  0.5052884E+02  0.7816164E-02  0.1300439E+00
        -11   -1    0    0    0    0  0.00000000000E+00  0.00000000000E+00  0.45593999997E+02  0.45594000000E+02  0.51100000000E-03 0.  1.
         11   -1    0    0    0    0 -0.00000000000E+00 -0.00000000000E+00 -0.45593999997E+02  0.45594000000E+02  0.51100000000E-03 0. -1.
    9900012    2    1    2    0    0 -0.18736737486E+01 -0.31976149561E+01 -0.40489894530E+02  0.50528844159E+02  0.29999952304E+02 0.  0.
        -12    1    1    2    0    0  0.18736737486E+01  0.31976149561E+01  0.40489894530E+02  0.40659155841E+02  0.00000000000E+00 0.  1.
         11    1    3    3    0    0  0.25923463672E+01 -0.37915954647E+01 -0.24606575238E+02  0.25031580075E+02  0.51100000000E-03 0. -1.
        -11    1    3    3    0    0  0.58655407064E+01  0.57393143783E+01 -0.83908055694E+01  0.11736691002E+02  0.51100000000E-03 0.  1.
         12    1    3    3    0    0 -0.10331560822E+02 -0.51453338697E+01 -0.74925137223E+01  0.13760573081E+02  0.00000000000E+00 0. -1.
</event>
<event>
 7    1  0.5041278E-013  0.5052885E+02  0.7816164E-02  0.1300439E+00
        -11   -1    0    0    0    0  0.00000000000E+00  0.00000000000E+00  0.45593999997E+02  0.45594000000E+02  0.51100000000E-03 0.  1.
         11   -1    0    0    0    0 -0.00000000000E+00 -0.00000000000E+00 -0.45593999997E+02  0.45594000000E+02  0.51100000000E-03 0. -1.
    9900012    2    1    2    0    0 -0.17786688264E+01  0.16535410529E+02 -0.37102331316E+02  0.50528850313E+02  0.29999971011E+02 0.  0.
        -12    1    1    2    0    0  0.17786688264E+01 -0.16535410529E+02  0.37102331316E+02  0.40659149687E+02  0.00000000000E+00 0.  1.
         11    1    3    3    0    0 -0.10352733829E+01 -0.33603258750E+01 -0.27570799491E+01  0.44682290754E+01  0.51100000000E-03 0. -1.
        -11    1    3    3    0    0 -0.52577758019E+01  0.72533991225E+01 -0.30940595213E+02  0.32211433337E+02  0.51100000000E-03 0.  1.
         12    1    3    3    0    0  0.45143803584E+01  0.12642337282E+02 -0.34046561540E+01  0.13849187900E+02  0.00000000000E+00 0. -1.
</event>
<event>
 7    1  0.5041278E-013  0.5052887E+02  0.7816164E-02  0.1300439E+00
        -11   -1    0    0    0    0  0.00000000000E+00  0.00000000000E+00  0.45593999997E+02  0.45594000000E+02  0.51100000000E-03 0. -1.
         11   -1    0    0    0    0 -0.00000000000E+00 -0.00000000000E+00 -0.45593999997E+02  0.45594000000E+02  0.51100000000E-03 0.  1.
    9900012    2    1    2    0    0 -0.32531282279E+02 -0.17084158368E+02  0.17407240106E+02  0.50528870620E+02  0.30000032736E+02 0.  0.
        -12    1    1    2    0    0  0.32531282279E+02  0.17084158368E+02 -0.17407240106E+02  0.40659129380E+02  0.00000000000E+00 0.  1.
         11    1    3    3    0    0 -0.93986973690E+01  0.14415432049E+01  0.68487081213E+01  0.11718291780E+02  0.51100000000E-03 0. -1.
        -11    1    3    3    0    0 -0.16548713125E+02 -0.20121051460E+01 -0.23572473765E+01  0.16836421492E+02  0.51100000000E-03 0.  1.
         12    1    3    3    0    0 -0.65838717845E+01 -0.16513596427E+02  0.12915779361E+02  0.21974157348E+02  0.00000000000E+00 0. -1.
</event>
<event>
 7    1  0.5041278E-013  0.5052886E+02  0.7816164E-02  0.1300439E+00
        -11   -1    0    0    0    0  0.00000000000E+00  0.00000000000E+00  0.45593999997E+02  0.45594000000E+02  0.51100000000E-03 0. -1.
         11   -1    0    0    0    0 -0.00000000000E+00 -0.00000000000E+00 -0.45593999997E+02  0.45594000000E+02  0.51100000000E-03 0.  1.
    9900012    2    1    2    0    0 -0.28456433488E+02  0.26357917337E+02  0.12192504402E+02  0.50528861091E+02  0.30000003773E+02 0.  0.
        -12    1    1    2    0    0  0.28456433488E+02 -0.26357917337E+02 -0.12192504402E+02  0.40659138909E+02  0.00000000000E+00 0.  1.
         11    1    3    3    0    0  0.16178000193E+01  0.11221480803E+02 -0.50903184019E-01  0.11337614374E+02  0.51100000000E-03 0. -1.
        -11    1    3    3    0    0 -0.48634845397E+01  0.39560286597E+00  0.84285649486E+01  0.97391319351E+01  0.51100000000E-03 0.  1.
         12    1    3    3    0    0 -0.25210748968E+02  0.14740833668E+02  0.38148426369E+01  0.29452114782E+02  0.00000000000E+00 0. -1.
</event>
<event>
 7    1  0.5041278E-013  0.5052886E+02  0.7816164E-02  0.1300439E+00
        -11   -1    0    0    0    0  0.00000000000E+00  0.00000000000E+00  0.45593999997E+02  0.45594000000E+02  0.51100000000E-03 0.  1.
         11   -1    0    0    0    0 -0.00000000000E+00 -0.00000000000E+00 -0.45593999997E+02  0.45594000000E+02  0.51100000000E-03 0. -1.
    9900012    2    1    2    0    0  0.22346061808E+02  0.31548307329E+01 -0.33821092455E+02  0.50528859206E+02  0.29999998042E+02 0.  0.
        -12    1    1    2    0    0 -0.22346061808E+02 -0.31548307329E+01  0.33821092455E+02  0.40659140794E+02  0.00000000000E+00 0.  1.
         11    1    3    3    0    0  0.80036014318E+01  0.50137023729E+01 -0.20853107512E+01  0.96717820774E+01  0.51100000000E-03 0. -1.
        -11    1    3    3    0    0  0.12782101283E+01  0.87870087125E+01 -0.10921438237E+02  0.14075622781E+02  0.51100000000E-03 0.  1.
         12    1    3    3    0    0  0.13064250248E+02 -0.10645880353E+02 -0.20814343467E+02  0.26781454348E+02  0.00000000000E+00 0. -1.
</event>
<event>
 7    1  0.5041278E-013  0.5052886E+02  0.7816164E-02  0.1300439E+00
        -11   -1    0    0    0    0  0.00000000000E+00  0.00000000000E+00  0.45593999997E+02  0.45594000000E+02  0.51100000000E-03 0.  1.
         11   -1    0    0    0    0 -0.00000000000E+00 -0.00000000000E+00 -0.45593999997E+02  0.45594000000E+02  0.51100000000E-03 0. -1.
    9900012    2    1    2    0    0 -0.21506129800E+02  0.20289754644E+02 -0.27910169778E+02  0.50528864010E+02  0.30000012644E+02 0.  0.
        -12    1    1    2    0    0  0.21506129800E+02 -0.20289754644E+02  0.27910169778E+02  0.40659135990E+02  0.00000000000E+00 0.  1.
         11    1    3    3    0    0 -0.93903002872E+01  0.78677720683E+01 -0.45958689814E+01  0.13084402499E+02  0.51100000000E-03 0. -1.
        -11    1    3    3    0    0  0.16313362776E+01  0.58198746109E+01  0.32136121517E+01  0.68454000511E+01  0.51100000000E-03 0.  1.
         12    1    3    3    0    0 -0.13747165790E+02  0.66021079648E+01 -0.26527912948E+02  0.30599061459E+02  0.00000000000E+00 0. -1.
</event>
<event>
 7    1  0.5041278E-013  0.5052886E+02  0.7816164E-02  0.1300439E+00
        -11   -1    0    0    0    0  0.00000000000E+00  0.00000000000E+00  0.45593999997E+02  0.45594000000E+02  0.51100000000E-03 0.  1.
         11   -1    0    0    0    0 -0.00000000000E+00 -0.00000000000E+00 -0.45593999997E+02  0.45594000000E+02  0.51100000000E-03 0. -1.
    9900012    2    1    2    0    0  0.18119870497E+02 -0.45851074158E+01 -0.36108345967E+02  0.50528861232E+02  0.30000004201E+02 0.  0.
        -12    1    1    2    0    0 -0.18119870497E+02  0.45851074158E+01  0.36108345967E+02  0.40659138768E+02  0.00000000000E+00 0.  1.
         11    1    3    3    0    0  0.15944903847E+02  0.60672721382E+01 -0.27335148941E+02  0.32222075007E+02  0.51100000000E-03 0. -1.
        -11    1    3    3    0    0  0.46318779374E+01 -0.25602095787E+01  0.99637434868E+00  0.53853252843E+01  0.51100000000E-03 0.  1.
        -12    1    3    3    0    0 -0.24569112875E+01 -0.80921699754E+01 -0.97695713751E+01  0.12921460941E+02  0.00000000000E+00 0.  1.
</event>
<event>
 7    1  0.5041278E-013  0.5052887E+02  0.7816164E-02  0.1300439E+00
        -11   -1    0    0    0    0  0.00000000000E+00  0.00000000000E+00  0.45593999997E+02  0.45594000000E+02  0.51100000000E-03 0.  1.
         11   -1    0    0    0    0 -0.00000000000E+00 -0.00000000000E+00 -0.45593999997E+02  0.45594000000E+02  0.51100000000E-03 0. -1.
    9900012    2    1    2    0    0  0.26655693540E+02  0.29998178647E+02 -0.65382116927E+01  0.50528869016E+02  0.30000027861E+02 0.  0.
        -12    1    1    2    0    0 -0.26655693540E+02 -0.29998178647E+02  0.65382116927E+01  0.40659130984E+02  0.00000000000E+00 0.  1.
         11    1    3    3    0    0  0.96077079032E+01  0.13998983810E+02  0.82994209603E+01  0.18898676869E+02  0.51100000000E-03 0. -1.
        -11    1    3    3    0    0  0.11913905477E+02  0.16752825393E+02 -0.60571420802E+01  0.21430988610E+02  0.51100000000E-03 0.  1.
        -12    1    3    3    0    0  0.51340801590E+01 -0.75363055493E+00 -0.87804905727E+01  0.10199203537E+02  0.00000000000E+00 0.  1.
</event>
<event>
 7    1  0.5041278E-013  0.5052886E+02  0.7816164E-02  0.1300439E+00
        -11   -1    0    0    0    0  0.00000000000E+00  0.00000000000E+00  0.45593999997E+02  0.45594000000E+02  0.51100000000E-03 0.  1.
         11   -1    0    0    0    0 -0.00000000000E+00 -0.00000000000E+00 -0.45593999997E+02  0.45594000000E+02  0.51100000000E-03 0. -1.
    9900012    2    1    2    0    0 -0.16268040233E+02 -0.36845119471E+02  0.55635839389E+01  0.50528862920E+02  0.30000009331E+02 0.  0.
        -12    1    1    2    0    0  0.16268040233E+02  0.36845119471E+02 -0.55635839389E+01  0.40659137080E+02  0.00000000000E+00 0.  1.
         11    1    3    3    0    0  0.46361808023E+01 -0.24538872974E+01  0.23894728363E+01  0.57641405254E+01  0.51100000000E-03 0. -1.
        -11    1    3    3    0    0  0.30784734870E+01 -0.36473618679E+01  0.32475171232E+01  0.57729208667E+01  0.51100000000E-03 0.  1.
         12    1    3    3    0    0 -0.23982694522E+02 -0.30743870306E+02 -0.73406020602E-01  0.38991801528E+02  0.00000000000E+00 0. -1.
</event>
<event>
 7    1  0.5041278E-013  0.5052886E+02  0.7816164E-02  0.1300439E+00
        -11   -1    0    0    0    0  0.00000000000E+00  0.00000000000E+00  0.45593999997E+02  0.45594000000E+02  0.51100000000E-03 0.  1.
         11   -1    0    0    0    0 -0.00000000000E+00 -0.00000000000E+00 -0.45593999997E+02  0.45594000000E+02  0.51100000000E-03 0. -1.
    9900012    2    1    2    0    0  0.26412509064E+02 -0.14333606311E+02 -0.27387822174E+02  0.50528859473E+02  0.29999998855E+02 0.  0.
        -12    1    1    2    0    0 -0.26412509064E+02  0.14333606311E+02  0.27387822174E+02  0.40659140527E+02  0.00000000000E+00 0.  1.
         11    1    3    3    0    0  0.22242224128E+02 -0.10940688426E+02 -0.23162964706E+02  0.33925479092E+02  0.51100000000E-03 0. -1.
        -11    1    3    3    0    0  0.98898976815E+01 -0.28317814892E+01 -0.22878411315E+01  0.10538656454E+02  0.51100000000E-03 0.  1.
        -12    1    3    3    0    0 -0.57196127461E+01 -0.56113639596E+00 -0.19370163369E+01  0.60647239269E+01  0.00000000000E+00 0.  1.
</event>
<event>
 7    1  0.5041278E-013  0.5052888E+02  0.7816164E-02  0.1300439E+00
        -11   -1    0    0    0    0  0.00000000000E+00  0.00000000000E+00  0.45593999997E+02  0.45594000000E+02  0.51100000000E-03 0.  1.
         11   -1    0    0    0    0 -0.00000000000E+00 -0.00000000000E+00 -0.45593999997E+02  0.45594000000E+02  0.51100000000E-03 0. -1.
    9900012    2    1    2    0    0 -0.37413016245E+01  0.35715513420E+02 -0.19067483541E+02  0.50528878449E+02  0.30000056533E+02 0.  0.
        -12    1    1    2    0    0  0.37413016245E+01 -0.35715513420E+02  0.19067483541E+02  0.40659121551E+02  0.00000000000E+00 0.  1.
         11    1    3    3    0    0 -0.41936952551E+01  0.18589105301E+02 -0.22878528483E+02  0.29775308253E+02  0.51100000000E-03 0. -1.
        -11    1    3    3    0    0  0.10901862331E+00  0.19245155329E+01 -0.34124561982E+01  0.39192477164E+01  0.51100000000E-03 0.  1.
        -12    1    3    3    0    0  0.34337500734E+00  0.15201892587E+02  0.72235011403E+01  0.16834322479E+02  0.00000000000E+00 0.  1.
</event>
<event>
 7    1  0.5527197E-013  0.5052886E+02  0.7816164E-02  0.1300439E+00
        -11   -1    0    0    0    0  0.00000000000E+00  0.00000000000E+00  0.45593999997E+02  0.45594000000E+02  0.51100000000E-03 0.  1.
         11   -1    0    0    0    0 -0.00000000000E+00 -0.00000000000E+00 -0.45593999997E+02  0.45594000000E+02  0.51100000000E-03 0. -1.
    9900012    2    1    2    0    0 -0.24345762652E+02 -0.24437408926E+02 -0.21523528834E+02  0.50528863172E+02  0.30000010098E+02 0.  0.
        -12    1    1    2    0    0  0.24345762652E+02  0.24437408926E+02  0.21523528834E+02  0.40659136828E+02  0.00000000000E+00 0.  1.
         11    1    3    3    0    0 -0.18051592110E+02 -0.14877533665E+02 -0.22167228795E+02  0.32227116197E+02  0.51100000000E-03 0.  1.
        -11    1    3    3    0    0 -0.10924526756E+02 -0.72757772423E+01  0.57493935875E+00  0.13138218100E+02  0.51100000000E-03 0. -1.
        -12    1    3    3    0    0  0.46303562136E+01 -0.22840980180E+01  0.68760602022E-01  0.51635288748E+01  0.00000000000E+00 0.  1.
</event>
<event>
 7    1  0.5041278E-013  0.5052887E+02  0.7816164E-02  0.1300439E+00
        -11   -1    0    0    0    0  0.00000000000E+00  0.00000000000E+00  0.45593999997E+02  0.45594000000E+02  0.51100000000E-03 0.  1.
         11   -1    0    0    0    0 -0.00000000000E+00 -0.00000000000E+00 -0.45593999997E+02  0.45594000000E+02  0.51100000000E-03 0. -1.
    9900012    2    1    2    0    0 -0.62227790950E+01 -0.22129141835E+02 -0.33537191111E+02  0.50528867131E+02  0.30000022131E+02 0.  0.
        -12    1    1    2    0    0  0.62227790950E+01  0.22129141835E+02  0.33537191111E+02  0.40659132869E+02  0.00000000000E+00 0.  1.
         11    1    3    3    0    0  0.34885068810E+01 -0.69634123484E+01 -0.10589129354E+02  0.13144902150E+02  0.51100000000E-03 0. -1.
        -11    1    3    3    0    0  0.89792234626E-01 -0.78287399763E+01  0.32416938475E+01  0.84738309827E+01  0.51100000000E-03 0.  1.
         12    1    3    3    0    0 -0.98010782106E+01 -0.73369895104E+01 -0.26189755605E+02  0.28910133998E+02  0.00000000000E+00 0. -1.
</event>
<event>
 7    1  0.5041278E-013  0.5052886E+02  0.7816164E-02  0.1300439E+00
        -11   -1    0    0    0    0  0.00000000000E+00  0.00000000000E+00  0.45593999997E+02  0.45594000000E+02  0.51100000000E-03 0.  1.
         11   -1    0    0    0    0 -0.00000000000E+00 -0.00000000000E+00 -0.45593999997E+02  0.45594000000E+02  0.51100000000E-03 0. -1.
    9900012    2    1    2    0    0 -0.40454415555E+02  0.93479752755E+00  0.39663396389E+01  0.50528862842E+02  0.30000009093E+02 0.  0.
        -12    1    1    2    0    0  0.40454415555E+02 -0.93479752755E+00 -0.39663396389E+01  0.40659137158E+02  0.00000000000E+00 0.  1.
         11    1    3    3    0    0 -0.28496893951E+02 -0.62855571802E+01 -0.20368273551E+01  0.29252860712E+02  0.51100000000E-03 0. -1.
        -11    1    3    3    0    0 -0.74979135112E+01 -0.38836273389E+01  0.23584665475E+01  0.87671907157E+01  0.51100000000E-03 0.  1.
        -12    1    3    3    0    0 -0.44596080934E+01  0.11103982047E+02  0.36447004464E+01  0.12508811414E+02  0.00000000000E+00 0.  1.
</event>
<event>
 7    1  0.5041278E-013  0.5052886E+02  0.7816164E-02  0.1300439E+00
        -11   -1    0    0    0    0  0.00000000000E+00  0.00000000000E+00  0.45593999997E+02  0.45594000000E+02  0.51100000000E-03 0. -1.
         11   -1    0    0    0    0 -0.00000000000E+00 -0.00000000000E+00 -0.45593999997E+02  0.45594000000E+02  0.51100000000E-03 0.  1.
    9900012    2    1    2    0    0  0.37526974274E+02  0.35030506650E+01  0.15251892602E+02  0.50528863388E+02  0.30000010753E+02 0.  0.
        -12    1    1    2    0    0 -0.37526974274E+02 -0.35030506650E+01 -0.15251892602E+02  0.40659136612E+02  0.00000000000E+00 0.  1.
         11    1    3    3    0    0  0.25158352130E+02  0.15940544771E+01  0.75773820062E+01  0.26323001537E+02  0.51100000000E-03 0. -1.
        -11    1    3    3    0    0  0.83520899335E+01 -0.20053604255E+01 -0.52847808753E+01  0.10085027806E+02  0.51100000000E-03 0.  1.
         12    1    3    3    0    0  0.40165322107E+01  0.39143566133E+01  0.12959291471E+02  0.14120834045E+02  0.00000000000E+00 0. -1.
</event>
<event>
 7    1  0.5041278E-013  0.5052886E+02  0.7816164E-02  0.1300439E+00
        -11   -1    0    0    0    0  0.00000000000E+00  0.00000000000E+00  0.45593999997E+02  0.45594000000E+02  0.51100000000E-03 0.  1.
         11   -1    0    0    0    0 -0.00000000000E+00 -0.00000000000E+00 -0.45593999997E+02  0.45594000000E+02  0.51100000000E-03 0. -1.
    9900012    2    1    2    0    0 -0.58866030046E+01 -0.11801299918E+02 -0.38460921632E+02  0.50528864895E+02  0.30000015335E+02 0.  0.
        -12    1    1    2    0    0  0.58866030046E+01  0.11801299918E+02  0.38460921632E+02  0.40659135105E+02  0.00000000000E+00 0.  1.
         11    1    3    3    0    0 -0.65984747724E+01  0.11745062085E+01 -0.69802538012E+01  0.96769456724E+01  0.51100000000E-03 0.  1.
        -11    1    3    3    0    0 -0.90927901660E+01 -0.12192091571E+02 -0.24324831404E+02  0.28688383589E+02  0.51100000000E-03 0. -1.
        -12    1    3    3    0    0  0.98046619339E+01 -0.78371455607E+00 -0.71558364266E+01  0.12163535633E+02  0.00000000000E+00 0.  1.
</event>
<event>
 7    1  0.5041278E-013  0.5052885E+02  0.7816164E-02  0.1300439E+00
        -11   -1    0    0    0    0  0.00000000000E+00  0.00000000000E+00  0.45593999997E+02  0.45594000000E+02  0.51100000000E-03 0.  1.
         11   -1    0    0    0    0 -0.00000000000E+00 -0.00000000000E+00 -0.45593999997E+02  0.45594000000E+02  0.51100000000E-03 0. -1.
    9900012    2    1    2    0    0 -0.15208491373E+02 -0.19193427673E+02 -0.32457368698E+02  0.50528847789E+02  0.29999963340E+02 0.  0.
        -12    1    1    2    0    0  0.15208491373E+02  0.19193427673E+02  0.32457368698E+02  0.40659152211E+02  0.00000000000E+00 0.  1.
         11    1    3    3    0    0 -0.46299121732E+01 -0.88424406783E+01 -0.14904068889E+01  0.10091885693E+02  0.51100000000E-03 0. -1.
        -11    1    3    3    0    0 -0.13605111224E+02 -0.15067865430E+02 -0.25649423665E+02  0.32711352076E+02  0.51100000000E-03 0.  1.
        -12    1    3    3    0    0  0.30265320247E+01  0.47168784353E+01 -0.53175381449E+01  0.77256100207E+01  0.00000000000E+00 0.  1.
</event>
<event>
 7    1  0.5041278E-013  0.5052886E+02  0.7816164E-02  0.1300439E+00
        -11   -1    0    0    0    0  0.00000000000E+00  0.00000000000E+00  0.45593999997E+02  0.45594000000E+02  0.51100000000E-03 0.  1.
         11   -1    0    0    0    0 -0.00000000000E+00 -0.00000000000E+00 -0.45593999997E+02  0.45594000000E+02  0.51100000000E-03 0. -1.
    9900012    2    1    2    0    0 -0.13711630589E+02  0.38003655436E+02 -0.45693542888E+01  0.50528860332E+02  0.30000001466E+02 0.  0.
        -12    1    1    2    0    0  0.13711630589E+02 -0.38003655436E+02  0.45693542888E+01  0.40659139668E+02  0.00000000000E+00 0.  1.
         11    1    3    3    0    0  0.47529094194E+01  0.12728537403E+01  0.34210624649E+01  0.59928268157E+01  0.51100000000E-03 0. -1.
        -11    1    3    3    0    0  0.10032645880E+00  0.46001109989E+01 -0.57440124933E+01  0.73596716221E+01  0.51100000000E-03 0.  1.
         12    1    3    3    0    0 -0.18564866467E+02  0.32130690697E+02 -0.22464042603E+01  0.37176361894E+02  0.00000000000E+00 0. -1.
</event>
<event>
 7    1  0.5041278E-013  0.5052886E+02  0.7816164E-02  0.1300439E+00
        -11   -1    0    0    0    0  0.00000000000E+00  0.00000000000E+00  0.45593999997E+02  0.45594000000E+02  0.51100000000E-03 0.  1.
         11   -1    0    0    0    0 -0.00000000000E+00 -0.00000000000E+00 -0.45593999997E+02  0.45594000000E+02  0.51100000000E-03 0. -1.
    9900012    2    1    2    0    0 -0.34517111317E+02 -0.41813059286E+00 -0.21483953228E+02  0.50528855233E+02  0.29999985967E+02 0.  0.
        -12    1    1    2    0    0  0.34517111317E+02  0.41813059286E+00  0.21483953228E+02  0.40659144767E+02  0.00000000000E+00 0.  1.
         11    1    3    3    0    0 -0.10614772990E+02 -0.49749988514E+01 -0.10113419310E+02  0.15482418080E+02  0.51100000000E-03 0. -1.
        -11    1    3    3    0    0 -0.27532172283E+02  0.61585894435E+01 -0.12592071420E+02  0.30895129025E+02  0.51100000000E-03 0.  1.
         12    1    3    3    0    0  0.36298339566E+01 -0.16017211849E+01  0.12215375015E+01  0.41513081281E+01  0.00000000000E+00 0. -1.
</event>
<event>
 7    1  0.5041278E-013  0.5052887E+02  0.7816164E-02  0.1300439E+00
        -11   -1    0    0    0    0  0.00000000000E+00  0.00000000000E+00  0.45593999997E+02  0.45594000000E+02  0.51100000000E-03 0.  1.
         11   -1    0    0    0    0 -0.00000000000E+00 -0.00000000000E+00 -0.45593999997E+02  0.45594000000E+02  0.51100000000E-03 0. -1.
    9900012    2    1    2    0    0 -0.35249505762E+02 -0.18874474420E+02 -0.73750740306E+01  0.50528866241E+02  0.30000019427E+02 0.  0.
        -12    1    1    2    0    0  0.35249505762E+02  0.18874474420E+02  0.73750740306E+01  0.40659133759E+02  0.00000000000E+00 0.  1.
         11    1    3    3    0    0 -0.17422254338E+02 -0.19074712247E+01 -0.26964239622E+01  0.17732571588E+02  0.51100000000E-03 0. -1.
        -11    1    3    3    0    0 -0.20618782962E+02 -0.17088486881E+02  0.64113515648E+00  0.26787341213E+02  0.51100000000E-03 0.  1.
        -12    1    3    3    0    0  0.27915315376E+01  0.12148368621E+00 -0.53197852249E+01  0.60089534405E+01  0.00000000000E+00 0.  1.
</event>
<event>
 7    1  0.5041278E-013  0.5052886E+02  0.7816164E-02  0.1300439E+00
        -11   -1    0    0    0    0  0.00000000000E+00  0.00000000000E+00  0.45593999997E+02  0.45594000000E+02  0.51100000000E-03 0. -1.
         11   -1    0    0    0    0 -0.00000000000E+00 -0.00000000000E+00 -0.45593999997E+02  0.45594000000E+02  0.51100000000E-03 0.  1.
    9900012    2    1    2    0    0 -0.25182980846E+02 -0.31348840318E+02 -0.60194233099E+01  0.50528858708E+02  0.29999996529E+02 0.  0.
        -12    1    1    2    0    0  0.25182980846E+02  0.31348840318E+02  0.60194233099E+01  0.40659141292E+02  0.00000000000E+00 0.  1.
         11    1    3    3    0    0  0.35266082705E+01 -0.27237762125E+01  0.25330325557E+01  0.51256391736E+01  0.51100000000E-03 0. -1.
        -11    1    3    3    0    0 -0.43129890686E+01 -0.16172525410E+02 -0.10073134088E+00  0.16738058427E+02  0.51100000000E-03 0.  1.
        -12    1    3    3    0    0 -0.24396600048E+02 -0.12452538696E+02 -0.84517245247E+01  0.28665161108E+02  0.00000000000E+00 0.  1.
</event>
<event>
 7    1  0.5041278E-013  0.5052887E+02  0.7816164E-02  0.1300439E+00
        -11   -1    0    0    0    0  0.00000000000E+00  0.00000000000E+00  0.45593999997E+02  0.45594000000E+02  0.51100000000E-03 0.  1.
         11   -1    0    0    0    0 -0.00000000000E+00 -0.00000000000E+00 -0.45593999997E+02  0.45594000000E+02  0.51100000000E-03 0. -1.
    9900012    2    1    2    0    0  0.11506711783E+01 -0.31155786958E+02 -0.26099002645E+02  0.50528867641E+02  0.30000023682E+02 0.  0.
        -12    1    1    2    0    0 -0.11506711783E+01  0.31155786958E+02  0.26099002645E+02  0.40659132359E+02  0.00000000000E+00 0.  1.
         11    1    3    3    0    0 -0.62989089461E+01 -0.11005441924E+02 -0.14823247022E+02  0.19507041251E+02  0.51100000000E-03 0. -1.
        -11    1    3    3    0    0 -0.39588151115E+01  0.16542607551E+01 -0.15982727514E+01  0.45785665641E+01  0.51100000000E-03 0.  1.
        -12    1    3    3    0    0  0.11408395236E+02 -0.21804605789E+02 -0.96774828718E+01  0.26443259826E+02  0.00000000000E+00 0.  1.
</event>
<event>
 7    1  0.5041278E-013  0.5052887E+02  0.7816164E-02  0.1300439E+00
        -11   -1    0    0    0    0  0.00000000000E+00  0.00000000000E+00  0.45593999997E+02  0.45594000000E+02  0.51100000000E-03 0.  1.
         11   -1    0    0    0    0 -0.00000000000E+00 -0.00000000000E+00 -0.45593999997E+02  0.45594000000E+02  0.51100000000E-03 0. -1.
    9900012    2    1    2    0    0  0.39117896279E+02  0.62154933406E+01 -0.91827532220E+01  0.50528866665E+02  0.30000020716E+02 0.  0.
        -12    1    1    2    0    0 -0.39117896279E+02 -0.62154933406E+01  0.91827532220E+01  0.40659133335E+02  0.00000000000E+00 0.  1.
         11    1    3    3    0    0  0.55683424494E+01 -0.20624702912E+01  0.59049320892E+01  0.83742727789E+01  0.51100000000E-03 0. -1.
        -11    1    3    3    0    0  0.17116860134E+02  0.14145704318E+01 -0.17095785748E+02  0.24233320057E+02  0.51100000000E-03 0.  1.
         12    1    3    3    0    0  0.16432693696E+02  0.68633932000E+01  0.20081004370E+01  0.17921273830E+02  0.00000000000E+00 0. -1.
</event>
<event>
 7    1  0.5041278E-013  0.5052886E+02  0.7816164E-02  0.1300439E+00
        -11   -1    0    0    0    0  0.00000000000E+00  0.00000000000E+00  0.45593999997E+02  0.45594000000E+02  0.51100000000E-03 0.  1.
         11   -1    0    0    0    0 -0.00000000000E+00 -0.00000000000E+00 -0.45593999997E+02  0.45594000000E+02  0.51100000000E-03 0. -1.
    9900012    2    1    2    0    0  0.24532727100E+02 -0.31179269136E+02  0.88974286829E+01  0.50528858838E+02  0.29999996925E+02 0.  0.
        -12    1    1    2    0    0 -0.24532727100E+02  0.31179269136E+02 -0.88974286829E+01  0.40659141162E+02  0.00000000000E+00 0.  1.
         11    1    3    3    0    0  0.10701075864E+02 -0.20931016931E+01  0.40557381613E+01  0.11633705843E+02  0.51100000000E-03 0. -1.
        -11    1    3    3    0    0  0.71244806336E+01  0.11943887170E+01  0.30121962975E+01  0.78267563844E+01  0.51100000000E-03 0.  1.
        -12    1    3    3    0    0  0.67071706022E+01 -0.30280556160E+02  0.18294942240E+01  0.31068396611E+02  0.00000000000E+00 0.  1.
</event>
<event>
 7    1  0.5041278E-013  0.5052886E+02  0.7816164E-02  0.1300439E+00
        -11   -1    0    0    0    0  0.00000000000E+00  0.00000000000E+00  0.45593999997E+02  0.45594000000E+02  0.51100000000E-03 0. -1.
         11   -1    0    0    0    0 -0.00000000000E+00 -0.00000000000E+00 -0.45593999997E+02  0.45594000000E+02  0.51100000000E-03 0.  1.
    9900012    2    1    2    0    0 -0.15138896620E+02 -0.33925413005E+02  0.16524090371E+02  0.50528863252E+02  0.30000010342E+02 0.  0.
        -12    1    1    2    0    0  0.15138896620E+02  0.33925413005E+02 -0.16524090371E+02  0.40659136748E+02  0.00000000000E+00 0.  1.
         11    1    3    3    0    0  0.31574871494E+01 -0.10854818839E+01  0.73816578977E+01  0.81016584474E+01  0.51100000000E-03 0. -1.
        -11    1    3    3    0    0 -0.13357035913E+02 -0.85664658867E+01 -0.42270691680E+00  0.15873670891E+02  0.51100000000E-03 0.  1.
        -12    1    3    3    0    0 -0.49393478567E+01 -0.24273465235E+02  0.95651393903E+01  0.26553533914E+02  0.00000000000E+00 0.  1.
</event>
<event>
 7    1  0.5041278E-013  0.5052880E+02  0.7816164E-02  0.1300439E+00
        -11   -1    0    0    0    0  0.00000000000E+00  0.00000000000E+00  0.45593999997E+02  0.45594000000E+02  0.51100000000E-03 0.  1.
         11   -1    0    0    0    0 -0.00000000000E+00 -0.00000000000E+00 -0.45593999997E+02  0.45594000000E+02  0.51100000000E-03 0. -1.
    9900012    2    1    2    0    0  0.10313771101E+02 -0.38609583776E+02  0.74898008339E+01  0.50528795013E+02  0.29999802920E+02 0.  0.
        -12    1    1    2    0    0 -0.10313771101E+02  0.38609583776E+02 -0.74898008339E+01  0.40659204987E+02  0.00000000000E+00 0.  1.
         11    1    3    3    0    0 -0.53736014885E+01 -0.10775205056E+02  0.75340692103E+01  0.14203620527E+02  0.51100000000E-03 0. -1.
        -11    1    3    3    0    0  0.11210842932E+01 -0.19517588939E+02  0.16731884538E+00  0.19550475795E+02  0.51100000000E-03 0.  1.
        -12    1    3    3    0    0  0.14566288296E+02 -0.83167897811E+01 -0.21158722175E+00  0.16774698690E+02  0.00000000000E+00 0.  1.
</event>
<event>
 7    1  0.5041278E-013  0.5052886E+02  0.7816164E-02  0.1300439E+00
        -11   -1    0    0    0    0  0.00000000000E+00  0.00000000000E+00  0.45593999997E+02  0.45594000000E+02  0.51100000000E-03 0.  1.
         11   -1    0    0    0    0 -0.00000000000E+00 -0.00000000000E+00 -0.45593999997E+02  0.45594000000E+02  0.51100000000E-03 0. -1.
    9900012    2    1    2    0    0  0.24920553721E+00  0.33111414770E+02 -0.23595290924E+02  0.50528860249E+02  0.30000001214E+02 0.  0.
        -12    1    1    2    0    0 -0.24920553721E+00 -0.33111414770E+02  0.23595290924E+02  0.40659139751E+02  0.00000000000E+00 0.  1.
         11    1    3    3    0    0  0.18167258714E+01  0.89707592580E+01 -0.53289879783E+01  0.10591181600E+02  0.51100000000E-03 0. -1.
        -11    1    3    3    0    0 -0.79604642689E+01  0.16726866715E+02 -0.22608470560E+02  0.29228410884E+02  0.51100000000E-03 0.  1.
        -12    1    3    3    0    0  0.63929439347E+01  0.74137887969E+01  0.43421676142E+01  0.10709267765E+02  0.00000000000E+00 0.  1.
</event>
<event>
 7    1  0.5041278E-013  0.5052887E+02  0.7816164E-02  0.1300439E+00
        -11   -1    0    0    0    0  0.00000000000E+00  0.00000000000E+00  0.45593999997E+02  0.45594000000E+02  0.51100000000E-03 0. -1.
         11   -1    0    0    0    0 -0.00000000000E+00 -0.00000000000E+00 -0.45593999997E+02  0.45594000000E+02  0.51100000000E-03 0.  1.
    9900012    2    1    2    0    0 -0.21943180392E+02  0.32452640730E+02  0.10885209457E+02  0.50528870140E+02  0.30000031278E+02 0.  0.
        -12    1    1    2    0    0  0.21943180392E+02 -0.32452640730E+02 -0.10885209457E+02  0.40659129860E+02  0.00000000000E+00 0.  1.
         11    1    3    3    0    0 -0.36527800398E+01  0.11630439753E+02  0.28277784701E+01  0.12514242374E+02  0.51100000000E-03 0. -1.
        -11    1    3    3    0    0 -0.13333397924E+02  0.87256585993E+01 -0.75689881366E+01  0.17641037381E+02  0.51100000000E-03 0.  1.
         12    1    3    3    0    0 -0.49570024278E+01  0.12096542377E+02  0.15626419123E+02  0.20373590385E+02  0.00000000000E+00 0. -1.
</event>
<event>
 7    1  0.5041278E-013  0.5052886E+02  0.7816164E-02  0.1300439E+00
        -11   -1    0    0    0    0  0.00000000000E+00  0.00000000000E+00  0.45593999997E+02  0.45594000000E+02  0.51100000000E-03 0.  1.
         11   -1    0    0    0    0 -0.00000000000E+00 -0.00000000000E+00 -0.45593999997E+02  0.45594000000E+02  0.51100000000E-03 0. -1.
    9900012    2    1    2    0    0  0.41967012122E+01  0.20977623675E+02 -0.34575899135E+02  0.50528858382E+02  0.29999995538E+02 0.  0.
        -12    1    1    2    0    0 -0.41967012122E+01 -0.20977623675E+02  0.34575899135E+02  0.40659141618E+02  0.00000000000E+00 0.  1.
         11    1    3    3    0    0  0.15335958269E+01  0.18243963108E+02 -0.18104365333E+02  0.25748051391E+02  0.51100000000E-03 0. -1.
        -11    1    3    3    0    0  0.83597273628E+01  0.70788590698E+01 -0.12378451614E+02  0.16529408699E+02  0.51100000000E-03 0.  1.
        -12    1    3    3    0    0 -0.56966219775E+01 -0.43451985026E+01 -0.40930821878E+01  0.82513982922E+01  0.00000000000E+00 0.  1.
</event>
<event>
 7    1  0.5041278E-013  0.5052886E+02  0.7816164E-02  0.1300439E+00
        -11   -1    0    0    0    0  0.00000000000E+00  0.00000000000E+00  0.45593999997E+02  0.45594000000E+02  0.51100000000E-03 0.  1.
         11   -1    0    0    0    0 -0.00000000000E+00 -0.00000000000E+00 -0.45593999997E+02  0.45594000000E+02  0.51100000000E-03 0. -1.
    9900012    2    1    2    0    0  0.10324123162E+02 -0.38774908351E+02 -0.65639189350E+01  0.50528855045E+02  0.29999985394E+02 0.  0.
        -12    1    1    2    0    0 -0.10324123162E+02  0.38774908351E+02  0.65639189350E+01  0.40659144955E+02  0.00000000000E+00 0.  1.
         11    1    3    3    0    0  0.11555509939E+01 -0.90418347529E+01 -0.10134237680E+02  0.13630584999E+02  0.51100000000E-03 0. -1.
        -11    1    3    3    0    0  0.12813082362E+01 -0.54512448223E+01 -0.72571940987E+01  0.91664980967E+01  0.51100000000E-03 0.  1.
        -12    1    3    3    0    0  0.78872639315E+01 -0.24281828776E+02  0.10827512844E+02  0.27731771949E+02  0.00000000000E+00 0.  1.
</event>
<event>
 7    1  0.5041278E-013  0.5052886E+02  0.7816164E-02  0.1300439E+00
        -11   -1    0    0    0    0  0.00000000000E+00  0.00000000000E+00  0.45593999997E+02  0.45594000000E+02  0.51100000000E-03 0.  1.
         11   -1    0    0    0    0 -0.00000000000E+00 -0.00000000000E+00 -0.45593999997E+02  0.45594000000E+02  0.51100000000E-03 0. -1.
    9900012    2    1    2    0    0 -0.28372219738E+02  0.20222358337E+02 -0.20958025712E+02  0.50528862388E+02  0.30000007714E+02 0.  0.
        -12    1    1    2    0    0  0.28372219738E+02 -0.20222358337E+02  0.20958025712E+02  0.40659137612E+02  0.00000000000E+00 0.  1.
         11    1    3    3    0    0 -0.69697086442E+01  0.20457162156E+01 -0.17783518133E+02  0.19209771234E+02  0.51100000000E-03 0. -1.
        -11    1    3    3    0    0 -0.33666802221E+01 -0.21128085864E+01  0.96171676405E-01  0.39758955083E+01  0.51100000000E-03 0.  1.
        -12    1    3    3    0    0 -0.18035830872E+02  0.20289450708E+02 -0.32706792556E+01  0.27343195645E+02  0.00000000000E+00 0.  1.
</event>
<event>
 7    1  0.5041278E-013  0.5052886E+02  0.7816164E-02  0.1300439E+00
        -11   -1    0    0    0    0  0.00000000000E+00  0.00000000000E+00  0.45593999997E+02  0.45594000000E+02  0.51100000000E-03 0.  1.
         11   -1    0    0    0    0 -0.00000000000E+00 -0.00000000000E+00 -0.45593999997E+02  0.45594000000E+02  0.51100000000E-03 0. -1.
    9900012    2    1    2    0    0 -0.24813289565E+02  0.31493924337E+02 -0.67527219640E+01  0.50528857571E+02  0.29999993072E+02 0.  0.
        -12    1    1    2    0    0  0.24813289565E+02 -0.31493924337E+02  0.67527219640E+01  0.40659142429E+02  0.00000000000E+00 0.  1.
         11    1    3    3    0    0 -0.26719807889E+01  0.13487123423E+02  0.28481343047E+01  0.14041148416E+02  0.51100000000E-03 0. -1.
        -11    1    3    3    0    0  0.13751669869E+01  0.13907157607E+00 -0.66660753476E+01  0.68078620687E+01  0.51100000000E-03 0.  1.
        -12    1    3    3    0    0 -0.23516475763E+02  0.17867729338E+02 -0.29347809211E+01  0.29679847086E+02  0.00000000000E+00 0.  1.
</event>
<event>
 7    1  0.5041278E-013  0.5052886E+02  0.7816164E-02  0.1300439E+00
        -11   -1    0    0    0    0  0.00000000000E+00  0.00000000000E+00  0.45593999997E+02  0.45594000000E+02  0.51100000000E-03 0.  1.
         11   -1    0    0    0    0 -0.00000000000E+00 -0.00000000000E+00 -0.45593999997E+02  0.45594000000E+02  0.51100000000E-03 0. -1.
    9900012    2    1    2    0    0 -0.15703509184E+01 -0.74065553418E+01 -0.39948001299E+02  0.50528857463E+02  0.29999992744E+02 0.  0.
        -12    1    1    2    0    0  0.15703509184E+01  0.74065553418E+01  0.39948001299E+02  0.40659142537E+02  0.00000000000E+00 0.  1.
         11    1    3    3    0    0  0.92515266522E+01 -0.18245928104E+01 -0.19122906938E+02  0.21321478709E+02  0.51100000000E-03 0. -1.
        -11    1    3    3    0    0 -0.39198738398E+01 -0.10720980714E+02 -0.87646713028E+01  0.14391813704E+02  0.51100000000E-03 0.  1.
        -12    1    3    3    0    0 -0.69020037308E+01  0.51390181829E+01 -0.12060423059E+02  0.14815565050E+02  0.00000000000E+00 0.  1.
</event>
<event>
 7    1  0.5041278E-013  0.5052886E+02  0.7816164E-02  0.1300439E+00
        -11   -1    0    0    0    0  0.00000000000E+00  0.00000000000E+00  0.45593999997E+02  0.45594000000E+02  0.51100000000E-03 0.  1.
         11   -1    0    0    0    0 -0.00000000000E+00 -0.00000000000E+00 -0.45593999997E+02  0.45594000000E+02  0.51100000000E-03 0. -1.
    9900012    2    1    2    0    0  0.18488901901E+02  0.28178856355E+02 -0.22743750846E+02  0.50528860295E+02  0.30000001353E+02 0.  0.
        -12    1    1    2    0    0 -0.18488901901E+02 -0.28178856355E+02  0.22743750846E+02  0.40659139705E+02  0.00000000000E+00 0.  1.
         11    1    3    3    0    0  0.17141763495E+02  0.18296607833E+02 -0.13193186997E+02  0.28331362433E+02  0.51100000000E-03 0. -1.
        -11    1    3    3    0    0  0.28757342329E+01  0.11274305490E+00 -0.11724863639E+02  0.12072902964E+02  0.51100000000E-03 0.  1.
        -12    1    3    3    0    0 -0.15285958269E+01  0.97695054677E+01  0.21742997894E+01  0.10124594899E+02  0.00000000000E+00 0.  1.
</event>
<event>
 7    1  0.5041278E-013  0.5052886E+02  0.7816164E-02  0.1300439E+00
        -11   -1    0    0    0    0  0.00000000000E+00  0.00000000000E+00  0.45593999997E+02  0.45594000000E+02  0.51100000000E-03 0.  1.
         11   -1    0    0    0    0 -0.00000000000E+00 -0.00000000000E+00 -0.45593999997E+02  0.45594000000E+02  0.51100000000E-03 0. -1.
    9900012    2    1    2    0    0 -0.14821637895E+02 -0.23389504111E+02 -0.29772738693E+02  0.50528858079E+02  0.29999994617E+02 0.  0.
        -12    1    1    2    0    0  0.14821637895E+02  0.23389504111E+02  0.29772738693E+02  0.40659141921E+02  0.00000000000E+00 0.  1.
         11    1    3    3    0    0 -0.68882963067E+01 -0.12786348639E+02 -0.26424317671E+02  0.30152676534E+02  0.51100000000E-03 0. -1.
        -11    1    3    3    0    0  0.29893556164E+01 -0.50134750827E+01 -0.53812116493E+01  0.79390565234E+01  0.51100000000E-03 0.  1.
         12    1    3    3    0    0 -0.10922697205E+02 -0.55896803886E+01  0.20327906266E+01  0.12437125022E+02  0.00000000000E+00 0. -1.
</event>
<event>
 7    1  0.5041278E-013  0.5052886E+02  0.7816164E-02  0.1300439E+00
        -11   -1    0    0    0    0  0.00000000000E+00  0.00000000000E+00  0.45593999997E+02  0.45594000000E+02  0.51100000000E-03 0.  1.
         11   -1    0    0    0    0 -0.00000000000E+00 -0.00000000000E+00 -0.45593999997E+02  0.45594000000E+02  0.51100000000E-03 0. -1.
    9900012    2    1    2    0    0  0.21133854512E+02 -0.32399286155E+02 -0.12522468336E+02  0.50528858800E+02  0.29999996809E+02 0.  0.
        -12    1    1    2    0    0 -0.21133854512E+02  0.32399286155E+02  0.12522468336E+02  0.40659141200E+02  0.00000000000E+00 0.  1.
         11    1    3    3    0    0  0.11836085772E+02 -0.19047767994E+02 -0.15582917175E+01  0.22479738995E+02  0.51100000000E-03 0. -1.
        -11    1    3    3    0    0  0.10118613440E+02 -0.52191058309E+01  0.30844190824E+01  0.11795721468E+02  0.51100000000E-03 0.  1.
         12    1    3    3    0    0 -0.82084469967E+00 -0.81324123304E+01 -0.14048595701E+02  0.16253398337E+02  0.00000000000E+00 0. -1.
</event>
<event>
 7    1  0.5041278E-013  0.5052886E+02  0.7816164E-02  0.1300439E+00
        -11   -1    0    0    0    0  0.00000000000E+00  0.00000000000E+00  0.45593999997E+02  0.45594000000E+02  0.51100000000E-03 0.  1.
         11   -1    0    0    0    0 -0.00000000000E+00 -0.00000000000E+00 -0.45593999997E+02  0.45594000000E+02  0.51100000000E-03 0. -1.
    9900012    2    1    2    0    0  0.35235955448E+02  0.17193446721E+02 -0.10769321830E+02  0.50528862537E+02  0.30000008169E+02 0.  0.
        -12    1    1    2    0    0 -0.35235955448E+02 -0.17193446721E+02  0.10769321830E+02  0.40659137463E+02  0.00000000000E+00 0.  1.
         11    1    3    3    0    0  0.13237397069E+02 -0.11628643005E+01 -0.13580045782E+02  0.18999962586E+02  0.51100000000E-03 0. -1.
        -11    1    3    3    0    0  0.11088101686E+02  0.67650667296E+01 -0.48476962505E+01  0.13864064558E+02  0.51100000000E-03 0.  1.
        -12    1    3    3    0    0  0.10910456693E+02  0.11591244292E+02  0.76584202030E+01  0.17664835394E+02  0.00000000000E+00 0.  1.
</event>
<event>
 7    1  0.5041278E-013  0.5052884E+02  0.7816164E-02  0.1300439E+00
        -11   -1    0    0    0    0  0.00000000000E+00  0.00000000000E+00  0.45593999997E+02  0.45594000000E+02  0.51100000000E-03 0. -1.
         11   -1    0    0    0    0 -0.00000000000E+00 -0.00000000000E+00 -0.45593999997E+02  0.45594000000E+02  0.51100000000E-03 0.  1.
    9900012    2    1    2    0    0 -0.15983679148E+02  0.31162375990E+02  0.20654188296E+02  0.50528841492E+02  0.29999944198E+02 0.  0.
        -12    1    1    2    0    0  0.15983679148E+02 -0.31162375990E+02 -0.20654188296E+02  0.40659158508E+02  0.00000000000E+00 0.  1.
         11    1    3    3    0    0  0.13396496907E+01  0.11554533195E+02  0.17679158293E+02  0.21162573966E+02  0.51100000000E-03 0. -1.
        -11    1    3    3    0    0 -0.54703616587E-01  0.83117442956E+01 -0.93380484245E+00  0.83642140973E+01  0.51100000000E-03 0.  1.
        -12    1    3    3    0    0 -0.17268625222E+02  0.11296098499E+02  0.39088348454E+01  0.21002053428E+02  0.00000000000E+00 0.  1.
</event>
<event>
 7    1  0.5041278E-013  0.5052887E+02  0.7816164E-02  0.1300439E+00
        -11   -1    0    0    0    0  0.00000000000E+00  0.00000000000E+00  0.45593999997E+02  0.45594000000E+02  0.51100000000E-03 0. -1.
         11   -1    0    0    0    0 -0.00000000000E+00 -0.00000000000E+00 -0.45593999997E+02  0.45594000000E+02  0.51100000000E-03 0.  1.
    9900012    2    1    2    0    0  0.25835726432E+02  0.14175987024E+02  0.28012875608E+02  0.50528873494E+02  0.30000041473E+02 0.  0.
        -12    1    1    2    0    0 -0.25835726432E+02 -0.14175987024E+02 -0.28012875608E+02  0.40659126506E+02  0.00000000000E+00 0.  1.
         11    1    3    3    0    0  0.12878158840E+02  0.13698083272E+02  0.93119296947E+01  0.20980860215E+02  0.51100000000E-03 0. -1.
        -11    1    3    3    0    0  0.14038724602E+02  0.68270474332E+01  0.16567081923E+02  0.22763184505E+02  0.51100000000E-03 0.  1.
        -12    1    3    3    0    0 -0.10811570103E+01 -0.63491436817E+01  0.21338639910E+01  0.67848287749E+01  0.00000000000E+00 0.  1.
</event>
<event>
 7    1  0.5041278E-013  0.5052886E+02  0.7816164E-02  0.1300439E+00
        -11   -1    0    0    0    0  0.00000000000E+00  0.00000000000E+00  0.45593999997E+02  0.45594000000E+02  0.51100000000E-03 0.  1.
         11   -1    0    0    0    0 -0.00000000000E+00 -0.00000000000E+00 -0.45593999997E+02  0.45594000000E+02  0.51100000000E-03 0. -1.
    9900012    2    1    2    0    0  0.32191054435E+02 -0.10227513717E+02 -0.22634038908E+02  0.50528859087E+02  0.29999997682E+02 0.  0.
        -12    1    1    2    0    0 -0.32191054435E+02  0.10227513717E+02  0.22634038908E+02  0.40659140913E+02  0.00000000000E+00 0.  1.
         11    1    3    3    0    0  0.19318185583E+01  0.21475797681E-01  0.87047127246E-01  0.19338980365E+01  0.51100000000E-03 0. -1.
        -11    1    3    3    0    0  0.27129152772E+02 -0.96241721445E+01 -0.33698555020E+01  0.28982262610E+02  0.51100000000E-03 0.  1.
         12    1    3    3    0    0  0.31300831044E+01 -0.62481737024E+00 -0.19351230533E+02  0.19612698441E+02  0.00000000000E+00 0. -1.
</event>
<event>
 7    1  0.5041278E-013  0.5052885E+02  0.7816164E-02  0.1300439E+00
        -11   -1    0    0    0    0  0.00000000000E+00  0.00000000000E+00  0.45593999997E+02  0.45594000000E+02  0.51100000000E-03 0.  1.
         11   -1    0    0    0    0 -0.00000000000E+00 -0.00000000000E+00 -0.45593999997E+02  0.45594000000E+02  0.51100000000E-03 0. -1.
    9900012    2    1    2    0    0  0.82295727045E+01 -0.18504029371E+02 -0.35256788403E+02  0.50528854677E+02  0.29999984278E+02 0.  0.
        -12    1    1    2    0    0 -0.82295727045E+01  0.18504029371E+02  0.35256788403E+02  0.40659145323E+02  0.00000000000E+00 0.  1.
         11    1    3    3    0    0  0.97482841579E+01 -0.79808521699E+01 -0.18881452253E+02  0.22698728705E+02  0.51100000000E-03 0. -1.
        -11    1    3    3    0    0  0.28720436196E+00 -0.14733639320E+02 -0.17728111878E+02  0.23053168220E+02  0.51100000000E-03 0.  1.
         12    1    3    3    0    0 -0.18059158154E+01  0.42104621196E+01  0.13527757282E+01  0.47769577519E+01  0.00000000000E+00 0. -1.
</event>
<event>
 7    1  0.5041278E-013  0.5052886E+02  0.7816164E-02  0.1300439E+00
        -11   -1    0    0    0    0  0.00000000000E+00  0.00000000000E+00  0.45593999997E+02  0.45594000000E+02  0.51100000000E-03 0.  1.
         11   -1    0    0    0    0 -0.00000000000E+00 -0.00000000000E+00 -0.45593999997E+02  0.45594000000E+02  0.51100000000E-03 0. -1.
    9900012    2    1    2    0    0  0.30336093581E+02  0.62227082908E+01 -0.26347006444E+02  0.50528863010E+02  0.30000009606E+02 0.  0.
        -12    1    1    2    0    0 -0.30336093581E+02 -0.62227082908E+01  0.26347006444E+02  0.40659136990E+02  0.00000000000E+00 0.  1.
         11    1    3    3    0    0  0.46146278069E+01  0.20537253386E+01  0.29393859346E+01  0.58440198063E+01  0.51100000000E-03 0.  1.
        -11    1    3    3    0    0  0.24683891248E+02 -0.11275811294E+01 -0.30398304414E+02  0.39174262441E+02  0.51100000000E-03 0. -1.
         12    1    3    3    0    0  0.10375745258E+01  0.52965640816E+01  0.11119120353E+01  0.55105807626E+01  0.00000000000E+00 0. -1.
</event>
<event>
 7    1  0.5041278E-013  0.5052886E+02  0.7816164E-02  0.1300439E+00
        -11   -1    0    0    0    0  0.00000000000E+00  0.00000000000E+00  0.45593999997E+02  0.45594000000E+02  0.51100000000E-03 0. -1.
         11   -1    0    0    0    0 -0.00000000000E+00 -0.00000000000E+00 -0.45593999997E+02  0.45594000000E+02  0.51100000000E-03 0.  1.
    9900012    2    1    2    0    0 -0.19340643254E+02  0.35404333050E+02 -0.50634687722E+01  0.50528855934E+02  0.29999988097E+02 0.  0.
        -12    1    1    2    0    0  0.19340643254E+02 -0.35404333050E+02  0.50634687722E+01  0.40659144066E+02  0.00000000000E+00 0.  1.
         11    1    3    3    0    0 -0.56964297408E+01  0.54577518494E+01 -0.57082411645E+01  0.97375759045E+01  0.51100000000E-03 0. -1.
        -11    1    3    3    0    0 -0.10297978726E+02  0.11494387058E+02 -0.10786553757E+02  0.18828676052E+02  0.51100000000E-03 0.  1.
         12    1    3    3    0    0 -0.33462347870E+01  0.18452194143E+02  0.11431326149E+02  0.21962603977E+02  0.00000000000E+00 0. -1.
</event>
<event>
 7    1  0.5041278E-013  0.5052884E+02  0.7816164E-02  0.1300439E+00
        -11   -1    0    0    0    0  0.00000000000E+00  0.00000000000E+00  0.45593999997E+02  0.45594000000E+02  0.51100000000E-03 0.  1.
         11   -1    0    0    0    0 -0.00000000000E+00 -0.00000000000E+00 -0.45593999997E+02  0.45594000000E+02  0.51100000000E-03 0. -1.
    9900012    2    1    2    0    0  0.29654881081E+02 -0.75974367620E+01 -0.26758813436E+02  0.50528842191E+02  0.29999946323E+02 0.  0.
        -12    1    1    2    0    0 -0.29654881081E+02  0.75974367620E+01  0.26758813436E+02  0.40659157809E+02  0.00000000000E+00 0.  1.
         11    1    3    3    0    0  0.25184163902E+02 -0.60690803277E+01 -0.11437770739E+02  0.28317811483E+02  0.51100000000E-03 0. -1.
        -11    1    3    3    0    0  0.74322474096E+01  0.44719781614E+01 -0.53118903337E+01  0.10171188201E+02  0.51100000000E-03 0.  1.
         12    1    3    3    0    0 -0.29615302306E+01 -0.60003345957E+01 -0.10009152363E+02  0.12039842507E+02  0.00000000000E+00 0. -1.
</event>
<event>
 7    1  0.5041278E-013  0.5052887E+02  0.7816164E-02  0.1300439E+00
        -11   -1    0    0    0    0  0.00000000000E+00  0.00000000000E+00  0.45593999997E+02  0.45594000000E+02  0.51100000000E-03 0.  1.
         11   -1    0    0    0    0 -0.00000000000E+00 -0.00000000000E+00 -0.45593999997E+02  0.45594000000E+02  0.51100000000E-03 0. -1.
    9900012    2    1    2    0    0  0.85136715165E+01  0.38489020736E+02 -0.99638218289E+01  0.50528867381E+02  0.30000022891E+02 0.  0.
        -12    1    1    2    0    0 -0.85136715165E+01 -0.38489020736E+02  0.99638218289E+01  0.40659132619E+02  0.00000000000E+00 0.  1.
         11    1    3    3    0    0  0.22804135413E+01  0.11036292829E+02  0.63077656334E+01  0.12914641028E+02  0.51100000000E-03 0.  1.
        -11    1    3    3    0    0  0.89016673404E+01  0.19277026312E+02 -0.25025561207E+01  0.21380042382E+02  0.51100000000E-03 0. -1.
         12    1    3    3    0    0 -0.26684093653E+01  0.81757015942E+01 -0.13769031342E+02  0.16234183970E+02  0.00000000000E+00 0. -1.
</event>
<event>
 7    1  0.5041278E-013  0.5052888E+02  0.7816164E-02  0.1300439E+00
        -11   -1    0    0    0    0  0.00000000000E+00  0.00000000000E+00  0.45593999997E+02  0.45594000000E+02  0.51100000000E-03 0.  1.
         11   -1    0    0    0    0 -0.00000000000E+00 -0.00000000000E+00 -0.45593999997E+02  0.45594000000E+02  0.51100000000E-03 0. -1.
    9900012    2    1    2    0    0  0.19615652924E+02 -0.29698934446E+02 -0.19656127785E+02  0.50528881633E+02  0.30000066212E+02 0.  0.
        -12    1    1    2    0    0 -0.19615652924E+02  0.29698934446E+02  0.19656127785E+02  0.40659118367E+02  0.00000000000E+00 0.  1.
         11    1    3    3    0    0 -0.36018694048E+01 -0.35669174454E+01 -0.68109423751E+01  0.84903062118E+01  0.51100000000E-03 0. -1.
        -11    1    3    3    0    0  0.24424758327E+01 -0.52916161719E+01  0.49527386601E+01  0.76483011447E+01  0.51100000000E-03 0.  1.
        -12    1    3    3    0    0  0.20775046496E+02 -0.20840400829E+02 -0.17797924071E+02  0.34390274277E+02  0.00000000000E+00 0.  1.
</event>
<event>
 7    1  0.5041278E-013  0.5052885E+02  0.7816164E-02  0.1300439E+00
        -11   -1    0    0    0    0  0.00000000000E+00  0.00000000000E+00  0.45593999997E+02  0.45594000000E+02  0.51100000000E-03 0.  1.
         11   -1    0    0    0    0 -0.00000000000E+00 -0.00000000000E+00 -0.45593999997E+02  0.45594000000E+02  0.51100000000E-03 0. -1.
    9900012    2    1    2    0    0  0.15664559980E+02 -0.26951957007E+02 -0.26103250158E+02  0.50528854723E+02  0.29999984416E+02 0.  0.
        -12    1    1    2    0    0 -0.15664559980E+02  0.26951957007E+02  0.26103250158E+02  0.40659145277E+02  0.00000000000E+00 0.  1.
         11    1    3    3    0    0 -0.50982315133E+01 -0.11079459301E+02 -0.10805648245E+02  0.16294429024E+02  0.51100000000E-03 0. -1.
        -11    1    3    3    0    0  0.43071562801E+01 -0.44685288842E+01  0.31943822500E+01  0.69802166034E+01  0.51100000000E-03 0.  1.
        -12    1    3    3    0    0  0.16455635213E+02 -0.11403968822E+02 -0.18491984163E+02  0.27254209096E+02  0.00000000000E+00 0.  1.
</event>
<event>
 7    1  0.5041278E-013  0.5052886E+02  0.7816164E-02  0.1300439E+00
        -11   -1    0    0    0    0  0.00000000000E+00  0.00000000000E+00  0.45593999997E+02  0.45594000000E+02  0.51100000000E-03 0.  1.
         11   -1    0    0    0    0 -0.00000000000E+00 -0.00000000000E+00 -0.45593999997E+02  0.45594000000E+02  0.51100000000E-03 0. -1.
    9900012    2    1    2    0    0 -0.44224693349E+01 -0.68584472067E+01 -0.39831762452E+02  0.50528857939E+02  0.29999994191E+02 0.  0.
        -12    1    1    2    0    0  0.44224693349E+01  0.68584472067E+01  0.39831762452E+02  0.40659142061E+02  0.00000000000E+00 0.  1.
         11    1    3    3    0    0  0.12965562904E+01  0.18722219064E+01 -0.10851430786E+02  0.11087823206E+02  0.51100000000E-03 0. -1.
        -11    1    3    3    0    0 -0.12172551433E+02 -0.82727390027E+01 -0.29482431573E+02  0.32951828336E+02  0.51100000000E-03 0.  1.
        -12    1    3    3    0    0  0.64535258079E+01 -0.45793011037E+00  0.50209990655E+00  0.64892063965E+01  0.00000000000E+00 0.  1.
</event>
<event>
 7    1  0.5041278E-013  0.5052886E+02  0.7816164E-02  0.1300439E+00
        -11   -1    0    0    0    0  0.00000000000E+00  0.00000000000E+00  0.45593999997E+02  0.45594000000E+02  0.51100000000E-03 0.  1.
         11   -1    0    0    0    0 -0.00000000000E+00 -0.00000000000E+00 -0.45593999997E+02  0.45594000000E+02  0.51100000000E-03 0. -1.
    9900012    2    1    2    0    0  0.35887126691E+02 -0.96200815694E+01 -0.16514651269E+02  0.50528861568E+02  0.30000005221E+02 0.  0.
        -12    1    1    2    0    0 -0.35887126691E+02  0.96200815694E+01  0.16514651269E+02  0.40659138432E+02  0.00000000000E+00 0.  1.
         11    1    3    3    0    0  0.64357161375E+01 -0.56131250500E+01  0.17971794748E+01  0.87267101107E+01  0.51100000000E-03 0. -1.
        -11    1    3    3    0    0  0.35039955550E+01 -0.32955635247E+01  0.49822219555E+01  0.69254068234E+01  0.51100000000E-03 0.  1.
        -12    1    3    3    0    0  0.25947414998E+02 -0.71139299475E+00 -0.23294052699E+02  0.34876744634E+02  0.00000000000E+00 0.  1.
</event>
<event>
 7    1  0.5041278E-013  0.5052886E+02  0.7816164E-02  0.1300439E+00
        -11   -1    0    0    0    0  0.00000000000E+00  0.00000000000E+00  0.45593999997E+02  0.45594000000E+02  0.51100000000E-03 0.  1.
         11   -1    0    0    0    0 -0.00000000000E+00 -0.00000000000E+00 -0.45593999997E+02  0.45594000000E+02  0.51100000000E-03 0. -1.
    9900012    2    1    2    0    0  0.32449891484E+02 -0.23198261790E+02  0.78746962839E+01  0.50528860204E+02  0.30000001075E+02 0.  0.
        -12    1    1    2    0    0 -0.32449891484E+02  0.23198261790E+02 -0.78746962839E+01  0.40659139796E+02  0.00000000000E+00 0.  1.
         11    1    3    3    0    0  0.30046666404E+01  0.13160882566E+01  0.67418090072E+01  0.74974728322E+01  0.51100000000E-03 0. -1.
        -11    1    3    3    0    0  0.10204033720E+02  0.76210645743E+00  0.43163442175E+01  0.11105581393E+02  0.51100000000E-03 0.  1.
         12    1    3    3    0    0  0.19241191123E+02 -0.25276456504E+02 -0.31834569407E+01  0.31925805978E+02  0.00000000000E+00 0. -1.
</event>
<event>
 7    1  0.5041278E-013  0.5052883E+02  0.7816164E-02  0.1300439E+00
        -11   -1    0    0    0    0  0.00000000000E+00  0.00000000000E+00  0.45593999997E+02  0.45594000000E+02  0.51100000000E-03 0.  1.
         11   -1    0    0    0    0 -0.00000000000E+00 -0.00000000000E+00 -0.45593999997E+02  0.45594000000E+02  0.51100000000E-03 0. -1.
    9900012    2    1    2    0    0 -0.39300202908E+01 -0.37900333443E+02 -0.14187585210E+02  0.50528832416E+02  0.29999916610E+02 0.  0.
        -12    1    1    2    0    0  0.39300202908E+01  0.37900333443E+02  0.14187585210E+02  0.40659167584E+02  0.00000000000E+00 0.  1.
         11    1    3    3    0    0  0.55362978432E+00  0.11201992721E+01 -0.26955978208E+01  0.29711277691E+01  0.51100000000E-03 0. -1.
        -11    1    3    3    0    0 -0.84533278368E+01 -0.18522816355E+02 -0.16360137741E+02  0.26119103821E+02  0.51100000000E-03 0.  1.
        -12    1    3    3    0    0  0.39696777616E+01 -0.20497716360E+02  0.48681503523E+01  0.21438600826E+02  0.00000000000E+00 0.  1.
</event>
<event>
 7    1  0.5041278E-013  0.5052886E+02  0.7816164E-02  0.1300439E+00
        -11   -1    0    0    0    0  0.00000000000E+00  0.00000000000E+00  0.45593999997E+02  0.45594000000E+02  0.51100000000E-03 0.  1.
         11   -1    0    0    0    0 -0.00000000000E+00 -0.00000000000E+00 -0.45593999997E+02  0.45594000000E+02  0.51100000000E-03 0. -1.
    9900012    2    1    2    0    0  0.61977517549E+01 -0.32590332593E+02 -0.23507958051E+02  0.50528855923E+02  0.29999988064E+02 0.  0.
        -12    1    1    2    0    0 -0.61977517549E+01  0.32590332593E+02  0.23507958051E+02  0.40659144077E+02  0.00000000000E+00 0.  1.
         11    1    3    3    0    0  0.74868965123E+00 -0.24307189510E+02 -0.24489365410E+01  0.24441712062E+02  0.51100000000E-03 0.  1.
        -11    1    3    3    0    0 -0.16476091686E+01  0.14403844968E+01 -0.47169241949E+00  0.22387088847E+01  0.51100000000E-03 0. -1.
        -12    1    3    3    0    0  0.70966712722E+01 -0.97235275796E+01 -0.20587329091E+02  0.23848434977E+02  0.00000000000E+00 0.  1.
</event>
<event>
 7    1  0.5041278E-013  0.5052886E+02  0.7816164E-02  0.1300439E+00
        -11   -1    0    0    0    0  0.00000000000E+00  0.00000000000E+00  0.45593999997E+02  0.45594000000E+02  0.51100000000E-03 0.  1.
         11   -1    0    0    0    0 -0.00000000000E+00 -0.00000000000E+00 -0.45593999997E+02  0.45594000000E+02  0.51100000000E-03 0. -1.
    9900012    2    1    2    0    0 -0.22434302538E+02 -0.25944594229E+02 -0.21834505696E+02  0.50528861555E+02  0.30000005182E+02 0.  0.
        -12    1    1    2    0    0  0.22434302538E+02  0.25944594229E+02  0.21834505696E+02  0.40659138445E+02  0.00000000000E+00 0.  1.
         11    1    3    3    0    0 -0.20751730965E+02 -0.91884168359E+01 -0.12506374285E+02  0.25912752459E+02  0.51100000000E-03 0. -1.
        -11    1    3    3    0    0  0.41193383563E+01  0.88139772629E+00 -0.17747572457E+01  0.45711676832E+01  0.51100000000E-03 0.  1.
         12    1    3    3    0    0 -0.58019099288E+01 -0.17637575120E+02 -0.75533741658E+01  0.20044941412E+02  0.00000000000E+00 0. -1.
</event>
<event>
 7    1  0.5041278E-013  0.5052886E+02  0.7816164E-02  0.1300439E+00
        -11   -1    0    0    0    0  0.00000000000E+00  0.00000000000E+00  0.45593999997E+02  0.45594000000E+02  0.51100000000E-03 0.  1.
         11   -1    0    0    0    0 -0.00000000000E+00 -0.00000000000E+00 -0.45593999997E+02  0.45594000000E+02  0.51100000000E-03 0. -1.
    9900012    2    1    2    0    0  0.14115312061E+02  0.98046490145E+01 -0.36848236859E+02  0.50528859127E+02  0.29999997803E+02 0.  0.
        -12    1    1    2    0    0 -0.14115312061E+02 -0.98046490145E+01  0.36848236859E+02  0.40659140873E+02  0.00000000000E+00 0.  1.
         11    1    3    3    0    0 -0.35047506333E+01 -0.34231428362E+01 -0.24410889697E+01  0.54735819623E+01  0.51100000000E-03 0. -1.
        -11    1    3    3    0    0 -0.21196787133E+01 -0.94986045668E-01 -0.12557865265E+02  0.12735856488E+02  0.51100000000E-03 0.  1.
         12    1    3    3    0    0  0.19739741407E+02  0.13322777896E+02 -0.21849282625E+02  0.32319420677E+02  0.00000000000E+00 0. -1.
</event>
<event>
 7    1  0.5041278E-013  0.5052886E+02  0.7816164E-02  0.1300439E+00
        -11   -1    0    0    0    0  0.00000000000E+00  0.00000000000E+00  0.45593999997E+02  0.45594000000E+02  0.51100000000E-03 0. -1.
         11   -1    0    0    0    0 -0.00000000000E+00 -0.00000000000E+00 -0.45593999997E+02  0.45594000000E+02  0.51100000000E-03 0.  1.
    9900012    2    1    2    0    0  0.34023632588E+02  0.21951767245E+02 -0.36983863819E+01  0.50528859312E+02  0.29999998364E+02 0.  0.
        -12    1    1    2    0    0 -0.34023632588E+02 -0.21951767245E+02  0.36983863819E+01  0.40659140688E+02  0.00000000000E+00 0.  1.
         11    1    3    3    0    0  0.11039701313E+02  0.17407236208E+02 -0.94386542285E+01  0.22671018314E+02  0.51100000000E-03 0. -1.
        -11    1    3    3    0    0  0.62905518477E+01 -0.19325958623E+01 -0.37688894624E+01  0.75835675877E+01  0.51100000000E-03 0.  1.
         12    1    3    3    0    0  0.16693379427E+02  0.64771268993E+01  0.95091573091E+01  0.20274273410E+02  0.00000000000E+00 0. -1.
</event>
<event>
 7    1  0.5041278E-013  0.5052887E+02  0.7816164E-02  0.1300439E+00
        -11   -1    0    0    0    0  0.00000000000E+00  0.00000000000E+00  0.45593999997E+02  0.45594000000E+02  0.51100000000E-03 0.  1.
         11   -1    0    0    0    0 -0.00000000000E+00 -0.00000000000E+00 -0.45593999997E+02  0.45594000000E+02  0.51100000000E-03 0. -1.
    9900012    2    1    2    0    0 -0.37223029463E+02  0.15275927668E+02 -0.58529788775E+01  0.50528865107E+02  0.30000015979E+02 0.  0.
        -12    1    1    2    0    0  0.37223029463E+02 -0.15275927668E+02  0.58529788775E+01  0.40659134893E+02  0.00000000000E+00 0.  1.
         11    1    3    3    0    0 -0.26080246869E+02  0.21975845249E+02 -0.60948858798E+01  0.34644836344E+02  0.51100000000E-03 0.  1.
        -11    1    3    3    0    0 -0.17590970709E+01  0.17960960517E+01 -0.17591857912E+01  0.30684064986E+01  0.51100000000E-03 0. -1.
        -12    1    3    3    0    0 -0.93836855228E+01 -0.84960136330E+01  0.20010927934E+01  0.12815622264E+02  0.00000000000E+00 0.  1.
</event>
<event>
 7    1  0.5041278E-013  0.5052886E+02  0.7816164E-02  0.1300439E+00
        -11   -1    0    0    0    0  0.00000000000E+00  0.00000000000E+00  0.45593999997E+02  0.45594000000E+02  0.51100000000E-03 0.  1.
         11   -1    0    0    0    0 -0.00000000000E+00 -0.00000000000E+00 -0.45593999997E+02  0.45594000000E+02  0.51100000000E-03 0. -1.
    9900012    2    1    2    0    0  0.17383111885E+02 -0.23368818407E+02 -0.28370606927E+02  0.50528860930E+02  0.30000003283E+02 0.  0.
        -12    1    1    2    0    0 -0.17383111885E+02  0.23368818407E+02  0.28370606927E+02  0.40659139070E+02  0.00000000000E+00 0.  1.
         11    1    3    3    0    0  0.30367433682E+01  0.46959878631E+00 -0.60399542699E+01  0.67766792124E+01  0.51100000000E-03 0.  1.
        -11    1    3    3    0    0  0.15541983820E+02 -0.27026860897E+02 -0.24554274051E+02  0.39685222004E+02  0.51100000000E-03 0. -1.
         12    1    3    3    0    0 -0.11956153037E+01  0.31884437043E+01  0.22236213942E+01  0.40669597139E+01  0.00000000000E+00 0. -1.
</event>
<event>
 7    1  0.5041278E-013  0.5052885E+02  0.7816164E-02  0.1300439E+00
        -11   -1    0    0    0    0  0.00000000000E+00  0.00000000000E+00  0.45593999997E+02  0.45594000000E+02  0.51100000000E-03 0.  1.
         11   -1    0    0    0    0 -0.00000000000E+00 -0.00000000000E+00 -0.45593999997E+02  0.45594000000E+02  0.51100000000E-03 0. -1.
    9900012    2    1    2    0    0 -0.79255934678E+01 -0.39873555387E+02 -0.67163488109E+00  0.50528849192E+02  0.29999967604E+02 0.  0.
        -12    1    1    2    0    0  0.79255934678E+01  0.39873555387E+02  0.67163488109E+00  0.40659150808E+02  0.00000000000E+00 0.  1.
         11    1    3    3    0    0 -0.96527808407E+01 -0.23680141631E+02 -0.59753126483E+01  0.26260800581E+02  0.51100000000E-03 0. -1.
        -11    1    3    3    0    0 -0.35322085451E+01 -0.16824019313E+02  0.62752627455E+00  0.17202264750E+02  0.51100000000E-03 0.  1.
        -12    1    3    3    0    0  0.52593959180E+01  0.63060555698E+00  0.46761514927E+01  0.70657838612E+01  0.00000000000E+00 0.  1.
</event>
<event>
 7    1  0.5041278E-013  0.5052885E+02  0.7816164E-02  0.1300439E+00
        -11   -1    0    0    0    0  0.00000000000E+00  0.00000000000E+00  0.45593999997E+02  0.45594000000E+02  0.51100000000E-03 0.  1.
         11   -1    0    0    0    0 -0.00000000000E+00 -0.00000000000E+00 -0.45593999997E+02  0.45594000000E+02  0.51100000000E-03 0. -1.
    9900012    2    1    2    0    0 -0.12230859791E+02  0.18280196953E+02 -0.34196592562E+02  0.50528850049E+02  0.29999970209E+02 0.  0.
        -12    1    1    2    0    0  0.12230859791E+02 -0.18280196953E+02  0.34196592562E+02  0.40659149951E+02  0.00000000000E+00 0.  1.
         11    1    3    3    0    0 -0.20377854383E+01  0.11026798488E+02 -0.68707616624E+01  0.13151053968E+02  0.51100000000E-03 0. -1.
        -11    1    3    3    0    0  0.26732780464E+01  0.77685087171E+01 -0.21926198057E+02  0.23414830871E+02  0.51100000000E-03 0.  1.
        -12    1    3    3    0    0 -0.12866352399E+02 -0.51511025167E+00 -0.53996328423E+01  0.13962965211E+02  0.00000000000E+00 0.  1.
</event>
<event>
 7    1  0.5041278E-013  0.5052883E+02  0.7816164E-02  0.1300439E+00
        -11   -1    0    0    0    0  0.00000000000E+00  0.00000000000E+00  0.45593999997E+02  0.45594000000E+02  0.51100000000E-03 0.  1.
         11   -1    0    0    0    0 -0.00000000000E+00 -0.00000000000E+00 -0.45593999997E+02  0.45594000000E+02  0.51100000000E-03 0. -1.
    9900012    2    1    2    0    0  0.32537421627E+02 -0.21553843641E+02 -0.11398059287E+02  0.50528834522E+02  0.29999923012E+02 0.  0.
        -12    1    1    2    0    0 -0.32537421627E+02  0.21553843641E+02  0.11398059287E+02  0.40659165478E+02  0.00000000000E+00 0.  1.
         11    1    3    3    0    0  0.38629063397E+01 -0.12019193754E+02 -0.10358338309E+01  0.12667123426E+02  0.51100000000E-03 0. -1.
        -11    1    3    3    0    0  0.25191804606E+02 -0.14505835455E+02 -0.12190938254E+02  0.31522456397E+02  0.51100000000E-03 0.  1.
        -12    1    3    3    0    0  0.34827106821E+01  0.49711855680E+01  0.18287127973E+01  0.63392546992E+01  0.00000000000E+00 0.  1.
</event>
<event>
 7    1  0.5041278E-013  0.5052886E+02  0.7816164E-02  0.1300439E+00
        -11   -1    0    0    0    0  0.00000000000E+00  0.00000000000E+00  0.45593999997E+02  0.45594000000E+02  0.51100000000E-03 0. -1.
         11   -1    0    0    0    0 -0.00000000000E+00 -0.00000000000E+00 -0.45593999997E+02  0.45594000000E+02  0.51100000000E-03 0.  1.
    9900012    2    1    2    0    0  0.80092118534E+01  0.35486741683E+02  0.18157897072E+02  0.50528861595E+02  0.30000005304E+02 0.  0.
        -12    1    1    2    0    0 -0.80092118534E+01 -0.35486741683E+02 -0.18157897072E+02  0.40659138405E+02  0.00000000000E+00 0.  1.
         11    1    3    3    0    0  0.14750657913E+02  0.13339587877E+02  0.27779406344E+01  0.20080922987E+02  0.51100000000E-03 0. -1.
        -11    1    3    3    0    0  0.18483754572E+00 -0.11752655624E+01  0.28357784149E+01  0.30752322742E+01  0.51100000000E-03 0.  1.
         12    1    3    3    0    0 -0.69262836049E+01  0.23322419368E+02  0.12544178023E+02  0.27372706334E+02  0.00000000000E+00 0. -1.
</event>
<event>
 7    1  0.5041278E-013  0.5052885E+02  0.7816164E-02  0.1300439E+00
        -11   -1    0    0    0    0  0.00000000000E+00  0.00000000000E+00  0.45593999997E+02  0.45594000000E+02  0.51100000000E-03 0. -1.
         11   -1    0    0    0    0 -0.00000000000E+00 -0.00000000000E+00 -0.45593999997E+02  0.45594000000E+02  0.51100000000E-03 0.  1.
    9900012    2    1    2    0    0 -0.56511997185E+00 -0.40591572866E+02  0.22741335676E+01  0.50528845658E+02  0.29999956863E+02 0.  0.
        -12    1    1    2    0    0  0.56511997185E+00  0.40591572866E+02 -0.22741335676E+01  0.40659154342E+02  0.00000000000E+00 0.  1.
         11    1    3    3    0    0  0.64944070387E+01 -0.17788536010E+01  0.47697042507E+01  0.82517708292E+01  0.51100000000E-03 0. -1.
        -11    1    3    3    0    0 -0.39885460813E+01 -0.12379474515E+02 -0.77672062006E+01  0.15148906942E+02  0.51100000000E-03 0.  1.
        -12    1    3    3    0    0 -0.30709809293E+01 -0.26433244750E+02  0.52716355176E+01  0.27128167887E+02  0.00000000000E+00 0.  1.
</event>
<event>
 7    1  0.5041278E-013  0.5052886E+02  0.7816164E-02  0.1300439E+00
        -11   -1    0    0    0    0  0.00000000000E+00  0.00000000000E+00  0.45593999997E+02  0.45594000000E+02  0.51100000000E-03 0.  1.
         11   -1    0    0    0    0 -0.00000000000E+00 -0.00000000000E+00 -0.45593999997E+02  0.45594000000E+02  0.51100000000E-03 0. -1.
    9900012    2    1    2    0    0 -0.18058203160E+02 -0.27156407900E+02 -0.24281612300E+02  0.50528857274E+02  0.29999992169E+02 0.  0.
        -12    1    1    2    0    0  0.18058203160E+02  0.27156407900E+02  0.24281612300E+02  0.40659142726E+02  0.00000000000E+00 0.  1.
         11    1    3    3    0    0 -0.16675699217E+02 -0.22225839068E+02 -0.18379635776E+02  0.33314829703E+02  0.51100000000E-03 0. -1.
        -11    1    3    3    0    0 -0.26075012966E+00 -0.28480009315E+01 -0.11121595238E+02  0.11483422000E+02  0.51100000000E-03 0.  1.
         12    1    3    3    0    0 -0.11217538133E+01 -0.20825679005E+01  0.52196187145E+01  0.57306055703E+01  0.00000000000E+00 0. -1.
</event>
<event>
 7    1  0.5041278E-013  0.5052886E+02  0.7816164E-02  0.1300439E+00
        -11   -1    0    0    0    0  0.00000000000E+00  0.00000000000E+00  0.45593999997E+02  0.45594000000E+02  0.51100000000E-03 0.  1.
         11   -1    0    0    0    0 -0.00000000000E+00 -0.00000000000E+00 -0.45593999997E+02  0.45594000000E+02  0.51100000000E-03 0. -1.
    9900012    2    1    2    0    0  0.71772808675E+01 -0.16120313739E+02 -0.36630419232E+02  0.50528862173E+02  0.30000007063E+02 0.  0.
        -12    1    1    2    0    0 -0.71772808675E+01  0.16120313739E+02  0.36630419232E+02  0.40659137827E+02  0.00000000000E+00 0.  1.
         11    1    3    3    0    0  0.32951857407E+01  0.49749364630E+01 -0.40375560097E+01  0.72048664574E+01  0.51100000000E-03 0. -1.
        -11    1    3    3    0    0 -0.46230365896E+01  0.48669467397E+00 -0.95794757264E+01  0.10647802330E+02  0.51100000000E-03 0.  1.
         12    1    3    3    0    0  0.85051317165E+01 -0.21581944876E+02 -0.23013387496E+02  0.32676193386E+02  0.00000000000E+00 0. -1.
</event>
<event>
 7    1  0.5041278E-013  0.5052887E+02  0.7816164E-02  0.1300439E+00
        -11   -1    0    0    0    0  0.00000000000E+00  0.00000000000E+00  0.45593999997E+02  0.45594000000E+02  0.51100000000E-03 0.  1.
         11   -1    0    0    0    0 -0.00000000000E+00 -0.00000000000E+00 -0.45593999997E+02  0.45594000000E+02  0.51100000000E-03 0. -1.
    9900012    2    1    2    0    0  0.11144004039E+01  0.23459233490E+02 -0.33190166174E+02  0.50528872429E+02  0.30000038235E+02 0.  0.
        -12    1    1    2    0    0 -0.11144004039E+01 -0.23459233490E+02  0.33190166174E+02  0.40659127571E+02  0.00000000000E+00 0.  1.
         11    1    3    3    0    0  0.59615974701E+01  0.44538654452E+01 -0.67309290060E+01  0.10034090260E+02  0.51100000000E-03 0. -1.
        -11    1    3    3    0    0  0.74854411924E+01  0.15699296512E+02 -0.11612506173E+02  0.20912915643E+02  0.51100000000E-03 0.  1.
        -12    1    3    3    0    0 -0.12332638259E+02  0.33060715324E+01 -0.14846730995E+02  0.19581866526E+02  0.00000000000E+00 0.  1.
</event>
<event>
 7    1  0.5041278E-013  0.5052886E+02  0.7816164E-02  0.1300439E+00
        -11   -1    0    0    0    0  0.00000000000E+00  0.00000000000E+00  0.45593999997E+02  0.45594000000E+02  0.51100000000E-03 0.  1.
         11   -1    0    0    0    0 -0.00000000000E+00 -0.00000000000E+00 -0.45593999997E+02  0.45594000000E+02  0.51100000000E-03 0. -1.
    9900012    2    1    2    0    0  0.17630412993E+02 -0.22088754891E+02 -0.29230481061E+02  0.50528861077E+02  0.30000003728E+02 0.  0.
        -12    1    1    2    0    0 -0.17630412993E+02  0.22088754891E+02  0.29230481061E+02  0.40659138923E+02  0.00000000000E+00 0.  1.
         11    1    3    3    0    0  0.21196742113E+02 -0.14636470313E+02 -0.27266310774E+02  0.37509729977E+02  0.51100000000E-03 0. -1.
        -11    1    3    3    0    0 -0.33973294275E+01 -0.88755800296E+01 -0.41783443628E+01  0.10381537939E+02  0.51100000000E-03 0.  1.
        -12    1    3    3    0    0 -0.16899969256E+00  0.14232954521E+01  0.22141740763E+01  0.26375931605E+01  0.00000000000E+00 0.  1.
</event>
<event>
 7    1  0.5041278E-013  0.5052887E+02  0.7816164E-02  0.1300439E+00
        -11   -1    0    0    0    0  0.00000000000E+00  0.00000000000E+00  0.45593999997E+02  0.45594000000E+02  0.51100000000E-03 0.  1.
         11   -1    0    0    0    0 -0.00000000000E+00 -0.00000000000E+00 -0.45593999997E+02  0.45594000000E+02  0.51100000000E-03 0. -1.
    9900012    2    1    2    0    0  0.14014427310E+02  0.31255898586E+01 -0.38039341405E+02  0.50528868439E+02  0.30000026106E+02 0.  0.
        -12    1    1    2    0    0 -0.14014427310E+02 -0.31255898586E+01  0.38039341405E+02  0.40659131561E+02  0.00000000000E+00 0.  1.
         11    1    3    3    0    0  0.94278442112E+01  0.51766106941E+01 -0.10056714219E+02  0.14724776599E+02  0.51100000000E-03 0. -1.
        -11    1    3    3    0    0 -0.15960764805E+01 -0.66811121291E+01 -0.98417476156E-01  0.68698184601E+01  0.51100000000E-03 0.  1.
         12    1    3    3    0    0  0.61826595790E+01  0.46300912936E+01 -0.27884209710E+02  0.28934273379E+02  0.00000000000E+00 0. -1.
</event>
<event>
 7    1  0.5041278E-013  0.5052887E+02  0.7816164E-02  0.1300439E+00
        -11   -1    0    0    0    0  0.00000000000E+00  0.00000000000E+00  0.45593999997E+02  0.45594000000E+02  0.51100000000E-03 0.  1.
         11   -1    0    0    0    0 -0.00000000000E+00 -0.00000000000E+00 -0.45593999997E+02  0.45594000000E+02  0.51100000000E-03 0. -1.
    9900012    2    1    2    0    0  0.38565969546E+02  0.12864941025E+02  0.56962120491E+00  0.50528865935E+02  0.30000018495E+02 0.  0.
        -12    1    1    2    0    0 -0.38565969546E+02 -0.12864941025E+02 -0.56962120491E+00  0.40659134065E+02  0.00000000000E+00 0.  1.
         11    1    3    3    0    0  0.14735648879E+02  0.37414238928E+01  0.12480401929E+02  0.19669723770E+02  0.51100000000E-03 0. -1.
        -11    1    3    3    0    0  0.38982821603E+01 -0.31848417961E+01 -0.23865586584E+01  0.55709499691E+01  0.51100000000E-03 0.  1.
         12    1    3    3    0    0  0.19932038508E+02  0.12308358928E+02 -0.95242220658E+01  0.25288192196E+02  0.00000000000E+00 0. -1.
</event>
<event>
 7    1  0.5041278E-013  0.5052888E+02  0.7816164E-02  0.1300439E+00
        -11   -1    0    0    0    0  0.00000000000E+00  0.00000000000E+00  0.45593999997E+02  0.45594000000E+02  0.51100000000E-03 0.  1.
         11   -1    0    0    0    0 -0.00000000000E+00 -0.00000000000E+00 -0.45593999997E+02  0.45594000000E+02  0.51100000000E-03 0. -1.
    9900012    2    1    2    0    0 -0.24509352564E+02 -0.91738337732E+00 -0.32428597767E+02  0.50528881606E+02  0.30000066131E+02 0.  0.
        -12    1    1    2    0    0  0.24509352564E+02  0.91738337732E+00  0.32428597767E+02  0.40659118394E+02  0.00000000000E+00 0.  1.
         11    1    3    3    0    0  0.24492948961E+01  0.51024659192E+00 -0.81383408486E+01  0.85142227538E+01  0.51100000000E-03 0. -1.
        -11    1    3    3    0    0 -0.12626084822E+02  0.96083917123E+01 -0.14249258454E+02  0.21325585010E+02  0.51100000000E-03 0.  1.
        -12    1    3    3    0    0 -0.14332562638E+02 -0.11036021681E+02 -0.10040998464E+02  0.20689073843E+02  0.00000000000E+00 0.  1.
</event>
<event>
 7    1  0.5041278E-013  0.5052886E+02  0.7816164E-02  0.1300439E+00
        -11   -1    0    0    0    0  0.00000000000E+00  0.00000000000E+00  0.45593999997E+02  0.45594000000E+02  0.51100000000E-03 0.  1.
         11   -1    0    0    0    0 -0.00000000000E+00 -0.00000000000E+00 -0.45593999997E+02  0.45594000000E+02  0.51100000000E-03 0. -1.
    9900012    2    1    2    0    0 -0.23752362567E+02  0.73640519046E+01 -0.32167716818E+02  0.50528855970E+02  0.29999988205E+02 0.  0.
        -12    1    1    2    0    0  0.23752362567E+02 -0.73640519046E+01  0.32167716818E+02  0.40659144030E+02  0.00000000000E+00 0.  1.
         11    1    3    3    0    0 -0.10613829900E+02 -0.76984945939E+01 -0.56842432039E+01  0.14290935072E+02  0.51100000000E-03 0.  1.
        -11    1    3    3    0    0 -0.62145023004E+01  0.35268409864E+00 -0.15264306553E+02  0.16484643755E+02  0.51100000000E-03 0. -1.
        -12    1    3    3    0    0 -0.69240303663E+01  0.14709862400E+02 -0.11219167061E+02  0.19753277143E+02  0.00000000000E+00 0.  1.
</event>
<event>
 7    1  0.5041278E-013  0.5052886E+02  0.7816164E-02  0.1300439E+00
        -11   -1    0    0    0    0  0.00000000000E+00  0.00000000000E+00  0.45593999997E+02  0.45594000000E+02  0.51100000000E-03 0.  1.
         11   -1    0    0    0    0 -0.00000000000E+00 -0.00000000000E+00 -0.45593999997E+02  0.45594000000E+02  0.51100000000E-03 0. -1.
    9900012    2    1    2    0    0 -0.18273756089E+02 -0.76976606972E+01 -0.35496213688E+02  0.50528864151E+02  0.30000013074E+02 0.  0.
        -12    1    1    2    0    0  0.18273756089E+02  0.76976606972E+01  0.35496213688E+02  0.40659135849E+02  0.00000000000E+00 0.  1.
         11    1    3    3    0    0  0.26612871300E+01 -0.41239545895E+01 -0.12330698764E+02  0.13271608151E+02  0.51100000000E-03 0. -1.
        -11    1    3    3    0    0  0.33902783458E+01 -0.27119582891E+01 -0.62744697223E+01  0.76300508243E+01  0.51100000000E-03 0.  1.
        -12    1    3    3    0    0 -0.24325321565E+02 -0.86174781862E+00 -0.16891045201E+02  0.29627205176E+02  0.00000000000E+00 0.  1.
</event>
<event>
 7    1  0.5041278E-013  0.5052886E+02  0.7816164E-02  0.1300439E+00
        -11   -1    0    0    0    0  0.00000000000E+00  0.00000000000E+00  0.45593999997E+02  0.45594000000E+02  0.51100000000E-03 0.  1.
         11   -1    0    0    0    0 -0.00000000000E+00 -0.00000000000E+00 -0.45593999997E+02  0.45594000000E+02  0.51100000000E-03 0. -1.
    9900012    2    1    2    0    0 -0.27506185889E+00 -0.39417264424E+02  0.99683946495E+01  0.50528864672E+02  0.30000014657E+02 0.  0.
        -12    1    1    2    0    0  0.27506185889E+00  0.39417264424E+02 -0.99683946495E+01  0.40659135328E+02  0.00000000000E+00 0.  1.
         11    1    3    3    0    0 -0.20961413708E+01 -0.14552324992E+02 -0.15559005860E+00  0.14703339071E+02  0.51100000000E-03 0. -1.
        -11    1    3    3    0    0 -0.38836365315E+01 -0.22863712165E+02  0.15369253081E+02  0.27821680524E+02  0.51100000000E-03 0.  1.
         12    1    3    3    0    0  0.57047160434E+01 -0.20012272680E+01 -0.52452683727E+01  0.80038450769E+01  0.00000000000E+00 0. -1.
</event>
<event>
 7    1  0.5041278E-013  0.5052886E+02  0.7816164E-02  0.1300439E+00
        -11   -1    0    0    0    0  0.00000000000E+00  0.00000000000E+00  0.45593999997E+02  0.45594000000E+02  0.51100000000E-03 0.  1.
         11   -1    0    0    0    0 -0.00000000000E+00 -0.00000000000E+00 -0.45593999997E+02  0.45594000000E+02  0.51100000000E-03 0. -1.
    9900012    2    1    2    0    0 -0.27966392845E+02  0.16023534504E+02 -0.24784927462E+02  0.50528863068E+02  0.30000009783E+02 0.  0.
        -12    1    1    2    0    0  0.27966392845E+02 -0.16023534504E+02  0.24784927462E+02  0.40659136932E+02  0.00000000000E+00 0.  1.
         11    1    3    3    0    0 -0.94550476530E+01  0.92530540954E+01 -0.20702244785E+02  0.24568269691E+02  0.51100000000E-03 0. -1.
        -11    1    3    3    0    0  0.26084387562E+01  0.84887708589E+00 -0.29039927837E+01  0.39947114289E+01  0.51100000000E-03 0.  1.
         12    1    3    3    0    0 -0.21119783948E+02  0.59216033225E+01 -0.11786898931E+01  0.21965881948E+02  0.00000000000E+00 0. -1.
</event>
<event>
 7    1  0.5041278E-013  0.5052886E+02  0.7816164E-02  0.1300439E+00
        -11   -1    0    0    0    0  0.00000000000E+00  0.00000000000E+00  0.45593999997E+02  0.45594000000E+02  0.51100000000E-03 0. -1.
         11   -1    0    0    0    0 -0.00000000000E+00 -0.00000000000E+00 -0.45593999997E+02  0.45594000000E+02  0.51100000000E-03 0.  1.
    9900012    2    1    2    0    0  0.35907688990E+02 -0.15598571542E+02  0.10976708374E+02  0.50528859705E+02  0.29999999560E+02 0.  0.
        -12    1    1    2    0    0 -0.35907688990E+02  0.15598571542E+02 -0.10976708374E+02  0.40659140295E+02  0.00000000000E+00 0.  1.
         11    1    3    3    0    0  0.77394190793E+01 -0.10404925038E+02  0.84936742959E+01  0.15501728163E+02  0.51100000000E-03 0. -1.
        -11    1    3    3    0    0  0.11350185055E+01  0.18003508829E+00 -0.60626105747E+01  0.61705694131E+01  0.51100000000E-03 0.  1.
         12    1    3    3    0    0  0.27033251405E+02 -0.53736815929E+01  0.85456446527E+01  0.28856562129E+02  0.00000000000E+00 0. -1.
</event>
<event>
 7    1  0.5041278E-013  0.5052886E+02  0.7816164E-02  0.1300439E+00
        -11   -1    0    0    0    0  0.00000000000E+00  0.00000000000E+00  0.45593999997E+02  0.45594000000E+02  0.51100000000E-03 0.  1.
         11   -1    0    0    0    0 -0.00000000000E+00 -0.00000000000E+00 -0.45593999997E+02  0.45594000000E+02  0.51100000000E-03 0. -1.
    9900012    2    1    2    0    0  0.24813058029E+01 -0.70177906328E+01 -0.39971978603E+02  0.50528864037E+02  0.30000012727E+02 0.  0.
        -12    1    1    2    0    0 -0.24813058029E+01  0.70177906328E+01  0.39971978603E+02  0.40659135963E+02  0.00000000000E+00 0.  1.
         11    1    3    3    0    0  0.49724339544E+01 -0.10776161772E+02 -0.30833048106E+02  0.33038275042E+02  0.51100000000E-03 0. -1.
        -11    1    3    3    0    0  0.33994566328E+01 -0.37711175610E+01 -0.16240501801E+01  0.53305883640E+01  0.51100000000E-03 0.  1.
        -12    1    3    3    0    0 -0.58905847843E+01  0.75294886999E+01 -0.75148803164E+01  0.12160000631E+02  0.00000000000E+00 0.  1.
</event>
<event>
 7    1  0.5041278E-013  0.5052885E+02  0.7816164E-02  0.1300439E+00
        -11   -1    0    0    0    0  0.00000000000E+00  0.00000000000E+00  0.45593999997E+02  0.45594000000E+02  0.51100000000E-03 0.  1.
         11   -1    0    0    0    0 -0.00000000000E+00 -0.00000000000E+00 -0.45593999997E+02  0.45594000000E+02  0.51100000000E-03 0. -1.
    9900012    2    1    2    0    0 -0.17310141081E+02 -0.20228608184E+02 -0.30729933127E+02  0.50528851419E+02  0.29999974373E+02 0.  0.
        -12    1    1    2    0    0  0.17310141081E+02  0.20228608184E+02  0.30729933127E+02  0.40659148581E+02  0.00000000000E+00 0.  1.
         11    1    3    3    0    0 -0.67934251082E+01 -0.19185201442E+01 -0.14905910625E+02  0.16492953528E+02  0.51100000000E-03 0. -1.
        -11    1    3    3    0    0 -0.51962048582E+01  0.37065325357E+01 -0.76330166945E+01  0.99499684666E+01  0.51100000000E-03 0.  1.
        -12    1    3    3    0    0 -0.53205111145E+01 -0.22016620576E+02 -0.81910058073E+01  0.24085929424E+02  0.00000000000E+00 0.  1.
</event>
<event>
 7    1  0.5041278E-013  0.5052887E+02  0.7816164E-02  0.1300439E+00
        -11   -1    0    0    0    0  0.00000000000E+00  0.00000000000E+00  0.45593999997E+02  0.45594000000E+02  0.51100000000E-03 0.  1.
         11   -1    0    0    0    0 -0.00000000000E+00 -0.00000000000E+00 -0.45593999997E+02  0.45594000000E+02  0.51100000000E-03 0. -1.
    9900012    2    1    2    0    0 -0.11168011735E+02  0.34552899737E+02 -0.18290376221E+02  0.50528865372E+02  0.30000016785E+02 0.  0.
        -12    1    1    2    0    0  0.11168011735E+02 -0.34552899737E+02  0.18290376221E+02  0.40659134628E+02  0.00000000000E+00 0.  1.
         11    1    3    3    0    0 -0.10247212310E+02  0.14512561007E+02 -0.71964027931E+01  0.19167889830E+02  0.51100000000E-03 0. -1.
        -11    1    3    3    0    0 -0.34290148276E+00  0.24583792683E+02 -0.10530311220E+02  0.26746362346E+02  0.51100000000E-03 0.  1.
        -12    1    3    3    0    0 -0.57789794227E+00 -0.45434539535E+01 -0.56366220836E+00  0.46146131955E+01  0.00000000000E+00 0.  1.
</event>
<event>
 7    1  0.5041278E-013  0.5052888E+02  0.7816164E-02  0.1300439E+00
        -11   -1    0    0    0    0  0.00000000000E+00  0.00000000000E+00  0.45593999997E+02  0.45594000000E+02  0.51100000000E-03 0. -1.
         11   -1    0    0    0    0 -0.00000000000E+00 -0.00000000000E+00 -0.45593999997E+02  0.45594000000E+02  0.51100000000E-03 0.  1.
    9900012    2    1    2    0    0 -0.11921743205E+02  0.38068764686E+02  0.78616408222E+01  0.50528877995E+02  0.30000055154E+02 0.  0.
        -12    1    1    2    0    0  0.11921743205E+02 -0.38068764686E+02 -0.78616408222E+01  0.40659122005E+02  0.00000000000E+00 0.  1.
         11    1    3    3    0    0 -0.93711199867E+01  0.67281880523E+01  0.92990559498E+01  0.14817518216E+02  0.51100000000E-03 0. -1.
        -11    1    3    3    0    0  0.45397930057E+01  0.35413350346E+01 -0.38415410883E+01  0.69215758723E+01  0.51100000000E-03 0.  1.
         12    1    3    3    0    0 -0.70904162240E+01  0.27799241600E+02  0.24041259608E+01  0.28789783906E+02  0.00000000000E+00 0. -1.
</event>
<event>
 7    1  0.5041278E-013  0.5052886E+02  0.7816164E-02  0.1300439E+00
        -11   -1    0    0    0    0  0.00000000000E+00  0.00000000000E+00  0.45593999997E+02  0.45594000000E+02  0.51100000000E-03 0. -1.
         11   -1    0    0    0    0 -0.00000000000E+00 -0.00000000000E+00 -0.45593999997E+02  0.45594000000E+02  0.51100000000E-03 0.  1.
    9900012    2    1    2    0    0 -0.19091130164E+02  0.20719004452E+02  0.29315818537E+02  0.50528860647E+02  0.30000002424E+02 0.  0.
        -12    1    1    2    0    0  0.19091130164E+02 -0.20719004452E+02 -0.29315818537E+02  0.40659139353E+02  0.00000000000E+00 0.  1.
         11    1    3    3    0    0 -0.27409741321E+00  0.96992033189E+01 -0.32881001705E+00  0.97086451527E+01  0.51100000000E-03 0.  1.
        -11    1    3    3    0    0 -0.44155245778E+01  0.11385829471E+02  0.20166033643E+02  0.23575472067E+02  0.51100000000E-03 0. -1.
        -12    1    3    3    0    0 -0.14401508173E+02 -0.36602833795E+00  0.94785949109E+01  0.17244743427E+02  0.00000000000E+00 0.  1.
</event>
<event>
 7    1  0.9055582E-013  0.5052886E+02  0.7816164E-02  0.1300439E+00
        -11   -1    0    0    0    0  0.00000000000E+00  0.00000000000E+00  0.45593999997E+02  0.45594000000E+02  0.51100000000E-03 0. -1.
         11   -1    0    0    0    0 -0.00000000000E+00 -0.00000000000E+00 -0.45593999997E+02  0.45594000000E+02  0.51100000000E-03 0.  1.
    9900012    2    1    2    0    0 -0.10394875989E+02 -0.13129556621E+02  0.37050325232E+02  0.50528864450E+02  0.30000013982E+02 0.  0.
        -12    1    1    2    0    0  0.10394875989E+02  0.13129556621E+02 -0.37050325232E+02  0.40659135550E+02  0.00000000000E+00 0.  1.
         11    1    3    3    0    0  0.32296580770E+01  0.44986429308E+01  0.98537702267E+01  0.11303329928E+02  0.51100000000E-03 0. -1.
        -11    1    3    3    0    0 -0.13238203835E+02 -0.56264402466E+01  0.76678304631E+01  0.16300383275E+02  0.51100000000E-03 0.  1.
         12    1    3    3    0    0 -0.38633023071E+00 -0.12001759305E+02  0.19528724542E+02  0.22925151247E+02  0.00000000000E+00 0. -1.
</event>
<event>
 7    1  0.5041278E-013  0.5052885E+02  0.7816164E-02  0.1300439E+00
        -11   -1    0    0    0    0  0.00000000000E+00  0.00000000000E+00  0.45593999997E+02  0.45594000000E+02  0.51100000000E-03 0.  1.
         11   -1    0    0    0    0 -0.00000000000E+00 -0.00000000000E+00 -0.45593999997E+02  0.45594000000E+02  0.51100000000E-03 0. -1.
    9900012    2    1    2    0    0 -0.16833530924E+02  0.19102060362E+02 -0.31700321751E+02  0.50528845156E+02  0.29999955337E+02 0.  0.
        -12    1    1    2    0    0  0.16833530924E+02 -0.19102060362E+02  0.31700321751E+02  0.40659154844E+02  0.00000000000E+00 0.  1.
         11    1    3    3    0    0 -0.21172498316E+02  0.97568560695E+01 -0.19530357979E+02  0.30412264111E+02  0.51100000000E-03 0. -1.
        -11    1    3    3    0    0 -0.28017422218E+01  0.74215341380E+01 -0.33622838606E+01  0.86159086265E+01  0.51100000000E-03 0.  1.
         12    1    3    3    0    0  0.71407096137E+01  0.19236701549E+01 -0.88076799120E+01  0.11500672419E+02  0.00000000000E+00 0. -1.
</event>
<event>
 7    1  0.5041278E-013  0.5052886E+02  0.7816164E-02  0.1300439E+00
        -11   -1    0    0    0    0  0.00000000000E+00  0.00000000000E+00  0.45593999997E+02  0.45594000000E+02  0.51100000000E-03 0.  1.
         11   -1    0    0    0    0 -0.00000000000E+00 -0.00000000000E+00 -0.45593999997E+02  0.45594000000E+02  0.51100000000E-03 0. -1.
    9900012    2    1    2    0    0 -0.21063154398E+02  0.19757513167E+02 -0.28620800979E+02  0.50528855292E+02  0.29999986145E+02 0.  0.
        -12    1    1    2    0    0  0.21063154398E+02 -0.19757513167E+02  0.28620800979E+02  0.40659144708E+02  0.00000000000E+00 0.  1.
         11    1    3    3    0    0  0.22982575473E+01 -0.10077047561E+01 -0.43483180845E+01  0.50204907184E+01  0.51100000000E-03 0. -1.
        -11    1    3    3    0    0 -0.33632042878E+00  0.13077355845E+02 -0.34559942087E+01  0.13530493102E+02  0.51100000000E-03 0.  1.
         12    1    3    3    0    0 -0.23025091517E+02  0.76878620779E+01 -0.20816488685E+02  0.31977871472E+02  0.00000000000E+00 0. -1.
</event>
<event>
 7    1  0.5041278E-013  0.5052887E+02  0.7816164E-02  0.1300439E+00
        -11   -1    0    0    0    0  0.00000000000E+00  0.00000000000E+00  0.45593999997E+02  0.45594000000E+02  0.51100000000E-03 0. -1.
         11   -1    0    0    0    0 -0.00000000000E+00 -0.00000000000E+00 -0.45593999997E+02  0.45594000000E+02  0.51100000000E-03 0.  1.
    9900012    2    1    2    0    0  0.84487560227E+01  0.23373667191E+02  0.32178486004E+02  0.50528871163E+02  0.30000034388E+02 0.  0.
        -12    1    1    2    0    0 -0.84487560227E+01 -0.23373667191E+02 -0.32178486004E+02  0.40659128837E+02  0.00000000000E+00 0.  1.
         11    1    3    3    0    0  0.30891432937E+01  0.11782051823E+02 -0.17150280964E+01  0.12300441987E+02  0.51100000000E-03 0. -1.
        -11    1    3    3    0    0 -0.26634525744E+01  0.86282882378E+01  0.19419107416E+02  0.21415953648E+02  0.51100000000E-03 0.  1.
        -12    1    3    3    0    0  0.80230653034E+01  0.29633271300E+01  0.14474406684E+02  0.16812475528E+02  0.00000000000E+00 0.  1.
</event>
<event>
 7    1  0.5041278E-013  0.5052886E+02  0.7816164E-02  0.1300439E+00
        -11   -1    0    0    0    0  0.00000000000E+00  0.00000000000E+00  0.45593999997E+02  0.45594000000E+02  0.51100000000E-03 0.  1.
         11   -1    0    0    0    0 -0.00000000000E+00 -0.00000000000E+00 -0.45593999997E+02  0.45594000000E+02  0.51100000000E-03 0. -1.
    9900012    2    1    2    0    0 -0.15320286899E+02  0.11730849046E+02 -0.35788846286E+02  0.50528861685E+02  0.30000005577E+02 0.  0.
        -12    1    1    2    0    0  0.15320286899E+02 -0.11730849046E+02  0.35788846286E+02  0.40659138315E+02  0.00000000000E+00 0.  1.
         11    1    3    3    0    0 -0.23172155089E+01  0.85233334617E+01 -0.10652014472E+02  0.13837706226E+02  0.51100000000E-03 0. -1.
        -11    1    3    3    0    0  0.17701074461E+01  0.52992466155E+01  0.18238233675E+01  0.58772125196E+01  0.51100000000E-03 0.  1.
         12    1    3    3    0    0 -0.14773178837E+02 -0.20917310313E+01 -0.26960655181E+02  0.30813942939E+02  0.00000000000E+00 0. -1.
</event>
<event>
 7    1  0.5041278E-013  0.5052885E+02  0.7816164E-02  0.1300439E+00
        -11   -1    0    0    0    0  0.00000000000E+00  0.00000000000E+00  0.45593999997E+02  0.45594000000E+02  0.51100000000E-03 0.  1.
         11   -1    0    0    0    0 -0.00000000000E+00 -0.00000000000E+00 -0.45593999997E+02  0.45594000000E+02  0.51100000000E-03 0. -1.
    9900012    2    1    2    0    0  0.34584886225E+02 -0.14134403383E+02 -0.16039666458E+02  0.50528848334E+02  0.29999964995E+02 0.  0.
        -12    1    1    2    0    0 -0.34584886225E+02  0.14134403383E+02  0.16039666458E+02  0.40659151666E+02  0.00000000000E+00 0.  1.
         11    1    3    3    0    0  0.97572115966E+00 -0.30264107930E+01  0.41436112520E+01  0.52230937708E+01  0.51100000000E-03 0. -1.
        -11    1    3    3    0    0  0.16015816577E+02 -0.11836108356E+02 -0.20340923332E+01  0.20018425850E+02  0.51100000000E-03 0.  1.
         12    1    3    3    0    0  0.17593348488E+02  0.72811576600E+00 -0.18149185377E+02  0.25287328713E+02  0.00000000000E+00 0. -1.
</event>
<event>
 7    1  0.5041278E-013  0.5052886E+02  0.7816164E-02  0.1300439E+00
        -11   -1    0    0    0    0  0.00000000000E+00  0.00000000000E+00  0.45593999997E+02  0.45594000000E+02  0.51100000000E-03 0.  1.
         11   -1    0    0    0    0 -0.00000000000E+00 -0.00000000000E+00 -0.45593999997E+02  0.45594000000E+02  0.51100000000E-03 0. -1.
    9900012    2    1    2    0    0  0.35917765482E+02  0.10972984419E+02 -0.15577977043E+02  0.50528860400E+02  0.30000001671E+02 0.  0.
        -12    1    1    2    0    0 -0.35917765482E+02 -0.10972984419E+02  0.15577977043E+02  0.40659139600E+02  0.00000000000E+00 0.  1.
         11    1    3    3    0    0 -0.48099597058E+00  0.32130599766E+01 -0.48582180231E+01  0.58444327490E+01  0.51100000000E-03 0. -1.
        -11    1    3    3    0    0  0.26407807380E+02  0.14660200560E+02 -0.11945345386E+02  0.32480533366E+02  0.51100000000E-03 0.  1.
        -12    1    3    3    0    0  0.99909540726E+01 -0.69002761176E+01  0.12255863661E+01  0.12203894285E+02  0.00000000000E+00 0.  1.
</event>
<event>
 7    1  0.5041278E-013  0.5052886E+02  0.7816164E-02  0.1300439E+00
        -11   -1    0    0    0    0  0.00000000000E+00  0.00000000000E+00  0.45593999997E+02  0.45594000000E+02  0.51100000000E-03 0. -1.
         11   -1    0    0    0    0 -0.00000000000E+00 -0.00000000000E+00 -0.45593999997E+02  0.45594000000E+02  0.51100000000E-03 0.  1.
    9900012    2    1    2    0    0  0.79291404038E-03 -0.36381679211E+02 -0.18153202114E+02  0.50528864128E+02  0.30000013004E+02 0.  0.
        -12    1    1    2    0    0 -0.79291404038E-03  0.36381679211E+02  0.18153202114E+02  0.40659135872E+02  0.00000000000E+00 0.  1.
         11    1    3    3    0    0 -0.11820672287E+01 -0.33179822356E+01  0.20004537694E+01  0.40506918661E+01  0.51100000000E-03 0. -1.
        -11    1    3    3    0    0 -0.29702083622E+01  0.27258013631E+01 -0.70849152464E+01  0.81515737803E+01  0.51100000000E-03 0.  1.
         12    1    3    3    0    0  0.41530685050E+01 -0.35789498339E+02 -0.13068740637E+02  0.38326598482E+02  0.00000000000E+00 0. -1.
</event>
<event>
 7    1  0.5041278E-013  0.5052886E+02  0.7816164E-02  0.1300439E+00
        -11   -1    0    0    0    0  0.00000000000E+00  0.00000000000E+00  0.45593999997E+02  0.45594000000E+02  0.51100000000E-03 0. -1.
         11   -1    0    0    0    0 -0.00000000000E+00 -0.00000000000E+00 -0.45593999997E+02  0.45594000000E+02  0.51100000000E-03 0.  1.
    9900012    2    1    2    0    0 -0.13406831627E+02  0.37739714936E+02  0.70097348101E+01  0.50528860808E+02  0.30000002913E+02 0.  0.
        -12    1    1    2    0    0  0.13406831627E+02 -0.37739714936E+02 -0.70097348101E+01  0.40659139192E+02  0.00000000000E+00 0.  1.
         11    1    3    3    0    0  0.60455584303E+01  0.31723870952E+01  0.65359247190E+01  0.94515146304E+01  0.51100000000E-03 0.  1.
        -11    1    3    3    0    0 -0.10639984954E+02  0.14492210990E+02  0.50630727589E+01  0.18678012882E+02  0.51100000000E-03 0. -1.
        -12    1    3    3    0    0 -0.88124051028E+01  0.20075116851E+02 -0.45892626678E+01  0.22399333296E+02  0.00000000000E+00 0.  1.
</event>
<event>
 7    1  0.5041278E-013  0.5052886E+02  0.7816164E-02  0.1300439E+00
        -11   -1    0    0    0    0  0.00000000000E+00  0.00000000000E+00  0.45593999997E+02  0.45594000000E+02  0.51100000000E-03 0.  1.
         11   -1    0    0    0    0 -0.00000000000E+00 -0.00000000000E+00 -0.45593999997E+02  0.45594000000E+02  0.51100000000E-03 0. -1.
    9900012    2    1    2    0    0 -0.11382624524E+02  0.32195599750E+01 -0.38900336066E+02  0.50528857688E+02  0.29999993429E+02 0.  0.
        -12    1    1    2    0    0  0.11382624524E+02 -0.32195599750E+01  0.38900336066E+02  0.40659142312E+02  0.00000000000E+00 0.  1.
         11    1    3    3    0    0  0.49559706820E+01  0.65684199619E+01 -0.76911902242E+01  0.11263223052E+02  0.51100000000E-03 0. -1.
        -11    1    3    3    0    0 -0.12287402760E+02  0.58581175716E+01 -0.15692619044E+02  0.20773928391E+02  0.51100000000E-03 0.  1.
        -12    1    3    3    0    0 -0.40511924455E+01 -0.92069775584E+01 -0.15516526797E+02  0.18491706245E+02  0.00000000000E+00 0.  1.
</event>
<event>
 7    1  0.5041278E-013  0.5052886E+02  0.7816164E-02  0.1300439E+00
        -11   -1    0    0    0    0  0.00000000000E+00  0.00000000000E+00  0.45593999997E+02  0.45594000000E+02  0.51100000000E-03 0. -1.
         11   -1    0    0    0    0 -0.00000000000E+00 -0.00000000000E+00 -0.45593999997E+02  0.45594000000E+02  0.51100000000E-03 0.  1.
    9900012    2    1    2    0    0  0.39050535727E+02 -0.62796142693E+01 -0.94227441241E+01  0.50528855853E+02  0.29999987852E+02 0.  0.
        -12    1    1    2    0    0 -0.39050535727E+02  0.62796142693E+01  0.94227441241E+01  0.40659144147E+02  0.00000000000E+00 0.  1.
         11    1    3    3    0    0 -0.23911873802E+01 -0.19938220644E+01 -0.15540435257E+00  0.31172510784E+01  0.51100000000E-03 0. -1.
        -11    1    3    3    0    0  0.67492725605E+00 -0.33247309312E+01  0.33081159331E+01  0.47384590168E+01  0.51100000000E-03 0.  1.
         12    1    3    3    0    0  0.40766795851E+02 -0.96106127371E+00 -0.12575455705E+02  0.42673145758E+02  0.00000000000E+00 0. -1.
</event>
<event>
 7    1  0.5041278E-013  0.5052882E+02  0.7816164E-02  0.1300439E+00
        -11   -1    0    0    0    0  0.00000000000E+00  0.00000000000E+00  0.45593999997E+02  0.45594000000E+02  0.51100000000E-03 0. -1.
         11   -1    0    0    0    0 -0.00000000000E+00 -0.00000000000E+00 -0.45593999997E+02  0.45594000000E+02  0.51100000000E-03 0.  1.
    9900012    2    1    2    0    0 -0.24991046731E+02 -0.13645328793E+02  0.29024501475E+02  0.50528817760E+02  0.29999872062E+02 0.  0.
        -12    1    1    2    0    0  0.24991046731E+02  0.13645328793E+02 -0.29024501475E+02  0.40659182240E+02  0.00000000000E+00 0.  1.
         11    1    3    3    0    0 -0.14923544033E+02 -0.52467984574E+01  0.18301076634E+02  0.24190296956E+02  0.51100000000E-03 0. -1.
        -11    1    3    3    0    0 -0.96368917837E+01  0.37071639776E+01  0.97250072367E+01  0.14184093698E+02  0.51100000000E-03 0.  1.
         12    1    3    3    0    0 -0.43061091425E+00 -0.12105694313E+02  0.99841760376E+00  0.12154427106E+02  0.00000000000E+00 0. -1.
</event>
<event>
 7    1  0.5041278E-013  0.5052886E+02  0.7816164E-02  0.1300439E+00
        -11   -1    0    0    0    0  0.00000000000E+00  0.00000000000E+00  0.45593999997E+02  0.45594000000E+02  0.51100000000E-03 0.  1.
         11   -1    0    0    0    0 -0.00000000000E+00 -0.00000000000E+00 -0.45593999997E+02  0.45594000000E+02  0.51100000000E-03 0. -1.
    9900012    2    1    2    0    0 -0.20314499330E+02  0.14899662881E+02 -0.31913743999E+02  0.50528857203E+02  0.29999991953E+02 0.  0.
        -12    1    1    2    0    0  0.20314499330E+02 -0.14899662881E+02  0.31913743999E+02  0.40659142797E+02  0.00000000000E+00 0.  1.
         11    1    3    3    0    0  0.41835394885E+01  0.52535135292E+01 -0.46120242769E+01  0.81469120067E+01  0.51100000000E-03 0. -1.
        -11    1    3    3    0    0 -0.14522827149E+02  0.14743735172E+02 -0.13972012347E+02  0.24970129445E+02  0.51100000000E-03 0.  1.
         12    1    3    3    0    0 -0.99752116694E+01 -0.50975858199E+01 -0.13329707375E+02  0.17411815751E+02  0.00000000000E+00 0. -1.
</event>
<event>
 7    1  0.5041278E-013  0.5052885E+02  0.7816164E-02  0.1300439E+00
        -11   -1    0    0    0    0  0.00000000000E+00  0.00000000000E+00  0.45593999997E+02  0.45594000000E+02  0.51100000000E-03 0.  1.
         11   -1    0    0    0    0 -0.00000000000E+00 -0.00000000000E+00 -0.45593999997E+02  0.45594000000E+02  0.51100000000E-03 0. -1.
    9900012    2    1    2    0    0 -0.29466488629E+02 -0.23170098709E+02 -0.15749257205E+02  0.50528849385E+02  0.29999968190E+02 0.  0.
        -12    1    1    2    0    0  0.29466488629E+02  0.23170098709E+02  0.15749257205E+02  0.40659150615E+02  0.00000000000E+00 0.  1.
         11    1    3    3    0    0 -0.10760515700E+02  0.12697666763E+01 -0.87299375242E+01  0.13914482203E+02  0.51100000000E-03 0. -1.
        -11    1    3    3    0    0 -0.21585267654E+02 -0.23986577540E+02 -0.41680750297E+01  0.32536941028E+02  0.51100000000E-03 0.  1.
         12    1    3    3    0    0  0.28792947245E+01 -0.45328784480E+00 -0.28512446507E+01  0.40774261537E+01  0.00000000000E+00 0. -1.
</event>
<event>
 7    1  0.5041278E-013  0.5052882E+02  0.7816164E-02  0.1300439E+00
        -11   -1    0    0    0    0  0.00000000000E+00  0.00000000000E+00  0.45593999997E+02  0.45594000000E+02  0.51100000000E-03 0.  1.
         11   -1    0    0    0    0 -0.00000000000E+00 -0.00000000000E+00 -0.45593999997E+02  0.45594000000E+02  0.51100000000E-03 0. -1.
    9900012    2    1    2    0    0  0.11358004324E+02  0.43128370561E+01 -0.38801597375E+02  0.50528821644E+02  0.29999883870E+02 0.  0.
        -12    1    1    2    0    0 -0.11358004324E+02 -0.43128370561E+01  0.38801597375E+02  0.40659178356E+02  0.00000000000E+00 0.  1.
         11    1    3    3    0    0  0.27756937910E+01  0.83909322463E+01 -0.19472183972E+02  0.21384063433E+02  0.51100000000E-03 0. -1.
        -11    1    3    3    0    0 -0.58211649914E+01  0.47280124981E+00 -0.20403462638E+01  0.61864784827E+01  0.51100000000E-03 0.  1.
        -12    1    3    3    0    0  0.14403475524E+02 -0.45508964400E+01 -0.17289067139E+02  0.22958279729E+02  0.00000000000E+00 0.  1.
</event>
<event>
 7    1  0.7700189E-013  0.5052886E+02  0.7816164E-02  0.1300439E+00
        -11   -1    0    0    0    0  0.00000000000E+00  0.00000000000E+00  0.45593999997E+02  0.45594000000E+02  0.51100000000E-03 0. -1.
         11   -1    0    0    0    0 -0.00000000000E+00 -0.00000000000E+00 -0.45593999997E+02  0.45594000000E+02  0.51100000000E-03 0.  1.
    9900012    2    1    2    0    0 -0.82527800122E+01  0.37393381087E+02  0.13667202870E+02  0.50528858822E+02  0.29999996876E+02 0.  0.
        -12    1    1    2    0    0  0.82527800122E+01 -0.37393381087E+02 -0.13667202870E+02  0.40659141178E+02  0.00000000000E+00 0.  1.
         11    1    3    3    0    0 -0.78288604355E+01  0.31517503658E+02  0.25016140819E+01  0.32571493147E+02  0.51100000000E-03 0.  1.
        -11    1    3    3    0    0 -0.30072993879E+01  0.76619067867E+01  0.12141571451E+02  0.14668552170E+02  0.51100000000E-03 0. -1.
        -12    1    3    3    0    0  0.25833798112E+01 -0.17860293576E+01 -0.97598266282E+00  0.32888135054E+01  0.00000000000E+00 0.  1.
</event>
<event>
 7    1  0.5041278E-013  0.5052887E+02  0.7816164E-02  0.1300439E+00
        -11   -1    0    0    0    0  0.00000000000E+00  0.00000000000E+00  0.45593999997E+02  0.45594000000E+02  0.51100000000E-03 0.  1.
         11   -1    0    0    0    0 -0.00000000000E+00 -0.00000000000E+00 -0.45593999997E+02  0.45594000000E+02  0.51100000000E-03 0. -1.
    9900012    2    1    2    0    0  0.16085791094E+02  0.24682812412E+01 -0.37260168546E+02  0.50528865141E+02  0.30000016084E+02 0.  0.
        -12    1    1    2    0    0 -0.16085791094E+02 -0.24682812412E+01  0.37260168546E+02  0.40659134859E+02  0.00000000000E+00 0.  1.
         11    1    3    3    0    0  0.16739021292E+02 -0.79866062820E+01 -0.21346855230E+02  0.28278418311E+02  0.51100000000E-03 0.  1.
        -11    1    3    3    0    0  0.28711863421E+01  0.17050295759E+01  0.44341817295E+00  0.33685986408E+01  0.51100000000E-03 0. -1.
         12    1    3    3    0    0 -0.35244165406E+01  0.87498579473E+01 -0.16356731489E+02  0.18881848189E+02  0.00000000000E+00 0. -1.
</event>
<event>
 7    1  0.5041278E-013  0.5052886E+02  0.7816164E-02  0.1300439E+00
        -11   -1    0    0    0    0  0.00000000000E+00  0.00000000000E+00  0.45593999997E+02  0.45594000000E+02  0.51100000000E-03 0.  1.
         11   -1    0    0    0    0 -0.00000000000E+00 -0.00000000000E+00 -0.45593999997E+02  0.45594000000E+02  0.51100000000E-03 0. -1.
    9900012    2    1    2    0    0  0.13859603338E+01  0.17938316817E+02 -0.36461778088E+02  0.50528863786E+02  0.30000011965E+02 0.  0.
        -12    1    1    2    0    0 -0.13859603338E+01 -0.17938316817E+02  0.36461778088E+02  0.40659136214E+02  0.00000000000E+00 0.  1.
         11    1    3    3    0    0  0.14947397130E+02  0.10007446006E+02 -0.17090427004E+02  0.24812423339E+02  0.51100000000E-03 0. -1.
        -11    1    3    3    0    0 -0.16443761313E+01 -0.97894061167E+00 -0.13288177120E+01  0.23298185241E+01  0.51100000000E-03 0.  1.
         12    1    3    3    0    0 -0.11917060665E+02  0.89098114220E+01 -0.18042533373E+02  0.23386621923E+02  0.00000000000E+00 0. -1.
</event>
<event>
 7    1  0.5041278E-013  0.5052886E+02  0.7816164E-02  0.1300439E+00
        -11   -1    0    0    0    0  0.00000000000E+00  0.00000000000E+00  0.45593999997E+02  0.45594000000E+02  0.51100000000E-03 0. -1.
         11   -1    0    0    0    0 -0.00000000000E+00 -0.00000000000E+00 -0.45593999997E+02  0.45594000000E+02  0.51100000000E-03 0.  1.
    9900012    2    1    2    0    0 -0.83648092959E+01 -0.33708292724E+02  0.21141116146E+02  0.50528858041E+02  0.29999994502E+02 0.  0.
        -12    1    1    2    0    0  0.83648092959E+01  0.33708292724E+02 -0.21141116146E+02  0.40659141959E+02  0.00000000000E+00 0.  1.
         11    1    3    3    0    0 -0.15597290253E+01 -0.23096402742E+02  0.81798808869E+00  0.23163455679E+02  0.51100000000E-03 0. -1.
        -11    1    3    3    0    0  0.39143516896E+01 -0.36408307905E+01  0.42681468678E+01  0.68406780323E+01  0.51100000000E-03 0.  1.
         12    1    3    3    0    0 -0.10719431960E+02 -0.69710591916E+01  0.16054981190E+02  0.20524724330E+02  0.00000000000E+00 0. -1.
</event>
<event>
 7    1  0.5041278E-013  0.5052887E+02  0.7816164E-02  0.1300439E+00
        -11   -1    0    0    0    0  0.00000000000E+00  0.00000000000E+00  0.45593999997E+02  0.45594000000E+02  0.51100000000E-03 0. -1.
         11   -1    0    0    0    0 -0.00000000000E+00 -0.00000000000E+00 -0.45593999997E+02  0.45594000000E+02  0.51100000000E-03 0.  1.
    9900012    2    1    2    0    0 -0.35325714729E+02 -0.16080589345E+02 -0.12110862872E+02  0.50528874649E+02  0.30000044983E+02 0.  0.
        -12    1    1    2    0    0  0.35325714729E+02  0.16080589345E+02  0.12110862872E+02  0.40659125351E+02  0.00000000000E+00 0.  1.
         11    1    3    3    0    0 -0.50572292309E+01 -0.18280646640E+01 -0.10339802381E+02  0.11654565692E+02  0.51100000000E-03 0.  1.
        -11    1    3    3    0    0 -0.11947686392E+02  0.40960711681E+01 -0.27516652709E+01  0.12926587762E+02  0.51100000000E-03 0. -1.
        -12    1    3    3    0    0 -0.18320799106E+02 -0.18348595849E+02  0.98060478020E+00  0.25947721196E+02  0.00000000000E+00 0.  1.
</event>
<event>
 7    1  0.5041278E-013  0.5052887E+02  0.7816164E-02  0.1300439E+00
        -11   -1    0    0    0    0  0.00000000000E+00  0.00000000000E+00  0.45593999997E+02  0.45594000000E+02  0.51100000000E-03 0. -1.
         11   -1    0    0    0    0 -0.00000000000E+00 -0.00000000000E+00 -0.45593999997E+02  0.45594000000E+02  0.51100000000E-03 0.  1.
    9900012    2    1    2    0    0  0.27957438794E+02  0.15458296760E+02  0.25151293057E+02  0.50528869844E+02  0.30000030377E+02 0.  0.
        -12    1    1    2    0    0 -0.27957438794E+02 -0.15458296760E+02 -0.25151293057E+02  0.40659130156E+02  0.00000000000E+00 0.  1.
         11    1    3    3    0    0  0.17207193902E+02  0.18101349102E+02  0.19903417155E+02  0.31935753882E+02  0.51100000000E-03 0. -1.
        -11    1    3    3    0    0 -0.18251048143E+01  0.28497354511E+01  0.33111200419E+01  0.47345027106E+01  0.51100000000E-03 0.  1.
        -12    1    3    3    0    0  0.12575349706E+02 -0.54927877937E+01  0.19367558595E+01  0.13858613251E+02  0.00000000000E+00 0.  1.
</event>
<event>
 7    1  0.5041278E-013  0.5052886E+02  0.7816164E-02  0.1300439E+00
        -11   -1    0    0    0    0  0.00000000000E+00  0.00000000000E+00  0.45593999997E+02  0.45594000000E+02  0.51100000000E-03 0. -1.
         11   -1    0    0    0    0 -0.00000000000E+00 -0.00000000000E+00 -0.45593999997E+02  0.45594000000E+02  0.51100000000E-03 0.  1.
    9900012    2    1    2    0    0 -0.23695880533E+02 -0.40871775096E+01  0.32786669646E+02  0.50528862273E+02  0.30000007365E+02 0.  0.
        -12    1    1    2    0    0  0.23695880533E+02  0.40871775096E+01 -0.32786669646E+02  0.40659137727E+02  0.00000000000E+00 0.  1.
         11    1    3    3    0    0 -0.94040828904E+01 -0.23554566284E+01  0.26694364445E+02  0.28400247258E+02  0.51100000000E-03 0. -1.
        -11    1    3    3    0    0 -0.82624330195E+01 -0.35831537240E+01  0.10942616669E+02  0.14172072884E+02  0.51100000000E-03 0.  1.
        -12    1    3    3    0    0 -0.60293646232E+01  0.18514328429E+01 -0.48503114685E+01  0.79565421304E+01  0.00000000000E+00 0.  1.
</event>
<event>
 7    1  0.5041278E-013  0.5052887E+02  0.7816164E-02  0.1300439E+00
        -11   -1    0    0    0    0  0.00000000000E+00  0.00000000000E+00  0.45593999997E+02  0.45594000000E+02  0.51100000000E-03 0.  1.
         11   -1    0    0    0    0 -0.00000000000E+00 -0.00000000000E+00 -0.45593999997E+02  0.45594000000E+02  0.51100000000E-03 0. -1.
    9900012    2    1    2    0    0  0.11218939922E+02 -0.11843522085E+02 -0.37242870761E+02  0.50528867559E+02  0.30000023433E+02 0.  0.
        -12    1    1    2    0    0 -0.11218939922E+02  0.11843522085E+02  0.37242870761E+02  0.40659132441E+02  0.00000000000E+00 0.  1.
         11    1    3    3    0    0 -0.28359504132E+01  0.33471820092E+01 -0.28963445765E+00  0.43966044317E+01  0.51100000000E-03 0.  1.
        -11    1    3    3    0    0  0.16048904666E+02 -0.10826208169E+02 -0.17501584688E+02  0.26097501627E+02  0.51100000000E-03 0. -1.
         12    1    3    3    0    0 -0.19940143315E+01 -0.43644959260E+01 -0.19451651615E+02  0.20034761501E+02  0.00000000000E+00 0. -1.
</event>
<event>
 7    1  0.5041278E-013  0.5052885E+02  0.7816164E-02  0.1300439E+00
        -11   -1    0    0    0    0  0.00000000000E+00  0.00000000000E+00  0.45593999997E+02  0.45594000000E+02  0.51100000000E-03 0.  1.
         11   -1    0    0    0    0 -0.00000000000E+00 -0.00000000000E+00 -0.45593999997E+02  0.45594000000E+02  0.51100000000E-03 0. -1.
    9900012    2    1    2    0    0 -0.12481740777E+02  0.37309002934E+02 -0.10266985425E+02  0.50528849216E+02  0.29999967677E+02 0.  0.
        -12    1    1    2    0    0  0.12481740777E+02 -0.37309002934E+02  0.10266985425E+02  0.40659150784E+02  0.00000000000E+00 0.  1.
         11    1    3    3    0    0 -0.11551057223E+02  0.17675115190E+02 -0.84598781127E+01  0.22746563650E+02  0.51100000000E-03 0. -1.
        -11    1    3    3    0    0 -0.85473884551E+01  0.45613986987E+01  0.31406973581E+01  0.10184703611E+02  0.51100000000E-03 0.  1.
         12    1    3    3    0    0  0.76167049017E+01  0.15072489046E+02 -0.49478046702E+01  0.17597581955E+02  0.00000000000E+00 0. -1.
</event>
<event>
 7    1  0.5041278E-013  0.5052885E+02  0.7816164E-02  0.1300439E+00
        -11   -1    0    0    0    0  0.00000000000E+00  0.00000000000E+00  0.45593999997E+02  0.45594000000E+02  0.51100000000E-03 0.  1.
         11   -1    0    0    0    0 -0.00000000000E+00 -0.00000000000E+00 -0.45593999997E+02  0.45594000000E+02  0.51100000000E-03 0. -1.
    9900012    2    1    2    0    0 -0.28505610031E+02 -0.15153393368E+02 -0.24717831513E+02  0.50528851847E+02  0.29999975673E+02 0.  0.
        -12    1    1    2    0    0  0.28505610031E+02  0.15153393368E+02  0.24717831513E+02  0.40659148153E+02  0.00000000000E+00 0.  1.
         11    1    3    3    0    0 -0.29389173853E+01 -0.11410537041E+02 -0.16963795065E+02  0.20654489445E+02  0.51100000000E-03 0. -1.
        -11    1    3    3    0    0 -0.42502070010E+01  0.24578120386E+01  0.23970454747E+01  0.54636001718E+01  0.51100000000E-03 0.  1.
        -12    1    3    3    0    0 -0.21316485645E+02 -0.62006683656E+01 -0.10151081923E+02  0.24410762230E+02  0.00000000000E+00 0.  1.
</event>
<event>
 7    1  0.5041278E-013  0.5052886E+02  0.7816164E-02  0.1300439E+00
        -11   -1    0    0    0    0  0.00000000000E+00  0.00000000000E+00  0.45593999997E+02  0.45594000000E+02  0.51100000000E-03 0.  1.
         11   -1    0    0    0    0 -0.00000000000E+00 -0.00000000000E+00 -0.45593999997E+02  0.45594000000E+02  0.51100000000E-03 0. -1.
    9900012    2    1    2    0    0  0.11940364336E+02  0.11745230659E+02 -0.37049192827E+02  0.50528862861E+02  0.30000009153E+02 0.  0.
        -12    1    1    2    0    0 -0.11940364336E+02 -0.11745230659E+02  0.37049192827E+02  0.40659137139E+02  0.00000000000E+00 0.  1.
         11    1    3    3    0    0  0.18653132346E+02  0.56287941499E+01 -0.27476864659E+02  0.33683835317E+02  0.51100000000E-03 0. -1.
        -11    1    3    3    0    0 -0.66331782795E+00  0.75844592034E+01 -0.57420729990E+01  0.95360062152E+01  0.51100000000E-03 0.  1.
        -12    1    3    3    0    0 -0.60494501817E+01 -0.14680226938E+01 -0.38302551694E+01  0.73090213293E+01  0.00000000000E+00 0.  1.
</event>
<event>
 7    1  0.5041278E-013  0.5052885E+02  0.7816164E-02  0.1300439E+00
        -11   -1    0    0    0    0  0.00000000000E+00  0.00000000000E+00  0.45593999997E+02  0.45594000000E+02  0.51100000000E-03 0.  1.
         11   -1    0    0    0    0 -0.00000000000E+00 -0.00000000000E+00 -0.45593999997E+02  0.45594000000E+02  0.51100000000E-03 0. -1.
    9900012    2    1    2    0    0  0.94108727852E+01  0.91000088851E+01 -0.38494044650E+02  0.50528853897E+02  0.29999981907E+02 0.  0.
        -12    1    1    2    0    0 -0.94108727852E+01 -0.91000088851E+01  0.38494044650E+02  0.40659146103E+02  0.00000000000E+00 0.  1.
         11    1    3    3    0    0  0.21628380998E+01 -0.50072089100E+01 -0.13339186144E+01  0.56151000743E+01  0.51100000000E-03 0. -1.
        -11    1    3    3    0    0  0.59712775833E+01  0.18250195826E+02 -0.22270286137E+02  0.29405636340E+02  0.51100000000E-03 0.  1.
         12    1    3    3    0    0  0.12767571022E+01 -0.41429780314E+01 -0.14889839898E+02  0.15508117483E+02  0.00000000000E+00 0. -1.
</event>
<event>
 7    1  0.5041278E-013  0.5052885E+02  0.7816164E-02  0.1300439E+00
        -11   -1    0    0    0    0  0.00000000000E+00  0.00000000000E+00  0.45593999997E+02  0.45594000000E+02  0.51100000000E-03 0. -1.
         11   -1    0    0    0    0 -0.00000000000E+00 -0.00000000000E+00 -0.45593999997E+02  0.45594000000E+02  0.51100000000E-03 0.  1.
    9900012    2    1    2    0    0  0.13178273739E+02  0.37104932367E+02  0.10135246340E+02  0.50528854373E+02  0.29999983353E+02 0.  0.
        -12    1    1    2    0    0 -0.13178273739E+02 -0.37104932367E+02 -0.10135246340E+02  0.40659145627E+02  0.00000000000E+00 0.  1.
         11    1    3    3    0    0  0.16761495842E+02  0.17336604779E+02  0.53914646211E+01  0.24709785493E+02  0.51100000000E-03 0.  1.
        -11    1    3    3    0    0  0.25219784187E+01  0.29369985286E+01  0.67717584660E+01  0.78001954132E+01  0.51100000000E-03 0. -1.
        -12    1    3    3    0    0 -0.61052005209E+01  0.16831329060E+02 -0.20279767475E+01  0.18018873467E+02  0.00000000000E+00 0.  1.
</event>
<event>
 7    1  0.5041278E-013  0.5052886E+02  0.7816164E-02  0.1300439E+00
        -11   -1    0    0    0    0  0.00000000000E+00  0.00000000000E+00  0.45593999997E+02  0.45594000000E+02  0.51100000000E-03 0. -1.
         11   -1    0    0    0    0 -0.00000000000E+00 -0.00000000000E+00 -0.45593999997E+02  0.45594000000E+02  0.51100000000E-03 0.  1.
    9900012    2    1    2    0    0  0.37629474346E+02  0.14777437265E+02 -0.43376998080E+01  0.50528860421E+02  0.30000001736E+02 0.  0.
        -12    1    1    2    0    0 -0.37629474346E+02 -0.14777437265E+02  0.43376998080E+01  0.40659139579E+02  0.00000000000E+00 0.  1.
         11    1    3    3    0    0  0.20348261023E+02 -0.18638491361E+01 -0.36046141671E+01  0.20748949462E+02  0.51100000000E-03 0. -1.
        -11    1    3    3    0    0  0.12665467676E+02  0.48949972034E+00 -0.23961120003E+01  0.12899419925E+02  0.51100000000E-03 0.  1.
         12    1    3    3    0    0  0.46157456473E+01  0.16151786681E+02  0.16630263594E+01  0.16880491034E+02  0.00000000000E+00 0. -1.
</event>
<event>
 7    1  0.5041278E-013  0.5052886E+02  0.7816164E-02  0.1300439E+00
        -11   -1    0    0    0    0  0.00000000000E+00  0.00000000000E+00  0.45593999997E+02  0.45594000000E+02  0.51100000000E-03 0.  1.
         11   -1    0    0    0    0 -0.00000000000E+00 -0.00000000000E+00 -0.45593999997E+02  0.45594000000E+02  0.51100000000E-03 0. -1.
    9900012    2    1    2    0    0 -0.39909435245E+01 -0.47918254198E+01 -0.40178062035E+02  0.50528857240E+02  0.29999992067E+02 0.  0.
        -12    1    1    2    0    0  0.39909435245E+01  0.47918254198E+01  0.40178062035E+02  0.40659142760E+02  0.00000000000E+00 0.  1.
         11    1    3    3    0    0 -0.75544984054E+01 -0.14276658501E+02 -0.26907703254E+02  0.31383401963E+02  0.51100000000E-03 0. -1.
        -11    1    3    3    0    0  0.42199055559E+01  0.39218634696E+00 -0.21077831519E+01  0.47333036146E+01  0.51100000000E-03 0.  1.
        -12    1    3    3    0    0 -0.65635067494E+00  0.90926467347E+01 -0.11162575629E+02  0.14412151662E+02  0.00000000000E+00 0.  1.
</event>
<event>
 7    1  0.5041278E-013  0.5052884E+02  0.7816164E-02  0.1300439E+00
        -11   -1    0    0    0    0  0.00000000000E+00  0.00000000000E+00  0.45593999997E+02  0.45594000000E+02  0.51100000000E-03 0. -1.
         11   -1    0    0    0    0 -0.00000000000E+00 -0.00000000000E+00 -0.45593999997E+02  0.45594000000E+02  0.51100000000E-03 0.  1.
    9900012    2    1    2    0    0  0.31419420651E+02  0.10516729186E+02  0.23566630485E+02  0.50528835483E+02  0.29999925933E+02 0.  0.
        -12    1    1    2    0    0 -0.31419420651E+02 -0.10516729186E+02 -0.23566630485E+02  0.40659164517E+02  0.00000000000E+00 0.  1.
         11    1    3    3    0    0  0.93568254710E+01  0.84464604821E+01  0.80004657362E+01  0.14929846946E+02  0.51100000000E-03 0. -1.
        -11    1    3    3    0    0  0.16279951286E+02 -0.89908305786E+01  0.13420862541E+02  0.22934502392E+02  0.51100000000E-03 0.  1.
         12    1    3    3    0    0  0.57826438938E+01  0.11061099283E+02  0.21453022081E+01  0.12664486145E+02  0.00000000000E+00 0. -1.
</event>
<event>
 7    1  0.5041278E-013  0.5052884E+02  0.7816164E-02  0.1300439E+00
        -11   -1    0    0    0    0  0.00000000000E+00  0.00000000000E+00  0.45593999997E+02  0.45594000000E+02  0.51100000000E-03 0.  1.
         11   -1    0    0    0    0 -0.00000000000E+00 -0.00000000000E+00 -0.45593999997E+02  0.45594000000E+02  0.51100000000E-03 0. -1.
    9900012    2    1    2    0    0  0.83869730838E+01 -0.28841649663E+02 -0.27404104397E+02  0.50528843459E+02  0.29999950178E+02 0.  0.
        -12    1    1    2    0    0 -0.83869730838E+01  0.28841649663E+02  0.27404104397E+02  0.40659156541E+02  0.00000000000E+00 0.  1.
         11    1    3    3    0    0 -0.23410532932E+01 -0.24392590768E+02 -0.99174699951E+01  0.26435491791E+02  0.51100000000E-03 0. -1.
        -11    1    3    3    0    0 -0.24961155242E+01  0.13766477739E-01 -0.37924741137E+01  0.45402249273E+01  0.51100000000E-03 0.  1.
        -12    1    3    3    0    0  0.13224141901E+02 -0.44628253734E+01 -0.13694160288E+02  0.19553126741E+02  0.00000000000E+00 0.  1.
</event>
<event>
 7    1  0.5041278E-013  0.5052886E+02  0.7816164E-02  0.1300439E+00
        -11   -1    0    0    0    0  0.00000000000E+00  0.00000000000E+00  0.45593999997E+02  0.45594000000E+02  0.51100000000E-03 0.  1.
         11   -1    0    0    0    0 -0.00000000000E+00 -0.00000000000E+00 -0.45593999997E+02  0.45594000000E+02  0.51100000000E-03 0. -1.
    9900012    2    1    2    0    0 -0.18785851689E+02 -0.10701040156E+02 -0.34434645114E+02  0.50528864886E+02  0.30000015308E+02 0.  0.
        -12    1    1    2    0    0  0.18785851689E+02  0.10701040156E+02  0.34434645114E+02  0.40659135114E+02  0.00000000000E+00 0.  1.
         11    1    3    3    0    0 -0.54381443070E+01 -0.12709432230E+02 -0.58505860410E+01  0.15011077190E+02  0.51100000000E-03 0. -1.
        -11    1    3    3    0    0 -0.14423021565E+02 -0.26112256480E+00 -0.12055854129E+02  0.18799876465E+02  0.51100000000E-03 0.  1.
        -12    1    3    3    0    0  0.10753141834E+01  0.22695146385E+01 -0.16528204944E+02  0.16717911231E+02  0.00000000000E+00 0.  1.
</event>
<event>
 7    1  0.5041278E-013  0.5052886E+02  0.7816164E-02  0.1300439E+00
        -11   -1    0    0    0    0  0.00000000000E+00  0.00000000000E+00  0.45593999997E+02  0.45594000000E+02  0.51100000000E-03 0.  1.
         11   -1    0    0    0    0 -0.00000000000E+00 -0.00000000000E+00 -0.45593999997E+02  0.45594000000E+02  0.51100000000E-03 0. -1.
    9900012    2    1    2    0    0 -0.38718102847E+02 -0.86519274078E+01 -0.89004780253E+01  0.50528857793E+02  0.29999993748E+02 0.  0.
        -12    1    1    2    0    0  0.38718102847E+02  0.86519274078E+01  0.89004780253E+01  0.40659142207E+02  0.00000000000E+00 0.  1.
         11    1    3    3    0    0 -0.32388446287E+00 -0.47862240130E+00 -0.52512003990E+01  0.52829051137E+01  0.51100000000E-03 0. -1.
        -11    1    3    3    0    0 -0.10371530978E+02  0.16485605834E+01  0.81502551971E+01  0.13293346714E+02  0.51100000000E-03 0.  1.
         12    1    3    3    0    0 -0.28022687406E+02 -0.98218655899E+01 -0.11799532823E+02  0.31952605965E+02  0.00000000000E+00 0. -1.
</event>
<event>
 7    1  0.5041278E-013  0.5052893E+02  0.7816164E-02  0.1300439E+00
        -11   -1    0    0    0    0  0.00000000000E+00  0.00000000000E+00  0.45593999997E+02  0.45594000000E+02  0.51100000000E-03 0. -1.
         11   -1    0    0    0    0 -0.00000000000E+00 -0.00000000000E+00 -0.45593999997E+02  0.45594000000E+02  0.51100000000E-03 0.  1.
    9900012    2    1    2    0    0  0.37595313099E+02  0.98360314772E+01 -0.11958466467E+02  0.50528929641E+02  0.30000212136E+02 0.  0.
        -12    1    1    2    0    0 -0.37595313099E+02 -0.98360314772E+01  0.11958466467E+02  0.40659070359E+02  0.00000000000E+00 0.  1.
         11    1    3    3    0    0  0.22962766878E+01 -0.56330270719E+01  0.40283915566E+01  0.72960139401E+01  0.51100000000E-03 0.  1.
        -11    1    3    3    0    0  0.91518010160E+01 -0.87874799596E+00 -0.21960943091E+01  0.94525388310E+01  0.51100000000E-03 0. -1.
        -12    1    3    3    0    0  0.26147235395E+02  0.16347806545E+02 -0.13790763715E+02  0.33780376870E+02  0.00000000000E+00 0.  1.
</event>
<event>
 7    1  0.5041278E-013  0.5052886E+02  0.7816164E-02  0.1300439E+00
        -11   -1    0    0    0    0  0.00000000000E+00  0.00000000000E+00  0.45593999997E+02  0.45594000000E+02  0.51100000000E-03 0. -1.
         11   -1    0    0    0    0 -0.00000000000E+00 -0.00000000000E+00 -0.45593999997E+02  0.45594000000E+02  0.51100000000E-03 0.  1.
    9900012    2    1    2    0    0 -0.85612417107E+01 -0.13742622604E+02  0.37296260080E+02  0.50528861401E+02  0.30000004715E+02 0.  0.
        -12    1    1    2    0    0  0.85612417107E+01  0.13742622604E+02 -0.37296260080E+02  0.40659138599E+02  0.00000000000E+00 0.  1.
         11    1    3    3    0    0  0.34105624856E+01 -0.13289695044E+01  0.16367808354E+02  0.16772097275E+02  0.51100000000E-03 0. -1.
        -11    1    3    3    0    0  0.45979029124E+01 -0.56479188348E+01  0.16820455459E+01  0.74745552266E+01  0.51100000000E-03 0.  1.
         12    1    3    3    0    0 -0.16569707109E+02 -0.67657342644E+01  0.19246406180E+02  0.26282208900E+02  0.00000000000E+00 0. -1.
</event>
<event>
 7    1  0.5041278E-013  0.5052886E+02  0.7816164E-02  0.1300439E+00
        -11   -1    0    0    0    0  0.00000000000E+00  0.00000000000E+00  0.45593999997E+02  0.45594000000E+02  0.51100000000E-03 0. -1.
         11   -1    0    0    0    0 -0.00000000000E+00 -0.00000000000E+00 -0.45593999997E+02  0.45594000000E+02  0.51100000000E-03 0.  1.
    9900012    2    1    2    0    0 -0.16082257402E+02 -0.37273137004E+02  0.22890567932E+01  0.50528861713E+02  0.30000005663E+02 0.  0.
        -12    1    1    2    0    0  0.16082257402E+02  0.37273137004E+02 -0.22890567932E+01  0.40659138287E+02  0.00000000000E+00 0.  1.
         11    1    3    3    0    0 -0.53942408404E+01 -0.16203668199E+02  0.21956115422E+00  0.17079370735E+02  0.51100000000E-03 0. -1.
        -11    1    3    3    0    0 -0.15864581698E+02 -0.54286179148E+01 -0.49985381489E+00  0.16775121431E+02  0.51100000000E-03 0.  1.
         12    1    3    3    0    0  0.51765651370E+01 -0.15640850890E+02  0.25693494539E+01  0.16674369547E+02  0.00000000000E+00 0. -1.
</event>
<event>
 7    1  0.5041278E-013  0.5052886E+02  0.7816164E-02  0.1300439E+00
        -11   -1    0    0    0    0  0.00000000000E+00  0.00000000000E+00  0.45593999997E+02  0.45594000000E+02  0.51100000000E-03 0. -1.
         11   -1    0    0    0    0 -0.00000000000E+00 -0.00000000000E+00 -0.45593999997E+02  0.45594000000E+02  0.51100000000E-03 0.  1.
    9900012    2    1    2    0    0  0.25713433484E+02  0.19116830681E+01  0.31437722607E+02  0.50528860850E+02  0.30000003039E+02 0.  0.
        -12    1    1    2    0    0 -0.25713433484E+02 -0.19116830681E+01 -0.31437722607E+02  0.40659139150E+02  0.00000000000E+00 0.  1.
         11    1    3    3    0    0  0.18818662301E+01 -0.60296443946E+00 -0.14541368410E+01  0.24534671053E+01  0.51100000000E-03 0.  1.
        -11    1    3    3    0    0  0.37311041624E+01  0.83142212536E+01  0.22427634831E-01  0.91130629640E+01  0.51100000000E-03 0. -1.
        -12    1    3    3    0    0  0.20100463092E+02 -0.57995737460E+01  0.32869431813E+02  0.38962330781E+02  0.00000000000E+00 0.  1.
</event>
<event>
 7    1  0.5041278E-013  0.5052885E+02  0.7816164E-02  0.1300439E+00
        -11   -1    0    0    0    0  0.00000000000E+00  0.00000000000E+00  0.45593999997E+02  0.45594000000E+02  0.51100000000E-03 0. -1.
         11   -1    0    0    0    0 -0.00000000000E+00 -0.00000000000E+00 -0.45593999997E+02  0.45594000000E+02  0.51100000000E-03 0.  1.
    9900012    2    1    2    0    0  0.36338901726E+02 -0.47674321124E+01  0.17604611478E+02  0.50528849334E+02  0.29999968036E+02 0.  0.
        -12    1    1    2    0    0 -0.36338901726E+02  0.47674321124E+01 -0.17604611478E+02  0.40659150666E+02  0.00000000000E+00 0.  1.
         11    1    3    3    0    0  0.74657636490E+01 -0.33720136850E-01  0.36602635952E+00  0.74748069853E+01  0.51100000000E-03 0. -1.
        -11    1    3    3    0    0  0.12061189336E+02 -0.54027915030E+01 -0.58767447570E+01  0.14463698470E+02  0.51100000000E-03 0.  1.
         12    1    3    3    0    0  0.16811948741E+02  0.66907952744E+00  0.23115329875E+02  0.28590343879E+02  0.00000000000E+00 0. -1.
</event>
<event>
 7    1  0.5041278E-013  0.5052884E+02  0.7816164E-02  0.1300439E+00
        -11   -1    0    0    0    0  0.00000000000E+00  0.00000000000E+00  0.45593999997E+02  0.45594000000E+02  0.51100000000E-03 0.  1.
         11   -1    0    0    0    0 -0.00000000000E+00 -0.00000000000E+00 -0.45593999997E+02  0.45594000000E+02  0.51100000000E-03 0. -1.
    9900012    2    1    2    0    0  0.15431911548E+02 -0.36215579286E+02 -0.10171302071E+02  0.50528837898E+02  0.29999933273E+02 0.  0.
        -12    1    1    2    0    0 -0.15431911548E+02  0.36215579286E+02  0.10171302071E+02  0.40659162102E+02  0.00000000000E+00 0.  1.
         11    1    3    3    0    0  0.21158449249E+01 -0.10654741002E+02 -0.30541074067E+01  0.11283965521E+02  0.51100000000E-03 0. -1.
        -11    1    3    3    0    0 -0.62164473832E+01 -0.40500365222E+01 -0.69832608055E+01  0.10188863805E+02  0.51100000000E-03 0.  1.
        -12    1    3    3    0    0  0.19532514006E+02 -0.21510801762E+02 -0.13393385905E+00  0.29056008572E+02  0.00000000000E+00 0.  1.
</event>
<event>
 7    1  0.5041278E-013  0.5052886E+02  0.7816164E-02  0.1300439E+00
        -11   -1    0    0    0    0  0.00000000000E+00  0.00000000000E+00  0.45593999997E+02  0.45594000000E+02  0.51100000000E-03 0.  1.
         11   -1    0    0    0    0 -0.00000000000E+00 -0.00000000000E+00 -0.45593999997E+02  0.45594000000E+02  0.51100000000E-03 0. -1.
    9900012    2    1    2    0    0 -0.29211995445E+01 -0.10049899279E+02 -0.39289081702E+02  0.50528858060E+02  0.29999994558E+02 0.  0.
        -12    1    1    2    0    0  0.29211995445E+01  0.10049899279E+02  0.39289081702E+02  0.40659141940E+02  0.00000000000E+00 0.  1.
         11    1    3    3    0    0  0.11775704892E-01 -0.95352916208E+01 -0.17064766103E+02  0.19548098817E+02  0.51100000000E-03 0. -1.
        -11    1    3    3    0    0 -0.81351461749E+01 -0.80302559915E+01 -0.75724893477E+01  0.13711608577E+02  0.51100000000E-03 0.  1.
         12    1    3    3    0    0  0.52021709255E+01  0.75156483330E+01 -0.14651826252E+02  0.17269150666E+02  0.00000000000E+00 0. -1.
</event>
<event>
 7    1  0.5041278E-013  0.5052886E+02  0.7816164E-02  0.1300439E+00
        -11   -1    0    0    0    0  0.00000000000E+00  0.00000000000E+00  0.45593999997E+02  0.45594000000E+02  0.51100000000E-03 0. -1.
         11   -1    0    0    0    0 -0.00000000000E+00 -0.00000000000E+00 -0.45593999997E+02  0.45594000000E+02  0.51100000000E-03 0.  1.
    9900012    2    1    2    0    0 -0.74459665702E+01  0.28344177787E+02  0.28183877412E+02  0.50528858611E+02  0.29999996233E+02 0.  0.
        -12    1    1    2    0    0  0.74459665702E+01 -0.28344177787E+02 -0.28183877412E+02  0.40659141389E+02  0.00000000000E+00 0.  1.
         11    1    3    3    0    0 -0.10879077075E+02 -0.18353847293E+00  0.38432249518E+01  0.11539427311E+02  0.51100000000E-03 0.  1.
        -11    1    3    3    0    0  0.65396195018E+00  0.20483704750E+01  0.67356653182E+01  0.70705498637E+01  0.51100000000E-03 0. -1.
        -12    1    3    3    0    0  0.27791485545E+01  0.26479345785E+02  0.17604987142E+02  0.31918881436E+02  0.00000000000E+00 0.  1.
</event>
<event>
 7    1  0.5041278E-013  0.5052886E+02  0.7816164E-02  0.1300439E+00
        -11   -1    0    0    0    0  0.00000000000E+00  0.00000000000E+00  0.45593999997E+02  0.45594000000E+02  0.51100000000E-03 0. -1.
         11   -1    0    0    0    0 -0.00000000000E+00 -0.00000000000E+00 -0.45593999997E+02  0.45594000000E+02  0.51100000000E-03 0.  1.
    9900012    2    1    2    0    0 -0.92857531798E+01  0.15118974387E+02  0.36583564032E+02  0.50528858889E+02  0.29999997079E+02 0.  0.
        -12    1    1    2    0    0  0.92857531798E+01 -0.15118974387E+02 -0.36583564032E+02  0.40659141111E+02  0.00000000000E+00 0.  1.
         11    1    3    3    0    0  0.20699176674E+00  0.54708099510E+01 -0.97251462077E+00  0.55604309239E+01  0.51100000000E-03 0. -1.
        -11    1    3    3    0    0 -0.76545562147E+01 -0.52417203202E+00  0.19840277407E+01  0.79248566864E+01  0.51100000000E-03 0.  1.
         12    1    3    3    0    0 -0.18381887318E+01  0.10172336468E+02  0.35572050912E+02  0.37043571279E+02  0.00000000000E+00 0. -1.
</event>
<event>
 7    1  0.5041278E-013  0.5052885E+02  0.7816164E-02  0.1300439E+00
        -11   -1    0    0    0    0  0.00000000000E+00  0.00000000000E+00  0.45593999997E+02  0.45594000000E+02  0.51100000000E-03 0.  1.
         11   -1    0    0    0    0 -0.00000000000E+00 -0.00000000000E+00 -0.45593999997E+02  0.45594000000E+02  0.51100000000E-03 0. -1.
    9900012    2    1    2    0    0  0.26712190541E+01 -0.10681354433E+02 -0.39139997459E+02  0.50528854105E+02  0.29999982538E+02 0.  0.
        -12    1    1    2    0    0 -0.26712190541E+01  0.10681354433E+02  0.39139997459E+02  0.40659145895E+02  0.00000000000E+00 0.  1.
         11    1    3    3    0    0  0.12104655978E+02 -0.13008310548E+02 -0.19889091273E+02  0.26670485402E+02  0.51100000000E-03 0. -1.
        -11    1    3    3    0    0  0.11780039707E+01  0.17691484678E+01 -0.32045601488E+00  0.21494817921E+01  0.51100000000E-03 0.  1.
         12    1    3    3    0    0 -0.10611440895E+02  0.55780764644E+00 -0.18930450172E+02  0.21708886911E+02  0.00000000000E+00 0. -1.
</event>
<event>
 7    1  0.5041278E-013  0.5052886E+02  0.7816164E-02  0.1300439E+00
        -11   -1    0    0    0    0  0.00000000000E+00  0.00000000000E+00  0.45593999997E+02  0.45594000000E+02  0.51100000000E-03 0. -1.
         11   -1    0    0    0    0 -0.00000000000E+00 -0.00000000000E+00 -0.45593999997E+02  0.45594000000E+02  0.51100000000E-03 0.  1.
    9900012    2    1    2    0    0  0.27198053194E+02 -0.83731866671E+00  0.30211425627E+02  0.50528862792E+02  0.30000008942E+02 0.  0.
        -12    1    1    2    0    0 -0.27198053194E+02  0.83731866671E+00 -0.30211425627E+02  0.40659137208E+02  0.00000000000E+00 0.  1.
         11    1    3    3    0    0  0.81598241168E+01 -0.21954211022E+01  0.26445918607E+02  0.27763090870E+02  0.51100000000E-03 0. -1.
        -11    1    3    3    0    0  0.15598600777E+01 -0.38211337521E+01 -0.11026163579E+00  0.41287267411E+01  0.51100000000E-03 0.  1.
        -12    1    3    3    0    0  0.17478369000E+02  0.51792361876E+01  0.38757686554E+01  0.18637045180E+02  0.00000000000E+00 0.  1.
</event>
<event>
 7    1  0.5041278E-013  0.5052885E+02  0.7816164E-02  0.1300439E+00
        -11   -1    0    0    0    0  0.00000000000E+00  0.00000000000E+00  0.45593999997E+02  0.45594000000E+02  0.51100000000E-03 0. -1.
         11   -1    0    0    0    0 -0.00000000000E+00 -0.00000000000E+00 -0.45593999997E+02  0.45594000000E+02  0.51100000000E-03 0.  1.
    9900012    2    1    2    0    0 -0.17317278063E+02  0.16685000843E+02  0.32785498340E+02  0.50528852517E+02  0.29999977712E+02 0.  0.
        -12    1    1    2    0    0  0.17317278063E+02 -0.16685000843E+02 -0.32785498340E+02  0.40659147483E+02  0.00000000000E+00 0.  1.
         11    1    3    3    0    0  0.38579614549E+01 -0.17651632025E+00  0.27471894075E+01  0.47394171056E+01  0.51100000000E-03 0. -1.
        -11    1    3    3    0    0 -0.72873030139E+01  0.37124024581E+01 -0.20522596140E+01  0.84319918769E+01  0.51100000000E-03 0.  1.
        -12    1    3    3    0    0 -0.13887936504E+02  0.13149114705E+02  0.32090568546E+02  0.37357443535E+02  0.00000000000E+00 0.  1.
</event>
<event>
 7    1  0.5041278E-013  0.5052886E+02  0.7816164E-02  0.1300439E+00
        -11   -1    0    0    0    0  0.00000000000E+00  0.00000000000E+00  0.45593999997E+02  0.45594000000E+02  0.51100000000E-03 0.  1.
         11   -1    0    0    0    0 -0.00000000000E+00 -0.00000000000E+00 -0.45593999997E+02  0.45594000000E+02  0.51100000000E-03 0. -1.
    9900012    2    1    2    0    0  0.18647495450E+02  0.12092153568E+01 -0.36110590860E+02  0.50528855142E+02  0.29999985690E+02 0.  0.
        -12    1    1    2    0    0 -0.18647495450E+02 -0.12092153568E+01  0.36110590860E+02  0.40659144858E+02  0.00000000000E+00 0.  1.
         11    1    3    3    0    0  0.17875973554E+02  0.45927396564E+01 -0.31626441130E+02  0.36617966449E+02  0.51100000000E-03 0. -1.
        -11    1    3    3    0    0 -0.30040796260E+01  0.38538827423E+01 -0.25924693840E+01  0.55315282119E+01  0.51100000000E-03 0.  1.
        -12    1    3    3    0    0  0.37756015220E+01 -0.72374070420E+01 -0.18916803460E+01  0.83793604813E+01  0.00000000000E+00 0.  1.
</event>
<event>
 7    1  0.5041278E-013  0.5052891E+02  0.7816164E-02  0.1300439E+00
        -11   -1    0    0    0    0  0.00000000000E+00  0.00000000000E+00  0.45593999997E+02  0.45594000000E+02  0.51100000000E-03 0.  1.
         11   -1    0    0    0    0 -0.00000000000E+00 -0.00000000000E+00 -0.45593999997E+02  0.45594000000E+02  0.51100000000E-03 0. -1.
    9900012    2    1    2    0    0  0.14553820668E+02 -0.19952359046E+02 -0.32299400509E+02  0.50528909986E+02  0.30000152392E+02 0.  0.
        -12    1    1    2    0    0 -0.14553820668E+02  0.19952359046E+02  0.32299400509E+02  0.40659090014E+02  0.00000000000E+00 0.  1.
         11    1    3    3    0    0  0.41526879121E+01 -0.16029993597E+02 -0.82486218124E+01  0.18499872261E+02  0.51100000000E-03 0. -1.
        -11    1    3    3    0    0  0.13443939152E+02 -0.78920209148E+01 -0.21057715046E+02  0.26200207199E+02  0.51100000000E-03 0.  1.
        -12    1    3    3    0    0 -0.30428063963E+01  0.39696554654E+01 -0.29930636513E+01  0.58288305259E+01  0.00000000000E+00 0.  1.
</event>
<event>
 7    1  0.5041278E-013  0.5052885E+02  0.7816164E-02  0.1300439E+00
        -11   -1    0    0    0    0  0.00000000000E+00  0.00000000000E+00  0.45593999997E+02  0.45594000000E+02  0.51100000000E-03 0.  1.
         11   -1    0    0    0    0 -0.00000000000E+00 -0.00000000000E+00 -0.45593999997E+02  0.45594000000E+02  0.51100000000E-03 0. -1.
    9900012    2    1    2    0    0  0.37325422225E+02 -0.73414885717E+01 -0.14355549915E+02  0.50528850820E+02  0.29999972551E+02 0.  0.
        -12    1    1    2    0    0 -0.37325422225E+02  0.73414885717E+01  0.14355549915E+02  0.40659149180E+02  0.00000000000E+00 0.  1.
         11    1    3    3    0    0 -0.19437676276E+01  0.18027559077E+01 -0.26906744829E+01  0.37772861802E+01  0.51100000000E-03 0. -1.
        -11    1    3    3    0    0  0.14157891084E+01 -0.14873807714E+00  0.44249738401E+01  0.46483304059E+01  0.51100000000E-03 0.  1.
         12    1    3    3    0    0  0.37853400744E+02 -0.89955064023E+01 -0.16089849272E+02  0.42103234234E+02  0.00000000000E+00 0. -1.
</event>
<event>
 7    1  0.5041278E-013  0.5052889E+02  0.7816164E-02  0.1300439E+00
        -11   -1    0    0    0    0  0.00000000000E+00  0.00000000000E+00  0.45593999997E+02  0.45594000000E+02  0.51100000000E-03 0.  1.
         11   -1    0    0    0    0 -0.00000000000E+00 -0.00000000000E+00 -0.45593999997E+02  0.45594000000E+02  0.51100000000E-03 0. -1.
    9900012    2    1    2    0    0  0.24388655098E+02 -0.30414858535E+01 -0.32389902833E+02  0.50528893526E+02  0.30000102363E+02 0.  0.
        -12    1    1    2    0    0 -0.24388655098E+02  0.30414858535E+01  0.32389902833E+02  0.40659106474E+02  0.00000000000E+00 0.  1.
         11    1    3    3    0    0  0.88895349542E+01 -0.26223932087E+01 -0.26495323198E+00  0.92720536193E+01  0.51100000000E-03 0. -1.
        -11    1    3    3    0    0 -0.45968226007E+00 -0.50859125057E+01 -0.25581353125E-01  0.51067081826E+01  0.51100000000E-03 0.  1.
         12    1    3    3    0    0  0.15958802404E+02  0.46668198609E+01 -0.32099368248E+02  0.36150131725E+02  0.00000000000E+00 0. -1.
</event>
<event>
 7    1  0.5041278E-013  0.5052885E+02  0.7816164E-02  0.1300439E+00
        -11   -1    0    0    0    0  0.00000000000E+00  0.00000000000E+00  0.45593999997E+02  0.45594000000E+02  0.51100000000E-03 0. -1.
         11   -1    0    0    0    0 -0.00000000000E+00 -0.00000000000E+00 -0.45593999997E+02  0.45594000000E+02  0.51100000000E-03 0.  1.
    9900012    2    1    2    0    0 -0.48468507183E+01  0.64374871842E+01  0.39852643435E+02  0.50528851068E+02  0.29999973305E+02 0.  0.
        -12    1    1    2    0    0  0.48468507183E+01 -0.64374871842E+01 -0.39852643435E+02  0.40659148932E+02  0.00000000000E+00 0.  1.
         11    1    3    3    0    0 -0.18772268451E+01  0.12412647690E+01  0.31866041698E+02  0.31945411762E+02  0.51100000000E-03 0. -1.
        -11    1    3    3    0    0 -0.73483659218E+01 -0.14026787659E+00  0.89855322687E+01  0.11608529072E+02  0.51100000000E-03 0.  1.
         12    1    3    3    0    0  0.43787420486E+01  0.53364902917E+01 -0.99893053179E+00  0.69749102338E+01  0.00000000000E+00 0. -1.
</event>
<event>
 7    1  0.5041278E-013  0.5052888E+02  0.7816164E-02  0.1300439E+00
        -11   -1    0    0    0    0  0.00000000000E+00  0.00000000000E+00  0.45593999997E+02  0.45594000000E+02  0.51100000000E-03 0.  1.
         11   -1    0    0    0    0 -0.00000000000E+00 -0.00000000000E+00 -0.45593999997E+02  0.45594000000E+02  0.51100000000E-03 0. -1.
    9900012    2    1    2    0    0  0.20280961299E+02  0.19707672938E+02 -0.29213943856E+02  0.50528877046E+02  0.30000052268E+02 0.  0.
        -12    1    1    2    0    0 -0.20280961299E+02 -0.19707672938E+02  0.29213943856E+02  0.40659122954E+02  0.00000000000E+00 0.  1.
         11    1    3    3    0    0  0.15919176676E+00  0.13454519725E+02 -0.20047621765E+02  0.24144493818E+02  0.51100000000E-03 0. -1.
        -11    1    3    3    0    0  0.27743234530E+01 -0.33785300205E+01 -0.38926646087E+01  0.58535607743E+01  0.51100000000E-03 0.  1.
         12    1    3    3    0    0  0.17347446079E+02  0.96316832335E+01 -0.52736574824E+01  0.20530822453E+02  0.00000000000E+00 0. -1.
</event>
<event>
 7    1  0.5041278E-013  0.5052886E+02  0.7816164E-02  0.1300439E+00
        -11   -1    0    0    0    0  0.00000000000E+00  0.00000000000E+00  0.45593999997E+02  0.45594000000E+02  0.51100000000E-03 0. -1.
         11   -1    0    0    0    0 -0.00000000000E+00 -0.00000000000E+00 -0.45593999997E+02  0.45594000000E+02  0.51100000000E-03 0.  1.
    9900012    2    1    2    0    0 -0.46207061383E+01  0.34098599093E+02 -0.21658728914E+02  0.50528856828E+02  0.29999990813E+02 0.  0.
        -12    1    1    2    0    0  0.46207061383E+01 -0.34098599093E+02  0.21658728914E+02  0.40659143172E+02  0.00000000000E+00 0.  1.
         11    1    3    3    0    0 -0.40225329661E+01  0.19850967371E+01 -0.22332028496E+01  0.50108458116E+01  0.51100000000E-03 0. -1.
        -11    1    3    3    0    0  0.29298747848E+01  0.71397926437E+01 -0.18762365460E+02  0.20287611075E+02  0.51100000000E-03 0.  1.
        -12    1    3    3    0    0 -0.35280479569E+01  0.24973709712E+02 -0.66316060521E+00  0.25230399941E+02  0.00000000000E+00 0.  1.
</event>
<event>
 7    1  0.5041278E-013  0.5052886E+02  0.7816164E-02  0.1300439E+00
        -11   -1    0    0    0    0  0.00000000000E+00  0.00000000000E+00  0.45593999997E+02  0.45594000000E+02  0.51100000000E-03 0.  1.
         11   -1    0    0    0    0 -0.00000000000E+00 -0.00000000000E+00 -0.45593999997E+02  0.45594000000E+02  0.51100000000E-03 0. -1.
    9900012    2    1    2    0    0  0.16635749394E+02 -0.37079217151E+02 -0.12446718886E+01  0.50528859447E+02  0.29999998774E+02 0.  0.
        -12    1    1    2    0    0 -0.16635749394E+02  0.37079217151E+02  0.12446718886E+01  0.40659140553E+02  0.00000000000E+00 0.  1.
         11    1    3    3    0    0  0.86327261653E+01 -0.18068259532E+02  0.40922166229E+01  0.20438498005E+02  0.51100000000E-03 0.  1.
        -11    1    3    3    0    0  0.14138141871E+02 -0.15175327698E+02 -0.82083762522E+01  0.22305942420E+02  0.51100000000E-03 0. -1.
         12    1    3    3    0    0 -0.61351186425E+01 -0.38356299209E+01  0.28714877408E+01  0.77844190209E+01  0.00000000000E+00 0. -1.
</event>
<event>
 7    1  0.5041278E-013  0.5052887E+02  0.7816164E-02  0.1300439E+00
        -11   -1    0    0    0    0  0.00000000000E+00  0.00000000000E+00  0.45593999997E+02  0.45594000000E+02  0.51100000000E-03 0. -1.
         11   -1    0    0    0    0 -0.00000000000E+00 -0.00000000000E+00 -0.45593999997E+02  0.45594000000E+02  0.51100000000E-03 0.  1.
    9900012    2    1    2    0    0 -0.12040537677E+02  0.24082015612E+01  0.38760691343E+02  0.50528866024E+02  0.30000018766E+02 0.  0.
        -12    1    1    2    0    0  0.12040537677E+02 -0.24082015612E+01 -0.38760691343E+02  0.40659133976E+02  0.00000000000E+00 0.  1.
         11    1    3    3    0    0  0.60799144926E+00  0.56775260875E+01  0.40527851048E+01  0.70020727962E+01  0.51100000000E-03 0.  1.
        -11    1    3    3    0    0 -0.13068685877E+01 -0.22787490619E+01  0.31622301570E+02  0.31731223733E+02  0.51100000000E-03 0. -1.
         12    1    3    3    0    0 -0.11341660538E+02 -0.99057546436E+00  0.30856046686E+01  0.11795569494E+02  0.00000000000E+00 0. -1.
</event>
<event>
 7    1  0.5041278E-013  0.5052878E+02  0.7816164E-02  0.1300439E+00
        -11   -1    0    0    0    0  0.00000000000E+00  0.00000000000E+00  0.45593999997E+02  0.45594000000E+02  0.51100000000E-03 0.  1.
         11   -1    0    0    0    0 -0.00000000000E+00 -0.00000000000E+00 -0.45593999997E+02  0.45594000000E+02  0.51100000000E-03 0. -1.
    9900012    2    1    2    0    0  0.12705787591E+02  0.17488255988E+01 -0.38583373385E+02  0.50528780491E+02  0.29999758780E+02 0.  0.
        -12    1    1    2    0    0 -0.12705787591E+02 -0.17488255988E+01  0.38583373385E+02  0.40659219509E+02  0.00000000000E+00 0.  1.
         11    1    3    3    0    0  0.38441795000E+01  0.11163308798E+02 -0.14199115164E+02  0.18466511610E+02  0.51100000000E-03 0. -1.
        -11    1    3    3    0    0 -0.19890116855E+01 -0.10096288472E+01  0.15526411360E+01  0.27177587554E+01  0.51100000000E-03 0.  1.
         12    1    3    3    0    0  0.10850619777E+02 -0.84048543522E+01 -0.25936899357E+02  0.29344510125E+02  0.00000000000E+00 0. -1.
</event>
<event>
 7    1  0.5041278E-013  0.5052887E+02  0.7816164E-02  0.1300439E+00
        -11   -1    0    0    0    0  0.00000000000E+00  0.00000000000E+00  0.45593999997E+02  0.45594000000E+02  0.51100000000E-03 0.  1.
         11   -1    0    0    0    0 -0.00000000000E+00 -0.00000000000E+00 -0.45593999997E+02  0.45594000000E+02  0.51100000000E-03 0. -1.
    9900012    2    1    2    0    0 -0.24594988242E+02  0.16512248263E+02 -0.27849538112E+02  0.50528873566E+02  0.30000041692E+02 0.  0.
        -12    1    1    2    0    0  0.24594988242E+02 -0.16512248263E+02  0.27849538112E+02  0.40659126434E+02  0.00000000000E+00 0.  1.
         11    1    3    3    0    0 -0.12462805699E+02 -0.68787337537E+01 -0.15422434246E+02  0.20987853207E+02  0.51100000000E-03 0. -1.
        -11    1    3    3    0    0 -0.58137817224E+01  0.66855572252E+01 -0.30604488211E+01  0.93735308489E+01  0.51100000000E-03 0.  1.
        -12    1    3    3    0    0 -0.63184008209E+01  0.16705424791E+02 -0.93666550450E+01  0.20167489510E+02  0.00000000000E+00 0.  1.
</event>
<event>
 7    1  0.5041278E-013  0.5052885E+02  0.7816164E-02  0.1300439E+00
        -11   -1    0    0    0    0  0.00000000000E+00  0.00000000000E+00  0.45593999997E+02  0.45594000000E+02  0.51100000000E-03 0. -1.
         11   -1    0    0    0    0 -0.00000000000E+00 -0.00000000000E+00 -0.45593999997E+02  0.45594000000E+02  0.51100000000E-03 0.  1.
    9900012    2    1    2    0    0  0.35190415776E+02  0.11913673633E+02  0.16518633917E+02  0.50528852832E+02  0.29999978669E+02 0.  0.
        -12    1    1    2    0    0 -0.35190415776E+02 -0.11913673633E+02 -0.16518633917E+02  0.40659147168E+02  0.00000000000E+00 0.  1.
         11    1    3    3    0    0  0.11206563298E+02  0.74187394618E+01  0.49631117287E+01  0.14326801264E+02  0.51100000000E-03 0. -1.
        -11    1    3    3    0    0 -0.65637402524E+00 -0.38348088894E+01  0.93159412165E+01  0.10095709341E+02  0.51100000000E-03 0.  1.
         12    1    3    3    0    0  0.24640226503E+02  0.83297430605E+01  0.22395809714E+01  0.26106342228E+02  0.00000000000E+00 0. -1.
</event>
<event>
 7    1  0.5041278E-013  0.5052886E+02  0.7816164E-02  0.1300439E+00
        -11   -1    0    0    0    0  0.00000000000E+00  0.00000000000E+00  0.45593999997E+02  0.45594000000E+02  0.51100000000E-03 0.  1.
         11   -1    0    0    0    0 -0.00000000000E+00 -0.00000000000E+00 -0.45593999997E+02  0.45594000000E+02  0.51100000000E-03 0. -1.
    9900012    2    1    2    0    0  0.18185577427E+01  0.40584809147E+02 -0.16528717428E+01  0.50528857477E+02  0.29999992786E+02 0.  0.
        -12    1    1    2    0    0 -0.18185577427E+01 -0.40584809147E+02  0.16528717428E+01  0.40659142523E+02  0.00000000000E+00 0.  1.
         11    1    3    3    0    0  0.12653784480E+02  0.20114600297E+02  0.42682184870E+01  0.24144007457E+02  0.51100000000E-03 0. -1.
        -11    1    3    3    0    0 -0.14381075579E+01  0.62816105431E+00  0.24322836703E+01  0.28946059787E+01  0.51100000000E-03 0.  1.
         12    1    3    3    0    0 -0.93971191792E+01  0.19842047796E+02 -0.83533739001E+01  0.23490244041E+02  0.00000000000E+00 0. -1.
</event>
<event>
 7    1  0.5041278E-013  0.5052886E+02  0.7816164E-02  0.1300439E+00
        -11   -1    0    0    0    0  0.00000000000E+00  0.00000000000E+00  0.45593999997E+02  0.45594000000E+02  0.51100000000E-03 0. -1.
         11   -1    0    0    0    0 -0.00000000000E+00 -0.00000000000E+00 -0.45593999997E+02  0.45594000000E+02  0.51100000000E-03 0.  1.
    9900012    2    1    2    0    0  0.22389703524E+02  0.33605662861E+02  0.47461831724E+01  0.50528860131E+02  0.30000000854E+02 0.  0.
        -12    1    1    2    0    0 -0.22389703524E+02 -0.33605662861E+02 -0.47461831724E+01  0.40659139869E+02  0.00000000000E+00 0.  1.
         11    1    3    3    0    0  0.55497746877E+01  0.83060663410E+01  0.12405615471E+02  0.15927649940E+02  0.51100000000E-03 0. -1.
        -11    1    3    3    0    0  0.29786073919E+01  0.17550375629E+02 -0.30085734882E+01  0.18053789115E+02  0.51100000000E-03 0.  1.
        -12    1    3    3    0    0  0.13861321444E+02  0.77492208906E+01 -0.46508588101E+01  0.16547421076E+02  0.00000000000E+00 0.  1.
</event>
<event>
 7    1  0.5041278E-013  0.5052884E+02  0.7816164E-02  0.1300439E+00
        -11   -1    0    0    0    0  0.00000000000E+00  0.00000000000E+00  0.45593999997E+02  0.45594000000E+02  0.51100000000E-03 0. -1.
         11   -1    0    0    0    0 -0.00000000000E+00 -0.00000000000E+00 -0.45593999997E+02  0.45594000000E+02  0.51100000000E-03 0.  1.
    9900012    2    1    2    0    0  0.39361416305E+02  0.13683266562E+01  0.10098222038E+02  0.50528837445E+02  0.29999931897E+02 0.  0.
        -12    1    1    2    0    0 -0.39361416305E+02 -0.13683266562E+01 -0.10098222038E+02  0.40659162555E+02  0.00000000000E+00 0.  1.
         11    1    3    3    0    0  0.27215167994E+02 -0.10155445651E+02  0.69693369326E+01  0.29872564384E+02  0.51100000000E-03 0. -1.
        -11    1    3    3    0    0  0.18329223470E+01  0.39298314244E-01 -0.34266545221E+01  0.38862720135E+01  0.51100000000E-03 0.  1.
        -12    1    3    3    0    0  0.10313325963E+02  0.11484473993E+02  0.65555396276E+01  0.16770001047E+02  0.00000000000E+00 0.  1.
</event>
<event>
 7    1  0.5041278E-013  0.5052886E+02  0.7816164E-02  0.1300439E+00
        -11   -1    0    0    0    0  0.00000000000E+00  0.00000000000E+00  0.45593999997E+02  0.45594000000E+02  0.51100000000E-03 0.  1.
         11   -1    0    0    0    0 -0.00000000000E+00 -0.00000000000E+00 -0.45593999997E+02  0.45594000000E+02  0.51100000000E-03 0. -1.
    9900012    2    1    2    0    0 -0.17187851983E+02  0.11162049094E+01 -0.36830664500E+02  0.50528855682E+02  0.29999987329E+02 0.  0.
        -12    1    1    2    0    0  0.17187851983E+02 -0.11162049094E+01  0.36830664500E+02  0.40659144318E+02  0.00000000000E+00 0.  1.
         11    1    3    3    0    0 -0.43447430491E+01  0.42135856352E+00 -0.17576205584E+02  0.18110144621E+02  0.51100000000E-03 0. -1.
        -11    1    3    3    0    0  0.35265398458E+01  0.65450364819E+01 -0.10739163397E+02  0.13061531938E+02  0.51100000000E-03 0.  1.
         12    1    3    3    0    0 -0.16369648780E+02 -0.58501901360E+01 -0.85152955188E+01  0.19357179122E+02  0.00000000000E+00 0. -1.
</event>
<event>
 7    1  0.5041278E-013  0.5052887E+02  0.7816164E-02  0.1300439E+00
        -11   -1    0    0    0    0  0.00000000000E+00  0.00000000000E+00  0.45593999997E+02  0.45594000000E+02  0.51100000000E-03 0.  1.
         11   -1    0    0    0    0 -0.00000000000E+00 -0.00000000000E+00 -0.45593999997E+02  0.45594000000E+02  0.51100000000E-03 0. -1.
    9900012    2    1    2    0    0 -0.24423957449E+01 -0.11350502361E+02 -0.38966215818E+02  0.50528866020E+02  0.30000018756E+02 0.  0.
        -12    1    1    2    0    0  0.24423957449E+01  0.11350502361E+02  0.38966215818E+02  0.40659133980E+02  0.00000000000E+00 0.  1.
         11    1    3    3    0    0  0.55691513633E+01 -0.53569030673E+01 -0.33277224100E+01  0.84134175030E+01  0.51100000000E-03 0.  1.
        -11    1    3    3    0    0 -0.11431095807E+02 -0.69329128672E+01 -0.36140366707E+02  0.38533898559E+02  0.51100000000E-03 0. -1.
         12    1    3    3    0    0  0.34195486990E+01  0.93931357397E+00  0.50187329927E+00  0.35815499583E+01  0.00000000000E+00 0. -1.
</event>
<event>
 7    1  0.5041278E-013  0.5052886E+02  0.7816164E-02  0.1300439E+00
        -11   -1    0    0    0    0  0.00000000000E+00  0.00000000000E+00  0.45593999997E+02  0.45594000000E+02  0.51100000000E-03 0. -1.
         11   -1    0    0    0    0 -0.00000000000E+00 -0.00000000000E+00 -0.45593999997E+02  0.45594000000E+02  0.51100000000E-03 0.  1.
    9900012    2    1    2    0    0 -0.34226995054E+02  0.21615713114E+02 -0.37998809169E+01  0.50528864018E+02  0.30000012669E+02 0.  0.
        -12    1    1    2    0    0  0.34226995054E+02 -0.21615713114E+02  0.37998809169E+01  0.40659135982E+02  0.00000000000E+00 0.  1.
         11    1    3    3    0    0 -0.27585660372E+00  0.78579485298E+01  0.40508573376E+01  0.88449362571E+01  0.51100000000E-03 0. -1.
        -11    1    3    3    0    0 -0.16398267427E+02  0.14939353469E+01 -0.11333828871E+02  0.19989764745E+02  0.51100000000E-03 0.  1.
         12    1    3    3    0    0 -0.17552871023E+02  0.12263829237E+02  0.34830906169E+01  0.21694163016E+02  0.00000000000E+00 0. -1.
</event>
<event>
 7    1  0.5041278E-013  0.5052885E+02  0.7816164E-02  0.1300439E+00
        -11   -1    0    0    0    0  0.00000000000E+00  0.00000000000E+00  0.45593999997E+02  0.45594000000E+02  0.51100000000E-03 0. -1.
         11   -1    0    0    0    0 -0.00000000000E+00 -0.00000000000E+00 -0.45593999997E+02  0.45594000000E+02  0.51100000000E-03 0.  1.
    9900012    2    1    2    0    0 -0.21802212757E+02 -0.28300652575E+02  0.19414000207E+02  0.50528845787E+02  0.29999957254E+02 0.  0.
        -12    1    1    2    0    0  0.21802212757E+02  0.28300652575E+02 -0.19414000207E+02  0.40659154213E+02  0.00000000000E+00 0.  1.
         11    1    3    3    0    0 -0.10766003721E+02 -0.18045649884E+02  0.18271859022E+02  0.27846241187E+02  0.51100000000E-03 0. -1.
        -11    1    3    3    0    0 -0.21255549992E+01  0.33040203569E+01  0.46452800468E+01  0.60838443067E+01  0.51100000000E-03 0.  1.
        -12    1    3    3    0    0 -0.89106540366E+01 -0.13559023048E+02 -0.35031388623E+01  0.16598760293E+02  0.00000000000E+00 0.  1.
</event>
<event>
 7    1  0.5041278E-013  0.5052886E+02  0.7816164E-02  0.1300439E+00
        -11   -1    0    0    0    0  0.00000000000E+00  0.00000000000E+00  0.45593999997E+02  0.45594000000E+02  0.51100000000E-03 0. -1.
         11   -1    0    0    0    0 -0.00000000000E+00 -0.00000000000E+00 -0.45593999997E+02  0.45594000000E+02  0.51100000000E-03 0.  1.
    9900012    2    1    2    0    0 -0.25382831700E+02 -0.29972604020E+02 -0.10512888530E+02  0.50528856353E+02  0.29999989370E+02 0.  0.
        -12    1    1    2    0    0  0.25382831700E+02  0.29972604020E+02  0.10512888530E+02  0.40659143647E+02  0.00000000000E+00 0.  1.
         11    1    3    3    0    0 -0.36972820175E+01  0.23629937004E+01 -0.57098716267E+00  0.44248909756E+01  0.51100000000E-03 0. -1.
        -11    1    3    3    0    0 -0.97078595278E+01 -0.10064725664E+02 -0.14792118475E+02  0.20355539996E+02  0.51100000000E-03 0.  1.
         12    1    3    3    0    0 -0.11977690155E+02 -0.22270872056E+02  0.48502171076E+01  0.25748425381E+02  0.00000000000E+00 0. -1.
</event>
<event>
 7    1  0.5041278E-013  0.5052884E+02  0.7816164E-02  0.1300439E+00
        -11   -1    0    0    0    0  0.00000000000E+00  0.00000000000E+00  0.45593999997E+02  0.45594000000E+02  0.51100000000E-03 0.  1.
         11   -1    0    0    0    0 -0.00000000000E+00 -0.00000000000E+00 -0.45593999997E+02  0.45594000000E+02  0.51100000000E-03 0. -1.
    9900012    2    1    2    0    0  0.19457024675E+02  0.30994023932E+02 -0.17718977626E+02  0.50528837480E+02  0.29999932005E+02 0.  0.
        -12    1    1    2    0    0 -0.19457024675E+02 -0.30994023932E+02  0.17718977626E+02  0.40659162520E+02  0.00000000000E+00 0.  1.
         11    1    3    3    0    0  0.94067482823E+00  0.61421288469E+01  0.23633613516E+01  0.66480142181E+01  0.51100000000E-03 0.  1.
        -11    1    3    3    0    0  0.14501794474E+02  0.16713320621E+02 -0.25140484184E+02  0.33491507497E+02  0.51100000000E-03 0. -1.
         12    1    3    3    0    0  0.40145553726E+01  0.81385744638E+01  0.50581452061E+01  0.10389315765E+02  0.00000000000E+00 0. -1.
</event>
<event>
 7    1  0.5041278E-013  0.5052887E+02  0.7816164E-02  0.1300439E+00
        -11   -1    0    0    0    0  0.00000000000E+00  0.00000000000E+00  0.45593999997E+02  0.45594000000E+02  0.51100000000E-03 0.  1.
         11   -1    0    0    0    0 -0.00000000000E+00 -0.00000000000E+00 -0.45593999997E+02  0.45594000000E+02  0.51100000000E-03 0. -1.
    9900012    2    1    2    0    0  0.12757904716E+02  0.10223020959E+02 -0.37227547514E+02  0.50528873297E+02  0.30000040875E+02 0.  0.
        -12    1    1    2    0    0 -0.12757904716E+02 -0.10223020959E+02  0.37227547514E+02  0.40659126703E+02  0.00000000000E+00 0.  1.
         11    1    3    3    0    0  0.20069319234E+01 -0.36446944730E+01 -0.52343081305E+01  0.66865204264E+01  0.51100000000E-03 0. -1.
        -11    1    3    3    0    0  0.95547195176E+01  0.57805637569E+01 -0.36346581826E+00  0.11173168309E+02  0.51100000000E-03 0.  1.
         12    1    3    3    0    0  0.11962532753E+01  0.80871516747E+01 -0.31629773566E+02  0.32669184562E+02  0.00000000000E+00 0. -1.
</event>
<event>
 7    1  0.5041278E-013  0.5052886E+02  0.7816164E-02  0.1300439E+00
        -11   -1    0    0    0    0  0.00000000000E+00  0.00000000000E+00  0.45593999997E+02  0.45594000000E+02  0.51100000000E-03 0.  1.
         11   -1    0    0    0    0 -0.00000000000E+00 -0.00000000000E+00 -0.45593999997E+02  0.45594000000E+02  0.51100000000E-03 0. -1.
    9900012    2    1    2    0    0  0.28936749775E+02 -0.23331787487E+02 -0.16475981820E+02  0.50528858693E+02  0.29999996484E+02 0.  0.
        -12    1    1    2    0    0 -0.28936749775E+02  0.23331787487E+02  0.16475981820E+02  0.40659141307E+02  0.00000000000E+00 0.  1.
         11    1    3    3    0    0  0.19811150864E+02 -0.57593865013E+01 -0.64774368385E+01  0.21624278478E+02  0.51100000000E-03 0. -1.
        -11    1    3    3    0    0 -0.30106669745E+01  0.16603113120E+01 -0.42141749219E+01  0.54387516782E+01  0.51100000000E-03 0.  1.
        -12    1    3    3    0    0  0.12136265885E+02 -0.19232712298E+02 -0.57843700596E+01  0.23465828537E+02  0.00000000000E+00 0.  1.
</event>
<event>
 7    1  0.5041278E-013  0.5052885E+02  0.7816164E-02  0.1300439E+00
        -11   -1    0    0    0    0  0.00000000000E+00  0.00000000000E+00  0.45593999997E+02  0.45594000000E+02  0.51100000000E-03 0.  1.
         11   -1    0    0    0    0 -0.00000000000E+00 -0.00000000000E+00 -0.45593999997E+02  0.45594000000E+02  0.51100000000E-03 0. -1.
    9900012    2    1    2    0    0 -0.14115620641E+02  0.38041197311E+02  0.26043622301E+01  0.50528854146E+02  0.29999982663E+02 0.  0.
        -12    1    1    2    0    0  0.14115620641E+02 -0.38041197311E+02 -0.26043622301E+01  0.40659145854E+02  0.00000000000E+00 0.  1.
         11    1    3    3    0    0  0.60925985658E+01 -0.47659779865E+00  0.11703142944E+01  0.62222615305E+01  0.51100000000E-03 0.  1.
        -11    1    3    3    0    0 -0.52804615856E+01  0.18486695516E+02 -0.65957514323E+00  0.19237365342E+02  0.51100000000E-03 0. -1.
        -12    1    3    3    0    0 -0.14927757621E+02  0.20031099593E+02  0.20936230790E+01  0.25069227274E+02  0.00000000000E+00 0.  1.
</event>
<event>
 7    1  0.5041278E-013  0.5052886E+02  0.7816164E-02  0.1300439E+00
        -11   -1    0    0    0    0  0.00000000000E+00  0.00000000000E+00  0.45593999997E+02  0.45594000000E+02  0.51100000000E-03 0. -1.
         11   -1    0    0    0    0 -0.00000000000E+00 -0.00000000000E+00 -0.45593999997E+02  0.45594000000E+02  0.51100000000E-03 0.  1.
    9900012    2    1    2    0    0 -0.38291744173E+02  0.98054032362E+01 -0.95269023708E+01  0.50528862365E+02  0.30000007644E+02 0.  0.
        -12    1    1    2    0    0  0.38291744173E+02 -0.98054032362E+01  0.95269023708E+01  0.40659137635E+02  0.00000000000E+00 0.  1.
         11    1    3    3    0    0 -0.13270611427E+02  0.85151426216E+01 -0.13834685782E+02  0.20976541957E+02  0.51100000000E-03 0. -1.
        -11    1    3    3    0    0 -0.24261856100E+02  0.11179560487E+01 -0.88282975953E+00  0.24303639147E+02  0.51100000000E-03 0.  1.
        -12    1    3    3    0    0 -0.75927664641E+00  0.17230456595E+00  0.51906131711E+01  0.52486812612E+01  0.00000000000E+00 0.  1.
</event>
<event>
 7    1  0.5041278E-013  0.5052886E+02  0.7816164E-02  0.1300439E+00
        -11   -1    0    0    0    0  0.00000000000E+00  0.00000000000E+00  0.45593999997E+02  0.45594000000E+02  0.51100000000E-03 0.  1.
         11   -1    0    0    0    0 -0.00000000000E+00 -0.00000000000E+00 -0.45593999997E+02  0.45594000000E+02  0.51100000000E-03 0. -1.
    9900012    2    1    2    0    0  0.88849844283E+01  0.20039372356E+01 -0.39625835109E+02  0.50528861780E+02  0.30000005867E+02 0.  0.
        -12    1    1    2    0    0 -0.88849844283E+01 -0.20039372356E+01  0.39625835109E+02  0.40659138220E+02  0.00000000000E+00 0.  1.
         11    1    3    3    0    0  0.79167654147E+01  0.24281790123E+01 -0.32540873203E+02  0.33577963860E+02  0.51100000000E-03 0. -1.
        -11    1    3    3    0    0  0.72132788411E+00  0.36176617261E+01 -0.10826407786E+02  0.11437608845E+02  0.51100000000E-03 0.  1.
        -12    1    3    3    0    0  0.24689112947E+00 -0.40419035028E+01  0.37414458797E+01  0.55132890752E+01  0.00000000000E+00 0.  1.
</event>
<event>
 7    1  0.5041278E-013  0.5052887E+02  0.7816164E-02  0.1300439E+00
        -11   -1    0    0    0    0  0.00000000000E+00  0.00000000000E+00  0.45593999997E+02  0.45594000000E+02  0.51100000000E-03 0.  1.
         11   -1    0    0    0    0 -0.00000000000E+00 -0.00000000000E+00 -0.45593999997E+02  0.45594000000E+02  0.51100000000E-03 0. -1.
    9900012    2    1    2    0    0  0.17645534099E+02  0.92617202175E+01 -0.35440377799E+02  0.50528871707E+02  0.30000036040E+02 0.  0.
        -12    1    1    2    0    0 -0.17645534099E+02 -0.92617202175E+01  0.35440377799E+02  0.40659128293E+02  0.00000000000E+00 0.  1.
         11    1    3    3    0    0 -0.10348200047E+01  0.21145543966E+01  0.35456161361E+01  0.42560059662E+01  0.51100000000E-03 0. -1.
        -11    1    3    3    0    0  0.52632175225E+01  0.43678489208E+01 -0.24718544965E+01  0.72725255446E+01  0.51100000000E-03 0.  1.
         12    1    3    3    0    0  0.13417136582E+02  0.27793169000E+01 -0.36514139438E+02  0.39000340196E+02  0.00000000000E+00 0. -1.
</event>
<event>
 7    1  0.5041278E-013  0.5052886E+02  0.7816164E-02  0.1300439E+00
        -11   -1    0    0    0    0  0.00000000000E+00  0.00000000000E+00  0.45593999997E+02  0.45594000000E+02  0.51100000000E-03 0.  1.
         11   -1    0    0    0    0 -0.00000000000E+00 -0.00000000000E+00 -0.45593999997E+02  0.45594000000E+02  0.51100000000E-03 0. -1.
    9900012    2    1    2    0    0 -0.17900767040E+02 -0.23296885766E+01 -0.36432142409E+02  0.50528856994E+02  0.29999991318E+02 0.  0.
        -12    1    1    2    0    0  0.17900767040E+02  0.23296885766E+01  0.36432142409E+02  0.40659143006E+02  0.00000000000E+00 0.  1.
         11    1    3    3    0    0 -0.80349456464E+01 -0.27696328217E+01 -0.11634554981E+02  0.14408125741E+02  0.51100000000E-03 0. -1.
        -11    1    3    3    0    0 -0.15169476058E+00 -0.82855223342E+01 -0.21993283618E+00  0.82898288501E+01  0.51100000000E-03 0.  1.
         12    1    3    3    0    0 -0.97141266334E+01  0.87254665794E+01 -0.24577654592E+02  0.27830902402E+02  0.00000000000E+00 0. -1.
</event>
<event>
 7    1  0.5041278E-013  0.5052887E+02  0.7816164E-02  0.1300439E+00
        -11   -1    0    0    0    0  0.00000000000E+00  0.00000000000E+00  0.45593999997E+02  0.45594000000E+02  0.51100000000E-03 0.  1.
         11   -1    0    0    0    0 -0.00000000000E+00 -0.00000000000E+00 -0.45593999997E+02  0.45594000000E+02  0.51100000000E-03 0. -1.
    9900012    2    1    2    0    0  0.31755865199E+02 -0.49379634408E+01 -0.24906760754E+02  0.50528865864E+02  0.30000018279E+02 0.  0.
        -12    1    1    2    0    0 -0.31755865199E+02  0.49379634408E+01  0.24906760754E+02  0.40659134136E+02  0.00000000000E+00 0.  1.
         11    1    3    3    0    0  0.26138859677E+02  0.53135286463E+01 -0.11234215117E+02  0.28942722081E+02  0.51100000000E-03 0. -1.
        -11    1    3    3    0    0  0.13698205510E+01 -0.26253932788E-01  0.19833828312E+01  0.24105819479E+01  0.51100000000E-03 0.  1.
         12    1    3    3    0    0  0.42471849706E+01 -0.10225238154E+02 -0.15655928468E+02  0.19175561835E+02  0.00000000000E+00 0. -1.
</event>
<event>
 7    1  0.5041278E-013  0.5052885E+02  0.7816164E-02  0.1300439E+00
        -11   -1    0    0    0    0  0.00000000000E+00  0.00000000000E+00  0.45593999997E+02  0.45594000000E+02  0.51100000000E-03 0. -1.
         11   -1    0    0    0    0 -0.00000000000E+00 -0.00000000000E+00 -0.45593999997E+02  0.45594000000E+02  0.51100000000E-03 0.  1.
    9900012    2    1    2    0    0 -0.26197803428E+02  0.25933015345E+02  0.17155756154E+02  0.50528853938E+02  0.29999982029E+02 0.  0.
        -12    1    1    2    0    0  0.26197803428E+02 -0.25933015345E+02 -0.17155756154E+02  0.40659146062E+02  0.00000000000E+00 0.  1.
         11    1    3    3    0    0 -0.18708305719E+01  0.35549966532E+01  0.13143967141E+02  0.13744158057E+02  0.51100000000E-03 0. -1.
        -11    1    3    3    0    0  0.54224038704E+00  0.76152419827E+01  0.49099837579E+00  0.76502950766E+01  0.51100000000E-03 0.  1.
         12    1    3    3    0    0 -0.24869213243E+02  0.14762776709E+02  0.35207906368E+01  0.29134400804E+02  0.00000000000E+00 0. -1.
</event>
<event>
 7    1  0.5041278E-013  0.5052885E+02  0.7816164E-02  0.1300439E+00
        -11   -1    0    0    0    0  0.00000000000E+00  0.00000000000E+00  0.45593999997E+02  0.45594000000E+02  0.51100000000E-03 0. -1.
         11   -1    0    0    0    0 -0.00000000000E+00 -0.00000000000E+00 -0.45593999997E+02  0.45594000000E+02  0.51100000000E-03 0.  1.
    9900012    2    1    2    0    0 -0.12473278777E+02  0.26391308162E+02  0.28303409548E+02  0.50528845778E+02  0.29999957227E+02 0.  0.
        -12    1    1    2    0    0  0.12473278777E+02 -0.26391308162E+02 -0.28303409548E+02  0.40659154222E+02  0.00000000000E+00 0.  1.
         11    1    3    3    0    0 -0.66054428948E+01  0.12279504785E+01 -0.67476293653E+00  0.67524101990E+01  0.51100000000E-03 0. -1.
        -11    1    3    3    0    0 -0.13035584436E+02  0.11798658783E+02  0.14186035747E+02  0.22591556413E+02  0.51100000000E-03 0.  1.
        -12    1    3    3    0    0  0.71677485535E+01  0.13364698900E+02  0.14792136738E+02  0.21184879166E+02  0.00000000000E+00 0.  1.
</event>
<event>
 7    1  0.5041278E-013  0.5052885E+02  0.7816164E-02  0.1300439E+00
        -11   -1    0    0    0    0  0.00000000000E+00  0.00000000000E+00  0.45593999997E+02  0.45594000000E+02  0.51100000000E-03 0. -1.
         11   -1    0    0    0    0 -0.00000000000E+00 -0.00000000000E+00 -0.45593999997E+02  0.45594000000E+02  0.51100000000E-03 0.  1.
    9900012    2    1    2    0    0  0.14735036588E+02 -0.23095876974E+02  0.30043724493E+02  0.50528853208E+02  0.29999979811E+02 0.  0.
        -12    1    1    2    0    0 -0.14735036588E+02  0.23095876974E+02 -0.30043724493E+02  0.40659146792E+02  0.00000000000E+00 0.  1.
         11    1    3    3    0    0  0.53721046270E+01  0.24321050984E+01 -0.33636278230E+01  0.67888611509E+01  0.51100000000E-03 0. -1.
        -11    1    3    3    0    0  0.33137970818E+01 -0.29327101938E+01  0.84245407754E+01  0.95160352940E+01  0.51100000000E-03 0.  1.
         12    1    3    3    0    0  0.60491348790E+01 -0.22595271878E+02  0.24982811541E+02  0.34223956763E+02  0.00000000000E+00 0. -1.
</event>
<event>
 7    1  0.5041278E-013  0.5052886E+02  0.7816164E-02  0.1300439E+00
        -11   -1    0    0    0    0  0.00000000000E+00  0.00000000000E+00  0.45593999997E+02  0.45594000000E+02  0.51100000000E-03 0.  1.
         11   -1    0    0    0    0 -0.00000000000E+00 -0.00000000000E+00 -0.45593999997E+02  0.45594000000E+02  0.51100000000E-03 0. -1.
    9900012    2    1    2    0    0 -0.16875222044E+02  0.52925346018E+00 -0.36987999804E+02  0.50528863785E+02  0.30000011960E+02 0.  0.
        -12    1    1    2    0    0  0.16875222044E+02 -0.52925346018E+00  0.36987999804E+02  0.40659136215E+02  0.00000000000E+00 0.  1.
         11    1    3    3    0    0  0.52848620812E+01  0.23332621485E+01 -0.64574114174E+01  0.86644123831E+01  0.51100000000E-03 0. -1.
        -11    1    3    3    0    0  0.17039741303E+01  0.22706709505E+01  0.76838109497E-01  0.28399610487E+01  0.51100000000E-03 0.  1.
         12    1    3    3    0    0 -0.23864058255E+02 -0.40746796388E+01 -0.30607426496E+02  0.39024490353E+02  0.00000000000E+00 0. -1.
</event>
<event>
 7    1  0.5041278E-013  0.5052886E+02  0.7816164E-02  0.1300439E+00
        -11   -1    0    0    0    0  0.00000000000E+00  0.00000000000E+00  0.45593999997E+02  0.45594000000E+02  0.51100000000E-03 0.  1.
         11   -1    0    0    0    0 -0.00000000000E+00 -0.00000000000E+00 -0.45593999997E+02  0.45594000000E+02  0.51100000000E-03 0. -1.
    9900012    2    1    2    0    0  0.33884593601E+02  0.15893012743E+02  0.15887486312E+02  0.50528858852E+02  0.29999996968E+02 0.  0.
        -12    1    1    2    0    0 -0.33884593601E+02 -0.15893012743E+02 -0.15887486312E+02  0.40659141148E+02  0.00000000000E+00 0.  1.
         11    1    3    3    0    0  0.55751948168E+01 -0.40979809004E+01  0.81492874916E+01  0.10690515964E+02  0.51100000000E-03 0.  1.
        -11    1    3    3    0    0  0.16040817017E+02  0.10203925647E+01  0.37839551704E+00  0.16077692465E+02  0.51100000000E-03 0. -1.
         12    1    3    3    0    0  0.12268581767E+02  0.18970601079E+02  0.73598033029E+01  0.23760650423E+02  0.00000000000E+00 0. -1.
</event>
<event>
 7    1  0.5041278E-013  0.5052886E+02  0.7816164E-02  0.1300439E+00
        -11   -1    0    0    0    0  0.00000000000E+00  0.00000000000E+00  0.45593999997E+02  0.45594000000E+02  0.51100000000E-03 0. -1.
         11   -1    0    0    0    0 -0.00000000000E+00 -0.00000000000E+00 -0.45593999997E+02  0.45594000000E+02  0.51100000000E-03 0.  1.
    9900012    2    1    2    0    0  0.11859149018E+02  0.33183999158E+02  0.20281732368E+02  0.50528857321E+02  0.29999992313E+02 0.  0.
        -12    1    1    2    0    0 -0.11859149018E+02 -0.33183999158E+02 -0.20281732368E+02  0.40659142679E+02  0.00000000000E+00 0.  1.
         11    1    3    3    0    0  0.37806330037E+01  0.13667789450E+02 -0.21425986903E+01  0.14341979772E+02  0.51100000000E-03 0. -1.
        -11    1    3    3    0    0 -0.31696849892E+00  0.11468986707E+00  0.13062090229E+02  0.13066438849E+02  0.51100000000E-03 0.  1.
         12    1    3    3    0    0  0.83954845128E+01  0.19401519841E+02  0.93622408294E+01  0.23120438700E+02  0.00000000000E+00 0. -1.
</event>
<event>
 7    1  0.5041278E-013  0.5052886E+02  0.7816164E-02  0.1300439E+00
        -11   -1    0    0    0    0  0.00000000000E+00  0.00000000000E+00  0.45593999997E+02  0.45594000000E+02  0.51100000000E-03 0.  1.
         11   -1    0    0    0    0 -0.00000000000E+00 -0.00000000000E+00 -0.45593999997E+02  0.45594000000E+02  0.51100000000E-03 0. -1.
    9900012    2    1    2    0    0  0.27061059596E+00 -0.31396867253E+02 -0.25832710356E+02  0.50528862924E+02  0.30000009344E+02 0.  0.
        -12    1    1    2    0    0 -0.27061059596E+00  0.31396867253E+02  0.25832710356E+02  0.40659137076E+02  0.00000000000E+00 0.  1.
         11    1    3    3    0    0  0.11937583356E+02 -0.16945909614E+02 -0.71386466653E+01  0.21923275885E+02  0.51100000000E-03 0.  1.
        -11    1    3    3    0    0 -0.73376983301E+01 -0.11899990542E+02 -0.65016248733E+01  0.15418259238E+02  0.51100000000E-03 0. -1.
        -12    1    3    3    0    0 -0.43292744299E+01 -0.25509670965E+01 -0.12192438818E+02  0.13187327801E+02  0.00000000000E+00 0.  1.
</event>
<event>
 7    1  0.5041278E-013  0.5052893E+02  0.7816164E-02  0.1300439E+00
        -11   -1    0    0    0    0  0.00000000000E+00  0.00000000000E+00  0.45593999997E+02  0.45594000000E+02  0.51100000000E-03 0.  1.
         11   -1    0    0    0    0 -0.00000000000E+00 -0.00000000000E+00 -0.45593999997E+02  0.45594000000E+02  0.51100000000E-03 0. -1.
    9900012    2    1    2    0    0 -0.28679995304E+02  0.29957113476E+01 -0.28664327834E+02  0.50528928352E+02  0.30000208217E+02 0.  0.
        -12    1    1    2    0    0  0.28679995304E+02 -0.29957113476E+01  0.28664327834E+02  0.40659071648E+02  0.00000000000E+00 0.  1.
         11    1    3    3    0    0 -0.14698045138E+01 -0.93963127616E+01 -0.40020196137E+01  0.10318293467E+02  0.51100000000E-03 0. -1.
        -11    1    3    3    0    0 -0.67416179534E+00  0.36978530249E+01 -0.20651364330E+01  0.42887527170E+01  0.51100000000E-03 0.  1.
         12    1    3    3    0    0 -0.26536028995E+02  0.86941710844E+01 -0.22597171787E+02  0.35921882168E+02  0.00000000000E+00 0. -1.
</event>
<event>
 7    1  0.5041278E-013  0.5052885E+02  0.7816164E-02  0.1300439E+00
        -11   -1    0    0    0    0  0.00000000000E+00  0.00000000000E+00  0.45593999997E+02  0.45594000000E+02  0.51100000000E-03 0. -1.
         11   -1    0    0    0    0 -0.00000000000E+00 -0.00000000000E+00 -0.45593999997E+02  0.45594000000E+02  0.51100000000E-03 0.  1.
    9900012    2    1    2    0    0 -0.94091893379E+01  0.37490322265E+02  0.12613856862E+02  0.50528849831E+02  0.29999969547E+02 0.  0.
        -12    1    1    2    0    0  0.94091893379E+01 -0.37490322265E+02 -0.12613856862E+02  0.40659150169E+02  0.00000000000E+00 0.  1.
         11    1    3    3    0    0 -0.75814009188E+01  0.91313012520E+01  0.66386977352E+01  0.13598919454E+02  0.51100000000E-03 0. -1.
        -11    1    3    3    0    0 -0.42487414977E+01  0.24226463975E+02 -0.48705233117E+01  0.25073798249E+02  0.51100000000E-03 0.  1.
         12    1    3    3    0    0  0.24209530786E+01  0.41325570374E+01  0.10845682438E+02  0.11856132127E+02  0.00000000000E+00 0. -1.
</event>
<event>
 7    1  0.5041278E-013  0.5052887E+02  0.7816164E-02  0.1300439E+00
        -11   -1    0    0    0    0  0.00000000000E+00  0.00000000000E+00  0.45593999997E+02  0.45594000000E+02  0.51100000000E-03 0.  1.
         11   -1    0    0    0    0 -0.00000000000E+00 -0.00000000000E+00 -0.45593999997E+02  0.45594000000E+02  0.51100000000E-03 0. -1.
    9900012    2    1    2    0    0 -0.77238010811E+01 -0.18728587254E+02 -0.35252630987E+02  0.50528867260E+02  0.30000022522E+02 0.  0.
        -12    1    1    2    0    0  0.77238010811E+01  0.18728587254E+02  0.35252630987E+02  0.40659132740E+02  0.00000000000E+00 0.  1.
         11    1    3    3    0    0  0.27606078255E+01  0.37663692336E+01  0.93398251055E+00  0.47622280879E+01  0.51100000000E-03 0.  1.
        -11    1    3    3    0    0 -0.43387757319E+01 -0.36268119841E+01 -0.17935769732E+02  0.18806131345E+02  0.51100000000E-03 0. -1.
        -12    1    3    3    0    0 -0.61456331747E+01 -0.18868144503E+02 -0.18250843766E+02  0.26960507827E+02  0.00000000000E+00 0.  1.
</event>
<event>
 7    1  0.5041278E-013  0.5052880E+02  0.7816164E-02  0.1300439E+00
        -11   -1    0    0    0    0  0.00000000000E+00  0.00000000000E+00  0.45593999997E+02  0.45594000000E+02  0.51100000000E-03 0. -1.
         11   -1    0    0    0    0 -0.00000000000E+00 -0.00000000000E+00 -0.45593999997E+02  0.45594000000E+02  0.51100000000E-03 0.  1.
    9900012    2    1    2    0    0 -0.19480780858E+02 -0.34188539387E+02  0.10237857565E+02  0.50528797158E+02  0.29999809441E+02 0.  0.
        -12    1    1    2    0    0  0.19480780858E+02  0.34188539387E+02 -0.10237857565E+02  0.40659202842E+02  0.00000000000E+00 0.  1.
         11    1    3    3    0    0 -0.10709912740E+02 -0.96086713391E+01 -0.82454008049E+00  0.14412101249E+02  0.51100000000E-03 0. -1.
        -11    1    3    3    0    0 -0.87248703687E+00  0.43237636241E+01  0.11862045000E+01  0.45676303357E+01  0.51100000000E-03 0.  1.
        -12    1    3    3    0    0 -0.78983810810E+01 -0.28903631672E+02  0.98761931452E+01  0.31549065574E+02  0.00000000000E+00 0.  1.
</event>
<event>
 7    1  0.5041278E-013  0.5052885E+02  0.7816164E-02  0.1300439E+00
        -11   -1    0    0    0    0  0.00000000000E+00  0.00000000000E+00  0.45593999997E+02  0.45594000000E+02  0.51100000000E-03 0. -1.
         11   -1    0    0    0    0 -0.00000000000E+00 -0.00000000000E+00 -0.45593999997E+02  0.45594000000E+02  0.51100000000E-03 0.  1.
    9900012    2    1    2    0    0  0.39585811281E+02 -0.10792739980E+01  0.92176450999E+01  0.50528852587E+02  0.29999977923E+02 0.  0.
        -12    1    1    2    0    0 -0.39585811281E+02  0.10792739980E+01 -0.92176450999E+01  0.40659147413E+02  0.00000000000E+00 0.  1.
         11    1    3    3    0    0 -0.46787889121E+00  0.35442110005E+01  0.21580110651E+01  0.41758058253E+01  0.51100000000E-03 0. -1.
        -11    1    3    3    0    0  0.17589905653E+01  0.36149980359E+01  0.59320021664E+01  0.71659548262E+01  0.51100000000E-03 0.  1.
         12    1    3    3    0    0  0.38294699607E+02 -0.82384830344E+01  0.11276318684E+01  0.39187091935E+02  0.00000000000E+00 0. -1.
</event>
<event>
 7    1  0.5041278E-013  0.5052885E+02  0.7816164E-02  0.1300439E+00
        -11   -1    0    0    0    0  0.00000000000E+00  0.00000000000E+00  0.45593999997E+02  0.45594000000E+02  0.51100000000E-03 0.  1.
         11   -1    0    0    0    0 -0.00000000000E+00 -0.00000000000E+00 -0.45593999997E+02  0.45594000000E+02  0.51100000000E-03 0. -1.
    9900012    2    1    2    0    0  0.13075229209E+00  0.39367168376E+02 -0.10167359079E+02  0.50528853025E+02  0.29999979256E+02 0.  0.
        -12    1    1    2    0    0 -0.13075229209E+00 -0.39367168376E+02  0.10167359079E+02  0.40659146975E+02  0.00000000000E+00 0.  1.
         11    1    3    3    0    0  0.22477898704E+01  0.20288521780E+01 -0.91311315916E+01  0.96201021235E+01  0.51100000000E-03 0. -1.
        -11    1    3    3    0    0 -0.38685542762E+01  0.16117871475E+01 -0.28909122755E+01  0.50912615374E+01  0.51100000000E-03 0.  1.
        -12    1    3    3    0    0  0.17515166979E+01  0.35726529050E+02  0.18546847885E+01  0.35817489364E+02  0.00000000000E+00 0.  1.
</event>
<event>
 7    1  0.5041278E-013  0.5052886E+02  0.7816164E-02  0.1300439E+00
        -11   -1    0    0    0    0  0.00000000000E+00  0.00000000000E+00  0.45593999997E+02  0.45594000000E+02  0.51100000000E-03 0.  1.
         11   -1    0    0    0    0 -0.00000000000E+00 -0.00000000000E+00 -0.45593999997E+02  0.45594000000E+02  0.51100000000E-03 0. -1.
    9900012    2    1    2    0    0  0.56973865977E+01  0.35804970631E+02 -0.18404053009E+02  0.50528864457E+02  0.30000014005E+02 0.  0.
        -12    1    1    2    0    0 -0.56973865977E+01 -0.35804970631E+02  0.18404053009E+02  0.40659135543E+02  0.00000000000E+00 0.  1.
         11    1    3    3    0    0  0.80799393334E+01  0.18079666944E+00  0.95532278138E+00  0.81382276292E+01  0.51100000000E-03 0. -1.
        -11    1    3    3    0    0  0.22447269738E+01  0.99547029191E+01 -0.52494445662E+00  0.10218144466E+02  0.51100000000E-03 0.  1.
         12    1    3    3    0    0 -0.46272797095E+01  0.25669471042E+02 -0.18834431334E+02  0.32172492362E+02  0.00000000000E+00 0. -1.
</event>
<event>
 7    1  0.5041278E-013  0.5052886E+02  0.7816164E-02  0.1300439E+00
        -11   -1    0    0    0    0  0.00000000000E+00  0.00000000000E+00  0.45593999997E+02  0.45594000000E+02  0.51100000000E-03 0.  1.
         11   -1    0    0    0    0 -0.00000000000E+00 -0.00000000000E+00 -0.45593999997E+02  0.45594000000E+02  0.51100000000E-03 0. -1.
    9900012    2    1    2    0    0 -0.32491423365E+02  0.23378269334E+02 -0.71364938822E+01  0.50528860630E+02  0.30000002372E+02 0.  0.
        -12    1    1    2    0    0  0.32491423365E+02 -0.23378269334E+02  0.71364938822E+01  0.40659139370E+02  0.00000000000E+00 0.  1.
         11    1    3    3    0    0 -0.22998021397E+02  0.94610482973E+01 -0.10554796886E+02  0.27015257923E+02  0.51100000000E-03 0. -1.
        -11    1    3    3    0    0 -0.61809997182E+00  0.47758007528E+00 -0.51922117820E+01  0.52506374616E+01  0.51100000000E-03 0.  1.
        -12    1    3    3    0    0 -0.88753019962E+01  0.13439640962E+02  0.86105147859E+01  0.18262965246E+02  0.00000000000E+00 0.  1.
</event>
<event>
 7    1  0.5041278E-013  0.5052886E+02  0.7816164E-02  0.1300439E+00
        -11   -1    0    0    0    0  0.00000000000E+00  0.00000000000E+00  0.45593999997E+02  0.45594000000E+02  0.51100000000E-03 0. -1.
         11   -1    0    0    0    0 -0.00000000000E+00 -0.00000000000E+00 -0.45593999997E+02  0.45594000000E+02  0.51100000000E-03 0.  1.
    9900012    2    1    2    0    0  0.35139790728E+02 -0.19590423015E+02 -0.58801539254E+01  0.50528858636E+02  0.29999996309E+02 0.  0.
        -12    1    1    2    0    0 -0.35139790728E+02  0.19590423015E+02  0.58801539254E+01  0.40659141364E+02  0.00000000000E+00 0.  1.
         11    1    3    3    0    0  0.80276577162E-01  0.43079522910E+01 -0.15898729603E+01  0.45926673689E+01  0.51100000000E-03 0. -1.
        -11    1    3    3    0    0  0.11648293090E+02 -0.13973305521E+02 -0.86391793584E+01  0.20138803821E+02  0.51100000000E-03 0.  1.
         12    1    3    3    0    0  0.23411221061E+02 -0.99250697850E+01  0.43488983933E+01  0.25797387446E+02  0.00000000000E+00 0. -1.
</event>
<event>
 7    1  0.5775858E-013  0.5052887E+02  0.7816164E-02  0.1300439E+00
        -11   -1    0    0    0    0  0.00000000000E+00  0.00000000000E+00  0.45593999997E+02  0.45594000000E+02  0.51100000000E-03 0. -1.
         11   -1    0    0    0    0 -0.00000000000E+00 -0.00000000000E+00 -0.45593999997E+02  0.45594000000E+02  0.51100000000E-03 0.  1.
    9900012    2    1    2    0    0 -0.20329016763E+02 -0.32998488453E+02 -0.12288022930E+02  0.50528872240E+02  0.30000037660E+02 0.  0.
        -12    1    1    2    0    0  0.20329016763E+02  0.32998488453E+02  0.12288022930E+02  0.40659127760E+02  0.00000000000E+00 0.  1.
         11    1    3    3    0    0 -0.10218348877E+02 -0.25881138653E+02 -0.99859912100E+01  0.29562949996E+02  0.51100000000E-03 0. -1.
        -11    1    3    3    0    0  0.33737199603E+00 -0.93564586175E+01  0.17748992797E+01  0.95292919694E+01  0.51100000000E-03 0.  1.
         12    1    3    3    0    0 -0.10448039881E+02  0.22391088179E+01 -0.40769309997E+01  0.11436630275E+02  0.00000000000E+00 0. -1.
</event>
<event>
 7    1  0.5041278E-013  0.5052885E+02  0.7816164E-02  0.1300439E+00
        -11   -1    0    0    0    0  0.00000000000E+00  0.00000000000E+00  0.45593999997E+02  0.45594000000E+02  0.51100000000E-03 0. -1.
         11   -1    0    0    0    0 -0.00000000000E+00 -0.00000000000E+00 -0.45593999997E+02  0.45594000000E+02  0.51100000000E-03 0.  1.
    9900012    2    1    2    0    0  0.28495653129E+02 -0.11309367375E+02  0.26706975749E+02  0.50528848615E+02  0.29999965850E+02 0.  0.
        -12    1    1    2    0    0 -0.28495653129E+02  0.11309367375E+02 -0.26706975749E+02  0.40659151385E+02  0.00000000000E+00 0.  1.
         11    1    3    3    0    0  0.11745842671E+02 -0.83541266885E+01  0.15798105073E+01  0.14500070837E+02  0.51100000000E-03 0. -1.
        -11    1    3    3    0    0  0.77565541081E+01  0.62319478828E+01  0.29215239642E+01  0.10369985949E+02  0.51100000000E-03 0.  1.
         12    1    3    3    0    0  0.89932563501E+01 -0.91871885695E+01  0.22205641278E+02  0.25658791829E+02  0.00000000000E+00 0. -1.
</event>
<event>
 7    1  0.5041278E-013  0.5052886E+02  0.7816164E-02  0.1300439E+00
        -11   -1    0    0    0    0  0.00000000000E+00  0.00000000000E+00  0.45593999997E+02  0.45594000000E+02  0.51100000000E-03 0.  1.
         11   -1    0    0    0    0 -0.00000000000E+00 -0.00000000000E+00 -0.45593999997E+02  0.45594000000E+02  0.51100000000E-03 0. -1.
    9900012    2    1    2    0    0  0.26540503073E+02 -0.23723414903E+02 -0.19646032537E+02  0.50528864342E+02  0.30000013654E+02 0.  0.
        -12    1    1    2    0    0 -0.26540503073E+02  0.23723414903E+02  0.19646032537E+02  0.40659135658E+02  0.00000000000E+00 0.  1.
         11    1    3    3    0    0  0.38133154344E+01  0.31606042573E+01 -0.53646414060E+01  0.73013814823E+01  0.51100000000E-03 0. -1.
        -11    1    3    3    0    0  0.27696512829E+01 -0.43741456212E+00 -0.93119131695E+01  0.97249178333E+01  0.51100000000E-03 0.  1.
        -12    1    3    3    0    0  0.19957536355E+02 -0.26446604598E+02 -0.49694779618E+01  0.33502565026E+02  0.00000000000E+00 0.  1.
</event>
<event>
 7    1  0.5041278E-013  0.5052886E+02  0.7816164E-02  0.1300439E+00
        -11   -1    0    0    0    0  0.00000000000E+00  0.00000000000E+00  0.45593999997E+02  0.45594000000E+02  0.51100000000E-03 0.  1.
         11   -1    0    0    0    0 -0.00000000000E+00 -0.00000000000E+00 -0.45593999997E+02  0.45594000000E+02  0.51100000000E-03 0. -1.
    9900012    2    1    2    0    0  0.13661186589E+02 -0.37007515242E+02 -0.98479310889E+01  0.50528856500E+02  0.29999989818E+02 0.  0.
        -12    1    1    2    0    0 -0.13661186589E+02  0.37007515242E+02  0.98479310889E+01  0.40659143500E+02  0.00000000000E+00 0.  1.
         11    1    3    3    0    0 -0.37038642215E+01  0.15107390109E+00 -0.17681276754E+01  0.41070316814E+01  0.51100000000E-03 0. -1.
        -11    1    3    3    0    0  0.57016969218E+01 -0.21334553670E+01  0.43357259553E+01  0.74739212875E+01  0.51100000000E-03 0.  1.
         12    1    3    3    0    0  0.11663353888E+02 -0.35025133776E+02 -0.12415529369E+02  0.38947903531E+02  0.00000000000E+00 0. -1.
</event>
<event>
 7    1  0.5041278E-013  0.5052885E+02  0.7816164E-02  0.1300439E+00
        -11   -1    0    0    0    0  0.00000000000E+00  0.00000000000E+00  0.45593999997E+02  0.45594000000E+02  0.51100000000E-03 0.  1.
         11   -1    0    0    0    0 -0.00000000000E+00 -0.00000000000E+00 -0.45593999997E+02  0.45594000000E+02  0.51100000000E-03 0. -1.
    9900012    2    1    2    0    0  0.84271964217E+01 -0.39366084639E+01 -0.39580957124E+02  0.50528847370E+02  0.29999962067E+02 0.  0.
        -12    1    1    2    0    0 -0.84271964217E+01  0.39366084639E+01  0.39580957124E+02  0.40659152630E+02  0.00000000000E+00 0.  1.
         11    1    3    3    0    0 -0.20233516152E+01 -0.73809248404E+01 -0.13252312483E+00  0.76543821369E+01  0.51100000000E-03 0. -1.
        -11    1    3    3    0    0  0.17376518579E+01  0.35957526509E+01 -0.20788090441E+01  0.45022570349E+01  0.51100000000E-03 0.  1.
         12    1    3    3    0    0  0.87128961791E+01 -0.15143627442E+00 -0.37369624955E+02  0.38372208199E+02  0.00000000000E+00 0. -1.
</event>
<event>
 7    1  0.5041278E-013  0.5052886E+02  0.7816164E-02  0.1300439E+00
        -11   -1    0    0    0    0  0.00000000000E+00  0.00000000000E+00  0.45593999997E+02  0.45594000000E+02  0.51100000000E-03 0. -1.
         11   -1    0    0    0    0 -0.00000000000E+00 -0.00000000000E+00 -0.45593999997E+02  0.45594000000E+02  0.51100000000E-03 0.  1.
    9900012    2    1    2    0    0 -0.31016832035E+02 -0.24679167382E+02  0.90587444399E+01  0.50528855604E+02  0.29999987095E+02 0.  0.
        -12    1    1    2    0    0  0.31016832035E+02  0.24679167382E+02 -0.90587444399E+01  0.40659144396E+02  0.00000000000E+00 0.  1.
         11    1    3    3    0    0 -0.23013327767E+02 -0.15021282472E+02 -0.23808661884E+01  0.27584791210E+02  0.51100000000E-03 0.  1.
        -11    1    3    3    0    0 -0.10138023015E+02 -0.61304835185E+00  0.83573414839E+01  0.13152965288E+02  0.51100000000E-03 0. -1.
        -12    1    3    3    0    0  0.21345187466E+01 -0.90448365581E+01  0.30822691444E+01  0.97910991069E+01  0.00000000000E+00 0.  1.
</event>
<event>
 7    1  0.5041278E-013  0.5052886E+02  0.7816164E-02  0.1300439E+00
        -11   -1    0    0    0    0  0.00000000000E+00  0.00000000000E+00  0.45593999997E+02  0.45594000000E+02  0.51100000000E-03 0. -1.
         11   -1    0    0    0    0 -0.00000000000E+00 -0.00000000000E+00 -0.45593999997E+02  0.45594000000E+02  0.51100000000E-03 0.  1.
    9900012    2    1    2    0    0  0.25645270015E+02 -0.13738401022E+02  0.28403207749E+02  0.50528858996E+02  0.29999997404E+02 0.  0.
        -12    1    1    2    0    0 -0.25645270015E+02  0.13738401022E+02 -0.28403207749E+02  0.40659141004E+02  0.00000000000E+00 0.  1.
         11    1    3    3    0    0  0.15108864069E+02 -0.41145773505E+01  0.19279926026E+02  0.24837936067E+02  0.51100000000E-03 0. -1.
        -11    1    3    3    0    0  0.30726142101E+01 -0.14464969253E+02  0.77298136869E+01  0.16686111394E+02  0.51100000000E-03 0.  1.
         12    1    3    3    0    0  0.74637917349E+01  0.48411455815E+01  0.13934680355E+01  0.90048115344E+01  0.00000000000E+00 0. -1.
</event>
<event>
 7    1  0.5041278E-013  0.5052887E+02  0.7816164E-02  0.1300439E+00
        -11   -1    0    0    0    0  0.00000000000E+00  0.00000000000E+00  0.45593999997E+02  0.45594000000E+02  0.51100000000E-03 0. -1.
         11   -1    0    0    0    0 -0.00000000000E+00 -0.00000000000E+00 -0.45593999997E+02  0.45594000000E+02  0.51100000000E-03 0.  1.
    9900012    2    1    2    0    0  0.31275716364E+02 -0.68000483882E+01  0.25074970731E+02  0.50528865118E+02  0.30000016013E+02 0.  0.
        -12    1    1    2    0    0 -0.31275716364E+02  0.68000483882E+01 -0.25074970731E+02  0.40659134882E+02  0.00000000000E+00 0.  1.
         11    1    3    3    0    0  0.20821218856E+02 -0.64133935517E+01  0.82471654302E+01  0.23295289425E+02  0.51100000000E-03 0. -1.
        -11    1    3    3    0    0  0.34676307174E+01 -0.87194311254E+01  0.12259725602E+02  0.15438711541E+02  0.51100000000E-03 0.  1.
        -12    1    3    3    0    0  0.69868667910E+01  0.83327762889E+01  0.45680796981E+01  0.11794864152E+02  0.00000000000E+00 0.  1.
</event>
<event>
 7    1  0.5041278E-013  0.5052886E+02  0.7816164E-02  0.1300439E+00
        -11   -1    0    0    0    0  0.00000000000E+00  0.00000000000E+00  0.45593999997E+02  0.45594000000E+02  0.51100000000E-03 0. -1.
         11   -1    0    0    0    0 -0.00000000000E+00 -0.00000000000E+00 -0.45593999997E+02  0.45594000000E+02  0.51100000000E-03 0.  1.
    9900012    2    1    2    0    0  0.33173501602E+02 -0.20663873146E+02  0.11211087981E+02  0.50528863811E+02  0.30000012040E+02 0.  0.
        -12    1    1    2    0    0 -0.33173501602E+02  0.20663873146E+02 -0.11211087981E+02  0.40659136189E+02  0.00000000000E+00 0.  1.
         11    1    3    3    0    0  0.23996886495E+02 -0.66128641133E+01  0.58236894561E+01  0.25563565722E+02  0.51100000000E-03 0. -1.
        -11    1    3    3    0    0  0.54928807081E+01  0.31569522667E+00 -0.45272372674E+01  0.71251161034E+01  0.51100000000E-03 0.  1.
        -12    1    3    3    0    0  0.36837343980E+01 -0.14366704260E+02  0.99146357927E+01  0.17840181986E+02  0.00000000000E+00 0.  1.
</event>
<event>
 7    1  0.5041278E-013  0.5052884E+02  0.7816164E-02  0.1300439E+00
        -11   -1    0    0    0    0  0.00000000000E+00  0.00000000000E+00  0.45593999997E+02  0.45594000000E+02  0.51100000000E-03 0.  1.
         11   -1    0    0    0    0 -0.00000000000E+00 -0.00000000000E+00 -0.45593999997E+02  0.45594000000E+02  0.51100000000E-03 0. -1.
    9900012    2    1    2    0    0  0.78293140901E+01  0.36786764344E+02 -0.15446776632E+02  0.50528842380E+02  0.29999946898E+02 0.  0.
        -12    1    1    2    0    0 -0.78293140901E+01 -0.36786764344E+02  0.15446776632E+02  0.40659157620E+02  0.00000000000E+00 0.  1.
         11    1    3    3    0    0  0.58635504692E+01  0.92957643003E+01  0.21550124357E+01  0.11199845396E+02  0.51100000000E-03 0. -1.
        -11    1    3    3    0    0 -0.37241462153E+01  0.20444878791E+02 -0.14755294377E+01  0.20833615174E+02  0.51100000000E-03 0.  1.
        -12    1    3    3    0    0  0.56899098362E+01  0.70461212525E+01 -0.16126259630E+02  0.18495381811E+02  0.00000000000E+00 0.  1.
</event>
<event>
 7    1  0.5041278E-013  0.5052886E+02  0.7816164E-02  0.1300439E+00
        -11   -1    0    0    0    0  0.00000000000E+00  0.00000000000E+00  0.45593999997E+02  0.45594000000E+02  0.51100000000E-03 0.  1.
         11   -1    0    0    0    0 -0.00000000000E+00 -0.00000000000E+00 -0.45593999997E+02  0.45594000000E+02  0.51100000000E-03 0. -1.
    9900012    2    1    2    0    0 -0.27461625449E+02  0.29958157346E+02 -0.12383882976E+01  0.50528859952E+02  0.30000000310E+02 0.  0.
        -12    1    1    2    0    0  0.27461625449E+02 -0.29958157346E+02  0.12383882976E+01  0.40659140048E+02  0.00000000000E+00 0.  1.
         11    1    3    3    0    0  0.10949550123E+01  0.50136698849E+01 -0.56838312809E+01  0.76577901828E+01  0.51100000000E-03 0. -1.
        -11    1    3    3    0    0 -0.77886687476E+01  0.91148438210E+01  0.10644151237E+02  0.16032519907E+02  0.51100000000E-03 0.  1.
        -12    1    3    3    0    0 -0.20767911714E+02  0.15829643640E+02 -0.61987082535E+01  0.26838549863E+02  0.00000000000E+00 0.  1.
</event>
<event>
 7    1  0.5041278E-013  0.5052886E+02  0.7816164E-02  0.1300439E+00
        -11   -1    0    0    0    0  0.00000000000E+00  0.00000000000E+00  0.45593999997E+02  0.45594000000E+02  0.51100000000E-03 0. -1.
         11   -1    0    0    0    0 -0.00000000000E+00 -0.00000000000E+00 -0.45593999997E+02  0.45594000000E+02  0.51100000000E-03 0.  1.
    9900012    2    1    2    0    0 -0.52539412886E+01  0.29421106392E+02  0.27567374648E+02  0.50528861478E+02  0.30000004948E+02 0.  0.
        -12    1    1    2    0    0  0.52539412886E+01 -0.29421106392E+02 -0.27567374648E+02  0.40659138522E+02  0.00000000000E+00 0.  1.
         11    1    3    3    0    0 -0.21697283751E+01  0.20454751082E+01  0.72148983522E+01  0.78068206162E+01  0.51100000000E-03 0. -1.
        -11    1    3    3    0    0 -0.70179686160E+01  0.49320488004E+00  0.12663052563E+02  0.14486132507E+02  0.51100000000E-03 0.  1.
         12    1    3    3    0    0  0.39337557025E+01  0.26882426403E+02  0.76894237333E+01  0.28235908355E+02  0.00000000000E+00 0. -1.
</event>
<event>
 7    1  0.5041278E-013  0.5052887E+02  0.7816164E-02  0.1300439E+00
        -11   -1    0    0    0    0  0.00000000000E+00  0.00000000000E+00  0.45593999997E+02  0.45594000000E+02  0.51100000000E-03 0.  1.
         11   -1    0    0    0    0 -0.00000000000E+00 -0.00000000000E+00 -0.45593999997E+02  0.45594000000E+02  0.51100000000E-03 0. -1.
    9900012    2    1    2    0    0 -0.99625929640E+01 -0.38549681523E+02 -0.82361340593E+01  0.50528866852E+02  0.30000021283E+02 0.  0.
        -12    1    1    2    0    0  0.99625929640E+01  0.38549681523E+02  0.82361340593E+01  0.40659133148E+02  0.00000000000E+00 0.  1.
         11    1    3    3    0    0 -0.69663120971E-01 -0.86535042964E+01 -0.97713876696E+01  0.13052509598E+02  0.51100000000E-03 0.  1.
        -11    1    3    3    0    0 -0.12486631223E+02 -0.20854777695E+02 -0.64383719501E+01  0.25145384181E+02  0.51100000000E-03 0. -1.
         12    1    3    3    0    0  0.25937013795E+01 -0.90413995320E+01  0.79736255605E+01  0.12330973073E+02  0.00000000000E+00 0. -1.
</event>
<event>
 7    1  0.5041278E-013  0.5052883E+02  0.7816164E-02  0.1300439E+00
        -11   -1    0    0    0    0  0.00000000000E+00  0.00000000000E+00  0.45593999997E+02  0.45594000000E+02  0.51100000000E-03 0.  1.
         11   -1    0    0    0    0 -0.00000000000E+00 -0.00000000000E+00 -0.45593999997E+02  0.45594000000E+02  0.51100000000E-03 0. -1.
    9900012    2    1    2    0    0 -0.52442489566E+01  0.40235868199E+02  0.25962631867E+01  0.50528833513E+02  0.29999919946E+02 0.  0.
        -12    1    1    2    0    0  0.52442489566E+01 -0.40235868199E+02 -0.25962631867E+01  0.40659166487E+02  0.00000000000E+00 0.  1.
         11    1    3    3    0    0 -0.81311801807E+01  0.23331695070E+02  0.14020302404E+02  0.28408677649E+02  0.51100000000E-03 0.  1.
        -11    1    3    3    0    0 -0.17820500108E+01  0.91218907522E+01 -0.30785918348E+01  0.97909305524E+01  0.51100000000E-03 0. -1.
        -12    1    3    3    0    0  0.46689812349E+01  0.77822823771E+01 -0.83454473830E+01  0.12329225312E+02  0.00000000000E+00 0.  1.
</event>
<event>
 7    1  0.5041278E-013  0.5052885E+02  0.7816164E-02  0.1300439E+00
        -11   -1    0    0    0    0  0.00000000000E+00  0.00000000000E+00  0.45593999997E+02  0.45594000000E+02  0.51100000000E-03 0.  1.
         11   -1    0    0    0    0 -0.00000000000E+00 -0.00000000000E+00 -0.45593999997E+02  0.45594000000E+02  0.51100000000E-03 0. -1.
    9900012    2    1    2    0    0  0.14439074630E+02 -0.20004338749E+02 -0.32318814803E+02  0.50528852995E+02  0.29999979163E+02 0.  0.
        -12    1    1    2    0    0 -0.14439074630E+02  0.20004338749E+02  0.32318814803E+02  0.40659147005E+02  0.00000000000E+00 0.  1.
         11    1    3    3    0    0 -0.17890138172E+01 -0.75636669534E+01 -0.20302911975E+01  0.80331631894E+01  0.51100000000E-03 0.  1.
        -11    1    3    3    0    0  0.21057155581E+02 -0.74201287399E+01 -0.26184438223E+02  0.34410564032E+02  0.51100000000E-03 0. -1.
         12    1    3    3    0    0 -0.48290671337E+01 -0.50205430554E+01 -0.41040853824E+01  0.80851257739E+01  0.00000000000E+00 0. -1.
</event>
<event>
 7    1  0.5041278E-013  0.5052887E+02  0.7816164E-02  0.1300439E+00
        -11   -1    0    0    0    0  0.00000000000E+00  0.00000000000E+00  0.45593999997E+02  0.45594000000E+02  0.51100000000E-03 0. -1.
         11   -1    0    0    0    0 -0.00000000000E+00 -0.00000000000E+00 -0.45593999997E+02  0.45594000000E+02  0.51100000000E-03 0.  1.
    9900012    2    1    2    0    0 -0.27398873350E+02  0.28229077544E+02  0.10275496185E+02  0.50528869393E+02  0.30000029008E+02 0.  0.
        -12    1    1    2    0    0  0.27398873350E+02 -0.28229077544E+02 -0.10275496185E+02  0.40659130607E+02  0.00000000000E+00 0.  1.
         11    1    3    3    0    0 -0.27363457643E+02  0.16933264842E+02  0.98222357359E+01  0.33644770582E+02  0.51100000000E-03 0. -1.
        -11    1    3    3    0    0 -0.47039822147E+01  0.10572507643E+02 -0.16933889898E+01  0.11694996070E+02  0.51100000000E-03 0.  1.
         12    1    3    3    0    0  0.46685665078E+01  0.72330505900E+00  0.21466494391E+01  0.51891027414E+01  0.00000000000E+00 0. -1.
</event>
<event>
 7    1  0.5041278E-013  0.5052886E+02  0.7816164E-02  0.1300439E+00
        -11   -1    0    0    0    0  0.00000000000E+00  0.00000000000E+00  0.45593999997E+02  0.45594000000E+02  0.51100000000E-03 0. -1.
         11   -1    0    0    0    0 -0.00000000000E+00 -0.00000000000E+00 -0.45593999997E+02  0.45594000000E+02  0.51100000000E-03 0.  1.
    9900012    2    1    2    0    0 -0.71528089570E+01 -0.17561693359E+02  0.35966508303E+02  0.50528862416E+02  0.30000007799E+02 0.  0.
        -12    1    1    2    0    0  0.71528089570E+01  0.17561693359E+02 -0.35966508303E+02  0.40659137584E+02  0.00000000000E+00 0.  1.
         11    1    3    3    0    0 -0.50522480107E+01 -0.19854448393E+02  0.22818927503E+02  0.30666395021E+02  0.51100000000E-03 0. -1.
        -11    1    3    3    0    0 -0.31079965686E+00 -0.32310669939E+01 -0.18806914502E+01  0.37514518440E+01  0.51100000000E-03 0.  1.
        -12    1    3    3    0    0 -0.17897612894E+01  0.55238220275E+01  0.15028272250E+02  0.16111015551E+02  0.00000000000E+00 0.  1.
</event>
<event>
 7    1  0.5041278E-013  0.5052885E+02  0.7816164E-02  0.1300439E+00
        -11   -1    0    0    0    0  0.00000000000E+00  0.00000000000E+00  0.45593999997E+02  0.45594000000E+02  0.51100000000E-03 0.  1.
         11   -1    0    0    0    0 -0.00000000000E+00 -0.00000000000E+00 -0.45593999997E+02  0.45594000000E+02  0.51100000000E-03 0. -1.
    9900012    2    1    2    0    0  0.33643658347E+01 -0.18923646181E+02 -0.35829357416E+02  0.50528853488E+02  0.29999980661E+02 0.  0.
        -12    1    1    2    0    0 -0.33643658347E+01  0.18923646181E+02  0.35829357416E+02  0.40659146512E+02  0.00000000000E+00 0.  1.
         11    1    3    3    0    0  0.22067322465E+01 -0.17646490031E+01 -0.26796454970E+02  0.26945011644E+02  0.51100000000E-03 0. -1.
        -11    1    3    3    0    0 -0.40479366790E+01 -0.34147317230E+01  0.14976943257E+01  0.55035690830E+01  0.51100000000E-03 0.  1.
        -12    1    3    3    0    0  0.52055702671E+01 -0.13744265455E+02 -0.10530596772E+02  0.18080272760E+02  0.00000000000E+00 0.  1.
</event>
<event>
 7    1  0.5041278E-013  0.5052885E+02  0.7816164E-02  0.1300439E+00
        -11   -1    0    0    0    0  0.00000000000E+00  0.00000000000E+00  0.45593999997E+02  0.45594000000E+02  0.51100000000E-03 0. -1.
         11   -1    0    0    0    0 -0.00000000000E+00 -0.00000000000E+00 -0.45593999997E+02  0.45594000000E+02  0.51100000000E-03 0.  1.
    9900012    2    1    2    0    0 -0.40545950362E+02 -0.14925407751E+01  0.26390427471E+01  0.50528852009E+02  0.29999976167E+02 0.  0.
        -12    1    1    2    0    0  0.40545950362E+02  0.14925407751E+01 -0.26390427471E+01  0.40659147991E+02  0.00000000000E+00 0.  1.
         11    1    3    3    0    0 -0.22875496992E+02 -0.27148441368E+01  0.10368323490E+02  0.25261846203E+02  0.51100000000E-03 0. -1.
        -11    1    3    3    0    0 -0.14752120442E+02 -0.62532834281E+01 -0.54560275818E+01  0.16926217782E+02  0.51100000000E-03 0.  1.
         12    1    3    3    0    0 -0.29183329281E+01  0.74755867898E+01 -0.22732531613E+01  0.83407880243E+01  0.00000000000E+00 0. -1.
</event>
<event>
 7    1  0.5041278E-013  0.5052884E+02  0.7816164E-02  0.1300439E+00
        -11   -1    0    0    0    0  0.00000000000E+00  0.00000000000E+00  0.45593999997E+02  0.45594000000E+02  0.51100000000E-03 0. -1.
         11   -1    0    0    0    0 -0.00000000000E+00 -0.00000000000E+00 -0.45593999997E+02  0.45594000000E+02  0.51100000000E-03 0.  1.
    9900012    2    1    2    0    0 -0.19666580337E+02  0.27046339286E+02  0.23127648210E+02  0.50528844049E+02  0.29999951973E+02 0.  0.
        -12    1    1    2    0    0  0.19666580337E+02 -0.27046339286E+02 -0.23127648210E+02  0.40659155951E+02  0.00000000000E+00 0.  1.
         11    1    3    3    0    0 -0.77445234337E+01  0.23439069455E+01  0.17218703285E+02  0.19025122498E+02  0.51100000000E-03 0. -1.
        -11    1    3    3    0    0 -0.51400139112E+01  0.21971332846E+01 -0.30276732789E+01  0.63571961920E+01  0.51100000000E-03 0.  1.
         12    1    3    3    0    0 -0.67820429916E+01  0.22505299056E+02  0.89366182033E+01  0.25146525359E+02  0.00000000000E+00 0. -1.
</event>
<event>
 7    1  0.5041278E-013  0.5052886E+02  0.7816164E-02  0.1300439E+00
        -11   -1    0    0    0    0  0.00000000000E+00  0.00000000000E+00  0.45593999997E+02  0.45594000000E+02  0.51100000000E-03 0.  1.
         11   -1    0    0    0    0 -0.00000000000E+00 -0.00000000000E+00 -0.45593999997E+02  0.45594000000E+02  0.51100000000E-03 0. -1.
    9900012    2    1    2    0    0 -0.68072197346E+01  0.12315359811E+02 -0.38146548952E+02  0.50528861732E+02  0.30000005720E+02 0.  0.
        -12    1    1    2    0    0  0.68072197346E+01 -0.12315359811E+02  0.38146548952E+02  0.40659138268E+02  0.00000000000E+00 0.  1.
         11    1    3    3    0    0 -0.93049722569E+00 -0.27381740578E+00 -0.66070375111E+01  0.66778548946E+01  0.51100000000E-03 0. -1.
        -11    1    3    3    0    0  0.36603862011E+01  0.18633898880E+02 -0.22061714326E+02  0.29109102595E+02  0.51100000000E-03 0.  1.
        -12    1    3    3    0    0 -0.95371087100E+01 -0.60447216638E+01 -0.94777971149E+01  0.14741904242E+02  0.00000000000E+00 0.  1.
</event>
<event>
 7    1  0.5041278E-013  0.5052885E+02  0.7816164E-02  0.1300439E+00
        -11   -1    0    0    0    0  0.00000000000E+00  0.00000000000E+00  0.45593999997E+02  0.45594000000E+02  0.51100000000E-03 0.  1.
         11   -1    0    0    0    0 -0.00000000000E+00 -0.00000000000E+00 -0.45593999997E+02  0.45594000000E+02  0.51100000000E-03 0. -1.
    9900012    2    1    2    0    0 -0.99400485822E+01  0.38158103105E+02 -0.99156927722E+01  0.50528851441E+02  0.29999974440E+02 0.  0.
        -12    1    1    2    0    0  0.99400485822E+01 -0.38158103105E+02  0.99156927722E+01  0.40659148559E+02  0.00000000000E+00 0.  1.
         11    1    3    3    0    0 -0.13197997919E+02  0.20302584357E+02 -0.51942968445E+01  0.24766162412E+02  0.51100000000E-03 0. -1.
        -11    1    3    3    0    0  0.38486164942E+01  0.84351070273E+01  0.63320172469E+01  0.11227525202E+02  0.51100000000E-03 0.  1.
         12    1    3    3    0    0 -0.59066715708E+00  0.94204117206E+01 -0.11053413175E+02  0.14535163827E+02  0.00000000000E+00 0. -1.
</event>
<event>
 7    1  0.5041278E-013  0.5052887E+02  0.7816164E-02  0.1300439E+00
        -11   -1    0    0    0    0  0.00000000000E+00  0.00000000000E+00  0.45593999997E+02  0.45594000000E+02  0.51100000000E-03 0.  1.
         11   -1    0    0    0    0 -0.00000000000E+00 -0.00000000000E+00 -0.45593999997E+02  0.45594000000E+02  0.51100000000E-03 0. -1.
    9900012    2    1    2    0    0  0.75117935696E+01 -0.15273462716E+02 -0.36925043249E+02  0.50528874026E+02  0.30000043091E+02 0.  0.
        -12    1    1    2    0    0 -0.75117935696E+01  0.15273462716E+02  0.36925043249E+02  0.40659125974E+02  0.00000000000E+00 0.  1.
         11    1    3    3    0    0  0.88970034343E+01  0.22148831406E+01 -0.14572571764E+02  0.17216916841E+02  0.51100000000E-03 0. -1.
        -11    1    3    3    0    0 -0.77687291150E+01 -0.22341734815E+01 -0.61079817886E+01  0.10131738498E+02  0.51100000000E-03 0.  1.
        -12    1    3    3    0    0  0.63835192503E+01 -0.15254172375E+02 -0.16244489697E+02  0.23180218687E+02  0.00000000000E+00 0.  1.
</event>
<event>
 7    1  0.5041278E-013  0.5052887E+02  0.7816164E-02  0.1300439E+00
        -11   -1    0    0    0    0  0.00000000000E+00  0.00000000000E+00  0.45593999997E+02  0.45594000000E+02  0.51100000000E-03 0. -1.
         11   -1    0    0    0    0 -0.00000000000E+00 -0.00000000000E+00 -0.45593999997E+02  0.45594000000E+02  0.51100000000E-03 0.  1.
    9900012    2    1    2    0    0 -0.12409251779E+02  0.35478910575E+02 -0.15505544231E+02  0.50528873998E+02  0.30000043005E+02 0.  0.
        -12    1    1    2    0    0  0.12409251779E+02 -0.35478910575E+02  0.15505544231E+02  0.40659126002E+02  0.00000000000E+00 0.  1.
         11    1    3    3    0    0 -0.59587822032E+01  0.19753124154E+02 -0.35218096775E+01  0.20930746352E+02  0.51100000000E-03 0. -1.
        -11    1    3    3    0    0  0.59953367758E+01  0.32529686568E+01  0.19946988166E+01  0.71066653057E+01  0.51100000000E-03 0.  1.
         12    1    3    3    0    0 -0.12445806352E+02  0.12472817764E+02 -0.13978433370E+02  0.22491462341E+02  0.00000000000E+00 0. -1.
</event>
<event>
 7    1  0.5041278E-013  0.5052885E+02  0.7816164E-02  0.1300439E+00
        -11   -1    0    0    0    0  0.00000000000E+00  0.00000000000E+00  0.45593999997E+02  0.45594000000E+02  0.51100000000E-03 0.  1.
         11   -1    0    0    0    0 -0.00000000000E+00 -0.00000000000E+00 -0.45593999997E+02  0.45594000000E+02  0.51100000000E-03 0. -1.
    9900012    2    1    2    0    0 -0.12715027769E+02 -0.33224344368E+02  0.19688506270E+02  0.50528852579E+02  0.29999977900E+02 0.  0.
        -12    1    1    2    0    0  0.12715027769E+02  0.33224344368E+02 -0.19688506270E+02  0.40659147421E+02  0.00000000000E+00 0.  1.
         11    1    3    3    0    0 -0.93925689993E+01 -0.30379799074E+02  0.12519742876E+02  0.34174500817E+02  0.51100000000E-03 0. -1.
        -11    1    3    3    0    0 -0.25756729132E+01 -0.44758953614E+01  0.10984513046E+02  0.12137844017E+02  0.51100000000E-03 0.  1.
         12    1    3    3    0    0 -0.74678585653E+00  0.16313500674E+01 -0.38157496523E+01  0.42165077454E+01  0.00000000000E+00 0. -1.
</event>
<event>
 7    1  0.5041278E-013  0.5052885E+02  0.7816164E-02  0.1300439E+00
        -11   -1    0    0    0    0  0.00000000000E+00  0.00000000000E+00  0.45593999997E+02  0.45594000000E+02  0.51100000000E-03 0.  1.
         11   -1    0    0    0    0 -0.00000000000E+00 -0.00000000000E+00 -0.45593999997E+02  0.45594000000E+02  0.51100000000E-03 0. -1.
    9900012    2    1    2    0    0  0.26091143450E+02 -0.20069255505E+02 -0.23867208576E+02  0.50528850620E+02  0.29999971946E+02 0.  0.
        -12    1    1    2    0    0 -0.26091143450E+02  0.20069255505E+02  0.23867208576E+02  0.40659149380E+02  0.00000000000E+00 0.  1.
         11    1    3    3    0    0  0.10144781152E+02 -0.53640235483E+01 -0.13575740115E+02  0.17776109056E+02  0.51100000000E-03 0. -1.
        -11    1    3    3    0    0  0.53605881042E+01 -0.61861283952E+01 -0.16032849622E+02  0.18001565393E+02  0.51100000000E-03 0.  1.
        -12    1    3    3    0    0  0.10585774194E+02 -0.85191035616E+01  0.57413811613E+01  0.14751176171E+02  0.00000000000E+00 0.  1.
</event>
<event>
 7    1  0.5489810E-013  0.5052887E+02  0.7816164E-02  0.1300439E+00
        -11   -1    0    0    0    0  0.00000000000E+00  0.00000000000E+00  0.45593999997E+02  0.45594000000E+02  0.51100000000E-03 0.  1.
         11   -1    0    0    0    0 -0.00000000000E+00 -0.00000000000E+00 -0.45593999997E+02  0.45594000000E+02  0.51100000000E-03 0. -1.
    9900012    2    1    2    0    0  0.39754489348E+02  0.73923958173E+00 -0.84970041700E+01  0.50528868451E+02  0.30000026142E+02 0.  0.
        -12    1    1    2    0    0 -0.39754489348E+02 -0.73923958173E+00  0.84970041700E+01  0.40659131549E+02  0.00000000000E+00 0.  1.
         11    1    3    3    0    0  0.19816045722E+02  0.44401641727E+01 -0.52179816386E+01  0.20967070815E+02  0.51100000000E-03 0. -1.
        -11    1    3    3    0    0  0.11536689409E+02 -0.49138343526E+01 -0.12024990777E+02  0.17373582648E+02  0.51100000000E-03 0.  1.
        -12    1    3    3    0    0  0.84017542174E+01  0.12129097617E+01  0.87459682461E+01  0.12188214987E+02  0.00000000000E+00 0.  1.
</event>
<event>
 7    1  0.5041278E-013  0.5052886E+02  0.7816164E-02  0.1300439E+00
        -11   -1    0    0    0    0  0.00000000000E+00  0.00000000000E+00  0.45593999997E+02  0.45594000000E+02  0.51100000000E-03 0.  1.
         11   -1    0    0    0    0 -0.00000000000E+00 -0.00000000000E+00 -0.45593999997E+02  0.45594000000E+02  0.51100000000E-03 0. -1.
    9900012    2    1    2    0    0 -0.39574994687E+02  0.43262250215E+01 -0.82625141972E+01  0.50528861196E+02  0.30000004092E+02 0.  0.
        -12    1    1    2    0    0  0.39574994687E+02 -0.43262250215E+01  0.82625141972E+01  0.40659138804E+02  0.00000000000E+00 0.  1.
         11    1    3    3    0    0 -0.23496033783E+01  0.84029649339E+00 -0.50642289200E+01  0.56456309698E+01  0.51100000000E-03 0. -1.
        -11    1    3    3    0    0 -0.17545258894E+02  0.13855018750E+02  0.34097290919E+00  0.22358754818E+02  0.51100000000E-03 0.  1.
        -12    1    3    3    0    0 -0.19680132415E+02 -0.10369090222E+02 -0.35392581864E+01  0.22524475408E+02  0.00000000000E+00 0.  1.
</event>
<event>
 7    1  0.5041278E-013  0.5052886E+02  0.7816164E-02  0.1300439E+00
        -11   -1    0    0    0    0  0.00000000000E+00  0.00000000000E+00  0.45593999997E+02  0.45594000000E+02  0.51100000000E-03 0. -1.
         11   -1    0    0    0    0 -0.00000000000E+00 -0.00000000000E+00 -0.45593999997E+02  0.45594000000E+02  0.51100000000E-03 0.  1.
    9900012    2    1    2    0    0  0.27273909421E+02  0.26917125699E+02  0.13592928102E+02  0.50528862215E+02  0.30000007189E+02 0.  0.
        -12    1    1    2    0    0 -0.27273909421E+02 -0.26917125699E+02 -0.13592928102E+02  0.40659137785E+02  0.00000000000E+00 0.  1.
         11    1    3    3    0    0  0.11789544707E+02  0.83446471282E+01  0.17709433794E+01  0.14552069984E+02  0.51100000000E-03 0. -1.
        -11    1    3    3    0    0  0.16874635975E+02  0.35869135529E+01  0.11845422698E+02  0.20926856603E+02  0.51100000000E-03 0.  1.
        -12    1    3    3    0    0 -0.13902712611E+01  0.14985565018E+02 -0.23437974901E-01  0.15049935629E+02  0.00000000000E+00 0.  1.
</event>
<event>
 7    1  0.5041278E-013  0.5052887E+02  0.7816164E-02  0.1300439E+00
        -11   -1    0    0    0    0  0.00000000000E+00  0.00000000000E+00  0.45593999997E+02  0.45594000000E+02  0.51100000000E-03 0.  1.
         11   -1    0    0    0    0 -0.00000000000E+00 -0.00000000000E+00 -0.45593999997E+02  0.45594000000E+02  0.51100000000E-03 0. -1.
    9900012    2    1    2    0    0  0.10926787507E+02  0.39136901386E+02  0.14398363804E+01  0.50528869855E+02  0.30000030412E+02 0.  0.
        -12    1    1    2    0    0 -0.10926787507E+02 -0.39136901386E+02 -0.14398363804E+01  0.40659130145E+02  0.00000000000E+00 0.  1.
         11    1    3    3    0    0  0.82890016242E+00 -0.86550999063E+00 -0.36007815814E+01  0.37949718420E+01  0.51100000000E-03 0. -1.
        -11    1    3    3    0    0 -0.54865734687E+01  0.14659265249E+02  0.64960645302E+01  0.16946840435E+02  0.51100000000E-03 0.  1.
         12    1    3    3    0    0  0.15584460813E+02  0.25343146128E+02 -0.14554465683E+01  0.29787057579E+02  0.00000000000E+00 0. -1.
</event>
<event>
 7    1  0.5041278E-013  0.5052886E+02  0.7816164E-02  0.1300439E+00
        -11   -1    0    0    0    0  0.00000000000E+00  0.00000000000E+00  0.45593999997E+02  0.45594000000E+02  0.51100000000E-03 0.  1.
         11   -1    0    0    0    0 -0.00000000000E+00 -0.00000000000E+00 -0.45593999997E+02  0.45594000000E+02  0.51100000000E-03 0. -1.
    9900012    2    1    2    0    0 -0.40446725537E+02 -0.17766151950E+01 -0.37512290984E+01  0.50528859724E+02  0.29999999617E+02 0.  0.
        -12    1    1    2    0    0  0.40446725537E+02  0.17766151950E+01  0.37512290984E+01  0.40659140276E+02  0.00000000000E+00 0.  1.
         11    1    3    3    0    0 -0.80022287950E+01 -0.28380630653E+00 -0.11827941731E+02  0.14283431575E+02  0.51100000000E-03 0. -1.
        -11    1    3    3    0    0  0.39685618320E+00  0.21035292107E+01  0.13473745047E+01  0.25293770553E+01  0.51100000000E-03 0.  1.
         12    1    3    3    0    0 -0.32841352926E+02 -0.35963380992E+01  0.67293381278E+01  0.33716051094E+02  0.00000000000E+00 0. -1.
</event>
<event>
 7    1  0.5041278E-013  0.5052885E+02  0.7816164E-02  0.1300439E+00
        -11   -1    0    0    0    0  0.00000000000E+00  0.00000000000E+00  0.45593999997E+02  0.45594000000E+02  0.51100000000E-03 0.  1.
         11   -1    0    0    0    0 -0.00000000000E+00 -0.00000000000E+00 -0.45593999997E+02  0.45594000000E+02  0.51100000000E-03 0. -1.
    9900012    2    1    2    0    0  0.65476167476E+00 -0.33479415508E+01 -0.40515786829E+02  0.50528850871E+02  0.29999972709E+02 0.  0.
        -12    1    1    2    0    0 -0.65476167476E+00  0.33479415508E+01  0.40515786829E+02  0.40659149129E+02  0.00000000000E+00 0.  1.
         11    1    3    3    0    0  0.11123400911E+02  0.23672666998E+01 -0.19075528833E+02  0.22208327267E+02  0.51100000000E-03 0. -1.
        -11    1    3    3    0    0 -0.15933043791E+01  0.46154750781E+01 -0.57734303250E+01  0.75613310349E+01  0.51100000000E-03 0.  1.
         12    1    3    3    0    0 -0.88753348576E+01 -0.10330683329E+02 -0.15666827671E+02  0.20759192570E+02  0.00000000000E+00 0. -1.
</event>
<event>
 7    1  0.6740511E-013  0.5052886E+02  0.7816164E-02  0.1300439E+00
        -11   -1    0    0    0    0  0.00000000000E+00  0.00000000000E+00  0.45593999997E+02  0.45594000000E+02  0.51100000000E-03 0. -1.
         11   -1    0    0    0    0 -0.00000000000E+00 -0.00000000000E+00 -0.45593999997E+02  0.45594000000E+02  0.51100000000E-03 0.  1.
    9900012    2    1    2    0    0 -0.20405489237E+02  0.51275595049E+01  0.34792094125E+02  0.50528859932E+02  0.30000000251E+02 0.  0.
        -12    1    1    2    0    0  0.20405489237E+02 -0.51275595049E+01 -0.34792094125E+02  0.40659140068E+02  0.00000000000E+00 0.  1.
         11    1    3    3    0    0 -0.59227296397E+01 -0.68829216289E+01  0.15672479333E+02  0.18112977261E+02  0.51100000000E-03 0. -1.
        -11    1    3    3    0    0  0.19200095491E+01  0.93613499478E+01  0.66665407242E+01  0.11651784198E+02  0.51100000000E-03 0.  1.
         12    1    3    3    0    0 -0.16402769146E+02  0.26491311860E+01  0.12453074067E+02  0.20764098473E+02  0.00000000000E+00 0. -1.
</event>
<event>
 7    1  0.5041278E-013  0.5052886E+02  0.7816164E-02  0.1300439E+00
        -11   -1    0    0    0    0  0.00000000000E+00  0.00000000000E+00  0.45593999997E+02  0.45594000000E+02  0.51100000000E-03 0.  1.
         11   -1    0    0    0    0 -0.00000000000E+00 -0.00000000000E+00 -0.45593999997E+02  0.45594000000E+02  0.51100000000E-03 0. -1.
    9900012    2    1    2    0    0 -0.29810550056E+02 -0.27090194784E+02 -0.55333620084E+01  0.50528860275E+02  0.30000001291E+02 0.  0.
        -12    1    1    2    0    0  0.29810550056E+02  0.27090194784E+02  0.55333620084E+01  0.40659139725E+02  0.00000000000E+00 0.  1.
         11    1    3    3    0    0 -0.19542616055E+02 -0.65555780649E+01  0.33451371681E+01  0.20882513952E+02  0.51100000000E-03 0.  1.
        -11    1    3    3    0    0 -0.10791359122E+02 -0.49794995675E+01 -0.33019941967E+00  0.11889401985E+02  0.51100000000E-03 0. -1.
        -12    1    3    3    0    0  0.52342512133E+00 -0.15555117152E+02 -0.85482997568E+01  0.17756944337E+02  0.00000000000E+00 0.  1.
</event>
<event>
 7    1  0.5954646E-013  0.5052886E+02  0.7816164E-02  0.1300439E+00
        -11   -1    0    0    0    0  0.00000000000E+00  0.00000000000E+00  0.45593999997E+02  0.45594000000E+02  0.51100000000E-03 0.  1.
         11   -1    0    0    0    0 -0.00000000000E+00 -0.00000000000E+00 -0.45593999997E+02  0.45594000000E+02  0.51100000000E-03 0. -1.
    9900012    2    1    2    0    0 -0.14859534311E+02  0.34891655337E+02 -0.14660560604E+02  0.50528863151E+02  0.30000010034E+02 0.  0.
        -12    1    1    2    0    0  0.14859534311E+02 -0.34891655337E+02  0.14660560604E+02  0.40659136849E+02  0.00000000000E+00 0.  1.
         11    1    3    3    0    0 -0.12010027036E+02  0.39793235962E+01 -0.56655372979E+00  0.12664783815E+02  0.51100000000E-03 0. -1.
        -11    1    3    3    0    0  0.40065843427E+01  0.12041748200E+02  0.10228345747E+01  0.12731952271E+02  0.51100000000E-03 0.  1.
         12    1    3    3    0    0 -0.68560916178E+01  0.18870583541E+02 -0.15116841448E+02  0.25132127065E+02  0.00000000000E+00 0. -1.
</event>
<event>
 7    1  0.5041278E-013  0.5052886E+02  0.7816164E-02  0.1300439E+00
        -11   -1    0    0    0    0  0.00000000000E+00  0.00000000000E+00  0.45593999997E+02  0.45594000000E+02  0.51100000000E-03 0.  1.
         11   -1    0    0    0    0 -0.00000000000E+00 -0.00000000000E+00 -0.45593999997E+02  0.45594000000E+02  0.51100000000E-03 0. -1.
    9900012    2    1    2    0    0  0.17603887869E+02  0.11999418631E+02 -0.34630665580E+02  0.50528856944E+02  0.29999991166E+02 0.  0.
        -12    1    1    2    0    0 -0.17603887869E+02 -0.11999418631E+02  0.34630665580E+02  0.40659143056E+02  0.00000000000E+00 0.  1.
         11    1    3    3    0    0  0.77030832488E+01  0.75419505192E+01 -0.25023392928E+02  0.27246810879E+02  0.51100000000E-03 0. -1.
        -11    1    3    3    0    0  0.54909515785E+01  0.11574915875E+02 -0.63407062095E+01  0.14294536797E+02  0.51100000000E-03 0.  1.
         12    1    3    3    0    0  0.44098530416E+01 -0.71174477632E+01 -0.32665664419E+01  0.89875092673E+01  0.00000000000E+00 0. -1.
</event>
<event>
 7    1  0.5041278E-013  0.5052890E+02  0.7816164E-02  0.1300439E+00
        -11   -1    0    0    0    0  0.00000000000E+00  0.00000000000E+00  0.45593999997E+02  0.45594000000E+02  0.51100000000E-03 0.  1.
         11   -1    0    0    0    0 -0.00000000000E+00 -0.00000000000E+00 -0.45593999997E+02  0.45594000000E+02  0.51100000000E-03 0. -1.
    9900012    2    1    2    0    0  0.10090752389E+02 -0.71658486261E+01 -0.38729700547E+02  0.50528900468E+02  0.30000123463E+02 0.  0.
        -12    1    1    2    0    0 -0.10090752389E+02  0.71658486261E+01  0.38729700547E+02  0.40659099532E+02  0.00000000000E+00 0.  1.
         11    1    3    3    0    0  0.82666085676E+01  0.70760878784E+01 -0.25750495669E+02  0.27955247528E+02  0.51100000000E-03 0. -1.
        -11    1    3    3    0    0 -0.21052833756E+01 -0.24060090220E+01 -0.88928789185E+01  0.94501001701E+01  0.51100000000E-03 0.  1.
         12    1    3    3    0    0  0.39294271967E+01 -0.11835927482E+02 -0.40863259590E+01  0.13123552770E+02  0.00000000000E+00 0. -1.
</event>
<event>
 7    1  0.5041278E-013  0.5052885E+02  0.7816164E-02  0.1300439E+00
        -11   -1    0    0    0    0  0.00000000000E+00  0.00000000000E+00  0.45593999997E+02  0.45594000000E+02  0.51100000000E-03 0.  1.
         11   -1    0    0    0    0 -0.00000000000E+00 -0.00000000000E+00 -0.45593999997E+02  0.45594000000E+02  0.51100000000E-03 0. -1.
    9900012    2    1    2    0    0  0.40119210349E+01  0.40342002302E+02 -0.30973954886E+01  0.50528849506E+02  0.29999968558E+02 0.  0.
        -12    1    1    2    0    0 -0.40119210349E+01 -0.40342002302E+02  0.30973954886E+01  0.40659150494E+02  0.00000000000E+00 0.  1.
         11    1    3    3    0    0  0.28026594633E+01  0.19130549598E+02 -0.13804599125E+02  0.23757099681E+02  0.51100000000E-03 0. -1.
        -11    1    3    3    0    0 -0.77802025672E+00  0.14936869477E+02  0.93052879023E+00  0.14986035813E+02  0.51100000000E-03 0.  1.
        -12    1    3    3    0    0  0.19872818283E+01  0.62745832262E+01  0.97766748458E+01  0.11785714012E+02  0.00000000000E+00 0.  1.
</event>
<event>
 7    1  0.5041278E-013  0.5052886E+02  0.7816164E-02  0.1300439E+00
        -11   -1    0    0    0    0  0.00000000000E+00  0.00000000000E+00  0.45593999997E+02  0.45594000000E+02  0.51100000000E-03 0. -1.
         11   -1    0    0    0    0 -0.00000000000E+00 -0.00000000000E+00 -0.45593999997E+02  0.45594000000E+02  0.51100000000E-03 0.  1.
    9900012    2    1    2    0    0 -0.18551775438E+02 -0.28888459367E+02  0.21781965531E+02  0.50528862295E+02  0.30000007432E+02 0.  0.
        -12    1    1    2    0    0  0.18551775438E+02  0.28888459367E+02 -0.21781965531E+02  0.40659137705E+02  0.00000000000E+00 0.  1.
         11    1    3    3    0    0 -0.79456134777E+01 -0.71407100492E+01  0.22787973122E+02  0.25167722042E+02  0.51100000000E-03 0. -1.
        -11    1    3    3    0    0 -0.95187084729E+01 -0.11071411606E+02 -0.91095714543E+00  0.14629142460E+02  0.51100000000E-03 0.  1.
        -12    1    3    3    0    0 -0.10874534879E+01 -0.10676337712E+02 -0.95050445647E-01  0.10731997792E+02  0.00000000000E+00 0.  1.
</event>
<event>
 7    1  0.5041278E-013  0.5052886E+02  0.7816164E-02  0.1300439E+00
        -11   -1    0    0    0    0  0.00000000000E+00  0.00000000000E+00  0.45593999997E+02  0.45594000000E+02  0.51100000000E-03 0.  1.
         11   -1    0    0    0    0 -0.00000000000E+00 -0.00000000000E+00 -0.45593999997E+02  0.45594000000E+02  0.51100000000E-03 0. -1.
    9900012    2    1    2    0    0  0.25110369266E+02 -0.73674061307E+01 -0.31118425673E+02  0.50528859157E+02  0.29999997892E+02 0.  0.
        -12    1    1    2    0    0 -0.25110369266E+02  0.73674061307E+01  0.31118425673E+02  0.40659140843E+02  0.00000000000E+00 0.  1.
         11    1    3    3    0    0  0.18268551420E+02 -0.11748867537E+02 -0.15055214245E+02  0.26427927191E+02  0.51100000000E-03 0. -1.
        -11    1    3    3    0    0  0.88462335937E+01  0.12038607717E+01 -0.17836815674E+02  0.19946356138E+02  0.51100000000E-03 0.  1.
        -12    1    3    3    0    0 -0.20044157469E+01  0.31776006349E+01  0.17736042465E+01  0.41545758273E+01  0.00000000000E+00 0.  1.
</event>
<event>
 7    1  0.5041278E-013  0.5052886E+02  0.7816164E-02  0.1300439E+00
        -11   -1    0    0    0    0  0.00000000000E+00  0.00000000000E+00  0.45593999997E+02  0.45594000000E+02  0.51100000000E-03 0.  1.
         11   -1    0    0    0    0 -0.00000000000E+00 -0.00000000000E+00 -0.45593999997E+02  0.45594000000E+02  0.51100000000E-03 0. -1.
    9900012    2    1    2    0    0 -0.31460031113E+02  0.25720507940E+02 -0.13739225411E+01  0.50528858968E+02  0.29999997318E+02 0.  0.
        -12    1    1    2    0    0  0.31460031113E+02 -0.25720507940E+02  0.13739225411E+01  0.40659141032E+02  0.00000000000E+00 0.  1.
         11    1    3    3    0    0 -0.13045112711E+02 -0.12768291589E+01  0.75976731426E+00  0.13129451816E+02  0.51100000000E-03 0. -1.
        -11    1    3    3    0    0 -0.14040845508E+02  0.10203278657E+02  0.58238658361E+01  0.18307639156E+02  0.51100000000E-03 0.  1.
        -12    1    3    3    0    0 -0.43740728939E+01  0.16794058441E+02 -0.79575556915E+01  0.19091767995E+02  0.00000000000E+00 0.  1.
</event>
<event>
 7    1  0.5041278E-013  0.5052886E+02  0.7816164E-02  0.1300439E+00
        -11   -1    0    0    0    0  0.00000000000E+00  0.00000000000E+00  0.45593999997E+02  0.45594000000E+02  0.51100000000E-03 0.  1.
         11   -1    0    0    0    0 -0.00000000000E+00 -0.00000000000E+00 -0.45593999997E+02  0.45594000000E+02  0.51100000000E-03 0. -1.
    9900012    2    1    2    0    0  0.10558150658E+02  0.22318705428E+02 -0.32304282251E+02  0.50528858235E+02  0.29999995091E+02 0.  0.
        -12    1    1    2    0    0 -0.10558150658E+02 -0.22318705428E+02  0.32304282251E+02  0.40659141765E+02  0.00000000000E+00 0.  1.
         11    1    3    3    0    0 -0.62170946158E+00 -0.24227513535E+01 -0.50978258342E+01  0.56783866787E+01  0.51100000000E-03 0. -1.
        -11    1    3    3    0    0 -0.68969421470E+01  0.96585714458E+01 -0.11660799242E+02  0.16638210618E+02  0.51100000000E-03 0.  1.
         12    1    3    3    0    0  0.18076802266E+02  0.15082885336E+02 -0.15545657175E+02  0.28212260938E+02  0.00000000000E+00 0. -1.
</event>
<event>
 7    1  0.5041278E-013  0.5052886E+02  0.7816164E-02  0.1300439E+00
        -11   -1    0    0    0    0  0.00000000000E+00  0.00000000000E+00  0.45593999997E+02  0.45594000000E+02  0.51100000000E-03 0.  1.
         11   -1    0    0    0    0 -0.00000000000E+00 -0.00000000000E+00 -0.45593999997E+02  0.45594000000E+02  0.51100000000E-03 0. -1.
    9900012    2    1    2    0    0  0.39966819925E+02  0.42828308393E+01 -0.61217999939E+01  0.50528858715E+02  0.29999996549E+02 0.  0.
        -12    1    1    2    0    0 -0.39966819925E+02 -0.42828308393E+01  0.61217999939E+01  0.40659141285E+02  0.00000000000E+00 0.  1.
         11    1    3    3    0    0  0.21238770849E+02 -0.68123048378E+00 -0.16085943818E+01  0.21310491273E+02  0.51100000000E-03 0. -1.
        -11    1    3    3    0    0  0.17115081424E+02  0.12444772931E+02 -0.25225715053E+01  0.21311071130E+02  0.51100000000E-03 0.  1.
        -12    1    3    3    0    0  0.16129676514E+01 -0.74807116077E+01 -0.19906341068E+01  0.79072963110E+01  0.00000000000E+00 0.  1.
</event>
<event>
 7    1  0.5041278E-013  0.5052886E+02  0.7816164E-02  0.1300439E+00
        -11   -1    0    0    0    0  0.00000000000E+00  0.00000000000E+00  0.45593999997E+02  0.45594000000E+02  0.51100000000E-03 0.  1.
         11   -1    0    0    0    0 -0.00000000000E+00 -0.00000000000E+00 -0.45593999997E+02  0.45594000000E+02  0.51100000000E-03 0. -1.
    9900012    2    1    2    0    0  0.22505429671E+02 -0.21204724043E+02 -0.26401350081E+02  0.50528856225E+02  0.29999988983E+02 0.  0.
        -12    1    1    2    0    0 -0.22505429671E+02  0.21204724043E+02  0.26401350081E+02  0.40659143775E+02  0.00000000000E+00 0.  1.
         11    1    3    3    0    0  0.84219476351E+01 -0.65699827941E+01 -0.51049385185E+01  0.11838677013E+02  0.51100000000E-03 0. -1.
        -11    1    3    3    0    0  0.15880596611E+02 -0.24125862566E+01 -0.25863234174E+01  0.16269695456E+02  0.51100000000E-03 0.  1.
        -12    1    3    3    0    0 -0.17971145753E+01 -0.12222154992E+02 -0.18710088145E+02  0.22420483756E+02  0.00000000000E+00 0.  1.
</event>
<event>
 7    1  0.5365024E-013  0.5052886E+02  0.7816164E-02  0.1300439E+00
        -11   -1    0    0    0    0  0.00000000000E+00  0.00000000000E+00  0.45593999997E+02  0.45594000000E+02  0.51100000000E-03 0.  1.
         11   -1    0    0    0    0 -0.00000000000E+00 -0.00000000000E+00 -0.45593999997E+02  0.45594000000E+02  0.51100000000E-03 0. -1.
    9900012    2    1    2    0    0  0.37582945799E+02  0.13828546693E+02 -0.70326972151E+01  0.50528863896E+02  0.30000012298E+02 0.  0.
        -12    1    1    2    0    0 -0.37582945799E+02 -0.13828546693E+02  0.70326972151E+01  0.40659136104E+02  0.00000000000E+00 0.  1.
         11    1    3    3    0    0  0.23390546740E+02  0.10861254007E+02 -0.99197652443E+01  0.27631255096E+02  0.51100000000E-03 0. -1.
        -11    1    3    3    0    0  0.35179994948E+01 -0.55298776233E-01 -0.71296709566E+01  0.79505714644E+01  0.51100000000E-03 0.  1.
        -12    1    3    3    0    0  0.10674399565E+02  0.30225914625E+01  0.10016738986E+02  0.14947037336E+02  0.00000000000E+00 0.  1.
</event>
<event>
 7    1  0.5041278E-013  0.5052887E+02  0.7816164E-02  0.1300439E+00
        -11   -1    0    0    0    0  0.00000000000E+00  0.00000000000E+00  0.45593999997E+02  0.45594000000E+02  0.51100000000E-03 0.  1.
         11   -1    0    0    0    0 -0.00000000000E+00 -0.00000000000E+00 -0.45593999997E+02  0.45594000000E+02  0.51100000000E-03 0. -1.
    9900012    2    1    2    0    0 -0.19031959669E+02 -0.30002781664E+02 -0.19768217681E+02  0.50528870315E+02  0.30000031810E+02 0.  0.
        -12    1    1    2    0    0  0.19031959669E+02  0.30002781664E+02  0.19768217681E+02  0.40659129685E+02  0.00000000000E+00 0.  1.
         11    1    3    3    0    0 -0.35616260664E+01 -0.11560661353E+02 -0.10593390392E+02  0.16079614156E+02  0.51100000000E-03 0. -1.
        -11    1    3    3    0    0 -0.15400564117E+02 -0.22591870801E+02 -0.37178843190E+01  0.27593344587E+02  0.51100000000E-03 0.  1.
        -12    1    3    3    0    0 -0.69769486144E-01  0.41497504897E+01 -0.54569429706E+01  0.68559115727E+01  0.00000000000E+00 0.  1.
</event>
<event>
 7    1  0.5165475E-013  0.5052885E+02  0.7816164E-02  0.1300439E+00
        -11   -1    0    0    0    0  0.00000000000E+00  0.00000000000E+00  0.45593999997E+02  0.45594000000E+02  0.51100000000E-03 0.  1.
         11   -1    0    0    0    0 -0.00000000000E+00 -0.00000000000E+00 -0.45593999997E+02  0.45594000000E+02  0.51100000000E-03 0. -1.
    9900012    2    1    2    0    0  0.15759452247E+02 -0.27740776979E+02 -0.25204267315E+02  0.50528854247E+02  0.29999982968E+02 0.  0.
        -12    1    1    2    0    0 -0.15759452247E+02  0.27740776979E+02  0.25204267315E+02  0.40659145753E+02  0.00000000000E+00 0.  1.
         11    1    3    3    0    0  0.42553836843E+01 -0.53435801718E+01 -0.16142913407E+02  0.17528713383E+02  0.51100000000E-03 0. -1.
        -11    1    3    3    0    0 -0.45021891815E+01 -0.10342539089E+02 -0.58496519885E+01  0.12706543624E+02  0.51100000000E-03 0.  1.
        -12    1    3    3    0    0  0.16006257744E+02 -0.12054657718E+02 -0.32117019193E+01  0.20293597239E+02  0.00000000000E+00 0.  1.
</event>
<event>
 7    1  0.5041278E-013  0.5052886E+02  0.7816164E-02  0.1300439E+00
        -11   -1    0    0    0    0  0.00000000000E+00  0.00000000000E+00  0.45593999997E+02  0.45594000000E+02  0.51100000000E-03 0. -1.
         11   -1    0    0    0    0 -0.00000000000E+00 -0.00000000000E+00 -0.45593999997E+02  0.45594000000E+02  0.51100000000E-03 0.  1.
    9900012    2    1    2    0    0 -0.28451625416E+02  0.28961466516E+02 -0.22145249245E+01  0.50528860164E+02  0.30000000953E+02 0.  0.
        -12    1    1    2    0    0  0.28451625416E+02 -0.28961466516E+02  0.22145249245E+01  0.40659139836E+02  0.00000000000E+00 0.  1.
         11    1    3    3    0    0 -0.12582869533E+02  0.14135347150E+02  0.10076815402E+01  0.18951307794E+02  0.51100000000E-03 0. -1.
        -11    1    3    3    0    0  0.42172707682E+01  0.40312184794E+01  0.46430930855E+01  0.74561658259E+01  0.51100000000E-03 0.  1.
         12    1    3    3    0    0 -0.20086026652E+02  0.10794900886E+02 -0.78652995502E+01  0.24121386544E+02  0.00000000000E+00 0. -1.
</event>
<event>
 7    1  0.5041278E-013  0.5052886E+02  0.7816164E-02  0.1300439E+00
        -11   -1    0    0    0    0  0.00000000000E+00  0.00000000000E+00  0.45593999997E+02  0.45594000000E+02  0.51100000000E-03 0.  1.
         11   -1    0    0    0    0 -0.00000000000E+00 -0.00000000000E+00 -0.45593999997E+02  0.45594000000E+02  0.51100000000E-03 0. -1.
    9900012    2    1    2    0    0 -0.27651425818E+02  0.24962853982E+02 -0.16291715100E+02  0.50528863147E+02  0.30000010022E+02 0.  0.
        -12    1    1    2    0    0  0.27651425818E+02 -0.24962853982E+02  0.16291715100E+02  0.40659136853E+02  0.00000000000E+00 0.  1.
         11    1    3    3    0    0 -0.75236276883E+01  0.21063436836E+02 -0.18064445573E+02  0.28750609369E+02  0.51100000000E-03 0. -1.
        -11    1    3    3    0    0 -0.74700893018E+01  0.28607427288E+01 -0.24964829720E+01  0.83796485982E+01  0.51100000000E-03 0.  1.
        -12    1    3    3    0    0 -0.12657708828E+02  0.10386744171E+01  0.42692134454E+01  0.13398605180E+02  0.00000000000E+00 0.  1.
</event>
<event>
 7    1  0.5041278E-013  0.5052885E+02  0.7816164E-02  0.1300439E+00
        -11   -1    0    0    0    0  0.00000000000E+00  0.00000000000E+00  0.45593999997E+02  0.45594000000E+02  0.51100000000E-03 0.  1.
         11   -1    0    0    0    0 -0.00000000000E+00 -0.00000000000E+00 -0.45593999997E+02  0.45594000000E+02  0.51100000000E-03 0. -1.
    9900012    2    1    2    0    0  0.81295545689E+01  0.18922970995E+02 -0.35057065029E+02  0.50528852232E+02  0.29999976845E+02 0.  0.
        -12    1    1    2    0    0 -0.81295545689E+01 -0.18922970995E+02  0.35057065029E+02  0.40659147768E+02  0.00000000000E+00 0.  1.
         11    1    3    3    0    0 -0.62731108196E+01  0.39964045278E+01 -0.22901117507E+02  0.24078711590E+02  0.51100000000E-03 0. -1.
        -11    1    3    3    0    0 -0.12128924180E+01  0.35770129835E+01 -0.39765540961E+01  0.54844427831E+01  0.51100000000E-03 0.  1.
        -12    1    3    3    0    0  0.15615557806E+02  0.11349553484E+02 -0.81793934254E+01  0.20965697859E+02  0.00000000000E+00 0.  1.
</event>
<event>
 7    1  0.5041278E-013  0.5052886E+02  0.7816164E-02  0.1300439E+00
        -11   -1    0    0    0    0  0.00000000000E+00  0.00000000000E+00  0.45593999997E+02  0.45594000000E+02  0.51100000000E-03 0.  1.
         11   -1    0    0    0    0 -0.00000000000E+00 -0.00000000000E+00 -0.45593999997E+02  0.45594000000E+02  0.51100000000E-03 0. -1.
    9900012    2    1    2    0    0 -0.32343653914E+02 -0.68957947469E+01 -0.23653794224E+02  0.50528856934E+02  0.29999991136E+02 0.  0.
        -12    1    1    2    0    0  0.32343653914E+02  0.68957947469E+01  0.23653794224E+02  0.40659143066E+02  0.00000000000E+00 0.  1.
         11    1    3    3    0    0 -0.25045862651E+02 -0.83791402246E+01 -0.13583005665E+02  0.29698539863E+02  0.51100000000E-03 0. -1.
        -11    1    3    3    0    0 -0.81965730735E+00  0.31256254803E+01  0.40658877876E+01  0.51935360311E+01  0.51100000000E-03 0.  1.
         12    1    3    3    0    0 -0.64781339558E+01 -0.16422800026E+01 -0.14136676347E+02  0.15636781040E+02  0.00000000000E+00 0. -1.
</event>
<event>
 7    1  0.5041278E-013  0.5052886E+02  0.7816164E-02  0.1300439E+00
        -11   -1    0    0    0    0  0.00000000000E+00  0.00000000000E+00  0.45593999997E+02  0.45594000000E+02  0.51100000000E-03 0.  1.
         11   -1    0    0    0    0 -0.00000000000E+00 -0.00000000000E+00 -0.45593999997E+02  0.45594000000E+02  0.51100000000E-03 0. -1.
    9900012    2    1    2    0    0  0.15772527445E+02  0.30460517556E+02 -0.21830027156E+02  0.50528857886E+02  0.29999994032E+02 0.  0.
        -12    1    1    2    0    0 -0.15772527445E+02 -0.30460517556E+02  0.21830027156E+02  0.40659142114E+02  0.00000000000E+00 0.  1.
         11    1    3    3    0    0  0.69972214066E+00 -0.38373040038E+01 -0.65204547551E+01  0.75980815714E+01  0.51100000000E-03 0. -1.
        -11    1    3    3    0    0 -0.20252040575E+01  0.40631845557E+01  0.85429761748E+00  0.46196044082E+01  0.51100000000E-03 0.  1.
         12    1    3    3    0    0  0.17098009362E+02  0.30234637004E+02 -0.16163870019E+02  0.38311171907E+02  0.00000000000E+00 0. -1.
</event>
<event>
 7    1  0.5041278E-013  0.5052887E+02  0.7816164E-02  0.1300439E+00
        -11   -1    0    0    0    0  0.00000000000E+00  0.00000000000E+00  0.45593999997E+02  0.45594000000E+02  0.51100000000E-03 0. -1.
         11   -1    0    0    0    0 -0.00000000000E+00 -0.00000000000E+00 -0.45593999997E+02  0.45594000000E+02  0.51100000000E-03 0.  1.
    9900012    2    1    2    0    0 -0.24991138785E+02 -0.28499020834E+02  0.14711016754E+02  0.50528865477E+02  0.30000017103E+02 0.  0.
        -12    1    1    2    0    0  0.24991138785E+02  0.28499020834E+02 -0.14711016754E+02  0.40659134523E+02  0.00000000000E+00 0.  1.
         11    1    3    3    0    0 -0.13152432618E+02 -0.78781596528E+01  0.53996584233E+01  0.16254482294E+02  0.51100000000E-03 0. -1.
        -11    1    3    3    0    0 -0.88267701173E+01 -0.17145275482E+02  0.16740716017E+02  0.25536716999E+02  0.51100000000E-03 0.  1.
        -12    1    3    3    0    0 -0.30119360490E+01 -0.34755856994E+01 -0.74293576860E+01  0.87376661841E+01  0.00000000000E+00 0.  1.
</event>
<event>
 7    1  0.5041278E-013  0.5052886E+02  0.7816164E-02  0.1300439E+00
        -11   -1    0    0    0    0  0.00000000000E+00  0.00000000000E+00  0.45593999997E+02  0.45594000000E+02  0.51100000000E-03 0. -1.
         11   -1    0    0    0    0 -0.00000000000E+00 -0.00000000000E+00 -0.45593999997E+02  0.45594000000E+02  0.51100000000E-03 0.  1.
    9900012    2    1    2    0    0 -0.25884087342E+02 -0.12738850955E+01  0.31329802287E+02  0.50528864838E+02  0.30000015162E+02 0.  0.
        -12    1    1    2    0    0  0.25884087342E+02  0.12738850955E+01 -0.31329802287E+02  0.40659135162E+02  0.00000000000E+00 0.  1.
         11    1    3    3    0    0 -0.14025808663E+02 -0.37979761261E+01  0.74311293787E+01  0.16320833785E+02  0.51100000000E-03 0. -1.
        -11    1    3    3    0    0  0.42336027491E+01  0.38239165401E+01  0.42788584367E+00  0.57209104606E+01  0.51100000000E-03 0.  1.
         12    1    3    3    0    0 -0.16091881428E+02 -0.12998255094E+01  0.23470787065E+02  0.28487120593E+02  0.00000000000E+00 0. -1.
</event>
<event>
 7    1  0.5041278E-013  0.5052887E+02  0.7816164E-02  0.1300439E+00
        -11   -1    0    0    0    0  0.00000000000E+00  0.00000000000E+00  0.45593999997E+02  0.45594000000E+02  0.51100000000E-03 0.  1.
         11   -1    0    0    0    0 -0.00000000000E+00 -0.00000000000E+00 -0.45593999997E+02  0.45594000000E+02  0.51100000000E-03 0. -1.
    9900012    2    1    2    0    0  0.44838837989E+01  0.42058719940E+01 -0.40191672126E+02  0.50528867183E+02  0.30000022288E+02 0.  0.
        -12    1    1    2    0    0 -0.44838837989E+01 -0.42058719940E+01  0.40191672126E+02  0.40659132817E+02  0.00000000000E+00 0.  1.
         11    1    3    3    0    0  0.40350439421E+01  0.53636684762E+00 -0.10691616061E+02  0.11440276364E+02  0.51100000000E-03 0. -1.
        -11    1    3    3    0    0  0.35186644390E+01  0.99202919898E+01 -0.19919171206E+01  0.10712652644E+02  0.51100000000E-03 0.  1.
         12    1    3    3    0    0 -0.30698245822E+01 -0.62507868434E+01 -0.27508138944E+02  0.28375938175E+02  0.00000000000E+00 0. -1.
</event>
<event>
 7    1  0.5041278E-013  0.5052886E+02  0.7816164E-02  0.1300439E+00
        -11   -1    0    0    0    0  0.00000000000E+00  0.00000000000E+00  0.45593999997E+02  0.45594000000E+02  0.51100000000E-03 0. -1.
         11   -1    0    0    0    0 -0.00000000000E+00 -0.00000000000E+00 -0.45593999997E+02  0.45594000000E+02  0.51100000000E-03 0.  1.
    9900012    2    1    2    0    0  0.28240044691E+02 -0.28361617000E+02 -0.71613233538E+01  0.50528855947E+02  0.29999988135E+02 0.  0.
        -12    1    1    2    0    0 -0.28240044691E+02  0.28361617000E+02  0.71613233538E+01  0.40659144053E+02  0.00000000000E+00 0.  1.
         11    1    3    3    0    0  0.35446126668E+01 -0.15416536225E+02  0.59874205508E+01  0.16913990459E+02  0.51100000000E-03 0. -1.
        -11    1    3    3    0    0  0.17641432366E+02 -0.75271414678E+01 -0.18993634194E+01  0.19273961094E+02  0.51100000000E-03 0.  1.
        -12    1    3    3    0    0  0.70539996581E+01 -0.54179393065E+01 -0.11249380485E+02  0.14340904393E+02  0.00000000000E+00 0.  1.
</event>
<event>
 7    1  0.5041278E-013  0.5052889E+02  0.7816164E-02  0.1300439E+00
        -11   -1    0    0    0    0  0.00000000000E+00  0.00000000000E+00  0.45593999997E+02  0.45594000000E+02  0.51100000000E-03 0.  1.
         11   -1    0    0    0    0 -0.00000000000E+00 -0.00000000000E+00 -0.45593999997E+02  0.45594000000E+02  0.51100000000E-03 0. -1.
    9900012    2    1    2    0    0 -0.26524188493E+02 -0.27647894912E+02 -0.13609717814E+02  0.50528891707E+02  0.30000096831E+02 0.  0.
        -12    1    1    2    0    0  0.26524188493E+02  0.27647894912E+02  0.13609717814E+02  0.40659108293E+02  0.00000000000E+00 0.  1.
         11    1    3    3    0    0 -0.42463932312E+01 -0.15756898126E+02 -0.21009662513E+01  0.16453745880E+02  0.51100000000E-03 0. -1.
        -11    1    3    3    0    0 -0.13592704607E+01  0.17323102293E+01  0.40855372874E+01  0.46411345708E+01  0.51100000000E-03 0.  1.
        -12    1    3    3    0    0 -0.20918524801E+02 -0.13623307015E+02 -0.15594288850E+02  0.29434011256E+02  0.00000000000E+00 0.  1.
</event>
<event>
 7    1  0.5041278E-013  0.5052886E+02  0.7816164E-02  0.1300439E+00
        -11   -1    0    0    0    0  0.00000000000E+00  0.00000000000E+00  0.45593999997E+02  0.45594000000E+02  0.51100000000E-03 0.  1.
         11   -1    0    0    0    0 -0.00000000000E+00 -0.00000000000E+00 -0.45593999997E+02  0.45594000000E+02  0.51100000000E-03 0. -1.
    9900012    2    1    2    0    0 -0.11911862817E+02  0.14749958503E+02 -0.35968207758E+02  0.50528859319E+02  0.29999998385E+02 0.  0.
        -12    1    1    2    0    0  0.11911862817E+02 -0.14749958503E+02  0.35968207758E+02  0.40659140681E+02  0.00000000000E+00 0.  1.
         11    1    3    3    0    0 -0.94524815863E-01 -0.24623185615E+01 -0.20663756753E+02  0.20810160764E+02  0.51100000000E-03 0.  1.
        -11    1    3    3    0    0 -0.11004689689E+02  0.86631664503E+01 -0.15803645754E+02  0.21116554346E+02  0.51100000000E-03 0. -1.
        -12    1    3    3    0    0 -0.81264831250E+00  0.85491106146E+01  0.49919474840E+00  0.86021442081E+01  0.00000000000E+00 0.  1.
</event>
<event>
 7    1  0.5041278E-013  0.5052886E+02  0.7816164E-02  0.1300439E+00
        -11   -1    0    0    0    0  0.00000000000E+00  0.00000000000E+00  0.45593999997E+02  0.45594000000E+02  0.51100000000E-03 0.  1.
         11   -1    0    0    0    0 -0.00000000000E+00 -0.00000000000E+00 -0.45593999997E+02  0.45594000000E+02  0.51100000000E-03 0. -1.
    9900012    2    1    2    0    0  0.24368788280E+02  0.26962060756E+02 -0.18231161618E+02  0.50528858144E+02  0.29999994816E+02 0.  0.
        -12    1    1    2    0    0 -0.24368788280E+02 -0.26962060756E+02  0.18231161618E+02  0.40659141856E+02  0.00000000000E+00 0.  1.
         11    1    3    3    0    0  0.20356552411E+01  0.76891102927E+01 -0.98601943805E+01  0.12668454635E+02  0.51100000000E-03 0. -1.
        -11    1    3    3    0    0  0.17784067146E+00  0.29632924135E+01  0.60937716221E+01  0.67784055703E+01  0.51100000000E-03 0.  1.
         12    1    3    3    0    0  0.22155292368E+02  0.16309658050E+02 -0.14464738860E+02  0.31081997939E+02  0.00000000000E+00 0. -1.
</event>
<event>
 7    1  0.5041278E-013  0.5052886E+02  0.7816164E-02  0.1300439E+00
        -11   -1    0    0    0    0  0.00000000000E+00  0.00000000000E+00  0.45593999997E+02  0.45594000000E+02  0.51100000000E-03 0.  1.
         11   -1    0    0    0    0 -0.00000000000E+00 -0.00000000000E+00 -0.45593999997E+02  0.45594000000E+02  0.51100000000E-03 0. -1.
    9900012    2    1    2    0    0 -0.39111039821E+02  0.10827957052E+02  0.24995477143E+01  0.50528857995E+02  0.29999994363E+02 0.  0.
        -12    1    1    2    0    0  0.39111039821E+02 -0.10827957052E+02 -0.24995477143E+01  0.40659142005E+02  0.00000000000E+00 0.  1.
         11    1    3    3    0    0 -0.28135664355E+01  0.11744597276E+02  0.23008587657E+00  0.12079100175E+02  0.51100000000E-03 0. -1.
        -11    1    3    3    0    0 -0.64484177937E+01 -0.20125923721E+01  0.50749473028E+01  0.84491248355E+01  0.51100000000E-03 0.  1.
        -12    1    3    3    0    0 -0.29849055592E+02  0.10959521483E+01 -0.28054854650E+01  0.30000632985E+02  0.00000000000E+00 0.  1.
</event>
<event>
 7    1  0.5041278E-013  0.5052887E+02  0.7816164E-02  0.1300439E+00
        -11   -1    0    0    0    0  0.00000000000E+00  0.00000000000E+00  0.45593999997E+02  0.45594000000E+02  0.51100000000E-03 0.  1.
         11   -1    0    0    0    0 -0.00000000000E+00 -0.00000000000E+00 -0.45593999997E+02  0.45594000000E+02  0.51100000000E-03 0. -1.
    9900012    2    1    2    0    0  0.26999678092E+02  0.73449056643E+01 -0.29499739704E+02  0.50528869427E+02  0.30000029111E+02 0.  0.
        -12    1    1    2    0    0 -0.26999678092E+02 -0.73449056643E+01  0.29499739704E+02  0.40659130573E+02  0.00000000000E+00 0.  1.
         11    1    3    3    0    0  0.16489242204E+02  0.70464734144E+00 -0.57498340725E+01  0.17477191664E+02  0.51100000000E-03 0. -1.
        -11    1    3    3    0    0 -0.31312995266E+00 -0.31071285932E+01  0.18269961040E+01  0.36180400062E+01  0.51100000000E-03 0.  1.
        -12    1    3    3    0    0  0.10823565841E+02  0.97473869161E+01 -0.25576901736E+02  0.29433637757E+02  0.00000000000E+00 0.  1.
</event>
<event>
 7    1  0.5041278E-013  0.5052886E+02  0.7816164E-02  0.1300439E+00
        -11   -1    0    0    0    0  0.00000000000E+00  0.00000000000E+00  0.45593999997E+02  0.45594000000E+02  0.51100000000E-03 0.  1.
         11   -1    0    0    0    0 -0.00000000000E+00 -0.00000000000E+00 -0.45593999997E+02  0.45594000000E+02  0.51100000000E-03 0. -1.
    9900012    2    1    2    0    0  0.36505447188E+02  0.12455109405E+02  0.12860348831E+02  0.50528855927E+02  0.29999988075E+02 0.  0.
        -12    1    1    2    0    0 -0.36505447188E+02 -0.12455109405E+02 -0.12860348831E+02  0.40659144073E+02  0.00000000000E+00 0.  1.
         11    1    3    3    0    0 -0.22136848741E+01  0.31663410502E+01 -0.21838332700E+01  0.44379324443E+01  0.51100000000E-03 0. -1.
        -11    1    3    3    0    0  0.12753919818E+02 -0.51291257464E+01  0.63677770367E+01  0.15149884035E+02  0.51100000000E-03 0.  1.
         12    1    3    3    0    0  0.25965212245E+02  0.14417894101E+02  0.86764050645E+01  0.30941039447E+02  0.00000000000E+00 0. -1.
</event>
<event>
 7    1  0.5041278E-013  0.5052886E+02  0.7816164E-02  0.1300439E+00
        -11   -1    0    0    0    0  0.00000000000E+00  0.00000000000E+00  0.45593999997E+02  0.45594000000E+02  0.51100000000E-03 0.  1.
         11   -1    0    0    0    0 -0.00000000000E+00 -0.00000000000E+00 -0.45593999997E+02  0.45594000000E+02  0.51100000000E-03 0. -1.
    9900012    2    1    2    0    0  0.24916829703E+02  0.18997477559E+01  0.32073484101E+02  0.50528858022E+02  0.29999994445E+02 0.  0.
        -12    1    1    2    0    0 -0.24916829703E+02 -0.18997477559E+01 -0.32073484101E+02  0.40659141978E+02  0.00000000000E+00 0.  1.
         11    1    3    3    0    0  0.16833786741E+02 -0.43892573981E+01  0.20888770141E+02  0.27184235778E+02  0.51100000000E-03 0. -1.
        -11    1    3    3    0    0  0.67544452060E+01  0.64076164358E+01  0.15910432567E+02  0.18434260039E+02  0.51100000000E-03 0.  1.
         12    1    3    3    0    0  0.13285977563E+01 -0.11861128177E+00 -0.47257186077E+01  0.49103622059E+01  0.00000000000E+00 0. -1.
</event>
<event>
 7    1  0.5041278E-013  0.5052886E+02  0.7816164E-02  0.1300439E+00
        -11   -1    0    0    0    0  0.00000000000E+00  0.00000000000E+00  0.45593999997E+02  0.45594000000E+02  0.51100000000E-03 0.  1.
         11   -1    0    0    0    0 -0.00000000000E+00 -0.00000000000E+00 -0.45593999997E+02  0.45594000000E+02  0.51100000000E-03 0. -1.
    9900012    2    1    2    0    0 -0.23847895129E+02 -0.32210238079E+02 -0.68515823340E+01  0.50528859334E+02  0.29999998433E+02 0.  0.
        -12    1    1    2    0    0  0.23847895129E+02  0.32210238079E+02  0.68515823340E+01  0.40659140666E+02  0.00000000000E+00 0.  1.
         11    1    3    3    0    0 -0.17911810664E+02 -0.13467440610E+02 -0.79522580038E+01  0.23779052241E+02  0.51100000000E-03 0. -1.
        -11    1    3    3    0    0 -0.23819913084E+01 -0.60128233617E+01 -0.83062332325E+01  0.10527176172E+02  0.51100000000E-03 0.  1.
        -12    1    3    3    0    0 -0.35540931567E+01 -0.12729974107E+02  0.94069089024E+01  0.16222630922E+02  0.00000000000E+00 0.  1.
</event>
<event>
 7    1  0.5041278E-013  0.5052887E+02  0.7816164E-02  0.1300439E+00
        -11   -1    0    0    0    0  0.00000000000E+00  0.00000000000E+00  0.45593999997E+02  0.45594000000E+02  0.51100000000E-03 0. -1.
         11   -1    0    0    0    0 -0.00000000000E+00 -0.00000000000E+00 -0.45593999997E+02  0.45594000000E+02  0.51100000000E-03 0.  1.
    9900012    2    1    2    0    0 -0.27286118561E-01  0.37700306081E+02  0.15226660552E+02  0.50528868004E+02  0.30000024784E+02 0.  0.
        -12    1    1    2    0    0  0.27286118561E-01 -0.37700306081E+02 -0.15226660552E+02  0.40659131996E+02  0.00000000000E+00 0.  1.
         11    1    3    3    0    0  0.80010851613E+01  0.19059637088E+02  0.52406046511E+01  0.21324893132E+02  0.51100000000E-03 0. -1.
        -11    1    3    3    0    0 -0.81745289827E+01  0.20245278120E+02  0.30047162034E+01  0.22039113639E+02  0.51100000000E-03 0.  1.
        -12    1    3    3    0    0  0.14615770285E+00 -0.16046091276E+01  0.69813396971E+01  0.71648612333E+01  0.00000000000E+00 0.  1.
</event>
<event>
 7    1  0.5041278E-013  0.5052887E+02  0.7816164E-02  0.1300439E+00
        -11   -1    0    0    0    0  0.00000000000E+00  0.00000000000E+00  0.45593999997E+02  0.45594000000E+02  0.51100000000E-03 0.  1.
         11   -1    0    0    0    0 -0.00000000000E+00 -0.00000000000E+00 -0.45593999997E+02  0.45594000000E+02  0.51100000000E-03 0. -1.
    9900012    2    1    2    0    0 -0.38167716468E+02 -0.86142336081E+01  0.11053728545E+02  0.50528874139E+02  0.30000043432E+02 0.  0.
        -12    1    1    2    0    0  0.38167716468E+02  0.86142336081E+01 -0.11053728545E+02  0.40659125861E+02  0.00000000000E+00 0.  1.
         11    1    3    3    0    0  0.15912713645E+01 -0.34808368902E+01  0.11688990242E+01  0.40018364786E+01  0.51100000000E-03 0. -1.
        -11    1    3    3    0    0 -0.21396628960E+02  0.77059495468E+01  0.77209351908E+01  0.24016873855E+02  0.51100000000E-03 0.  1.
         12    1    3    3    0    0 -0.18362358873E+02 -0.12839346265E+02  0.21638943302E+01  0.22510163806E+02  0.00000000000E+00 0. -1.
</event>
<event>
 7    1  0.5041278E-013  0.5052886E+02  0.7816164E-02  0.1300439E+00
        -11   -1    0    0    0    0  0.00000000000E+00  0.00000000000E+00  0.45593999997E+02  0.45594000000E+02  0.51100000000E-03 0. -1.
         11   -1    0    0    0    0 -0.00000000000E+00 -0.00000000000E+00 -0.45593999997E+02  0.45594000000E+02  0.51100000000E-03 0.  1.
    9900012    2    1    2    0    0  0.62169118317E+01  0.21927608131E+02  0.33670400264E+02  0.50528857793E+02  0.29999993747E+02 0.  0.
        -12    1    1    2    0    0 -0.62169118317E+01 -0.21927608131E+02 -0.33670400264E+02  0.40659142207E+02  0.00000000000E+00 0.  1.
         11    1    3    3    0    0 -0.93131675924E+01  0.29987060001E+01  0.12733010664E+02  0.16057922939E+02  0.51100000000E-03 0. -1.
        -11    1    3    3    0    0  0.46043636574E+01  0.45507993882E+01 -0.43807112122E+00  0.64885935556E+01  0.51100000000E-03 0.  1.
        -12    1    3    3    0    0  0.10925715767E+02  0.14378102743E+02  0.21375460722E+02  0.27982341299E+02  0.00000000000E+00 0.  1.
</event>
<event>
 7    1  0.5041278E-013  0.5052882E+02  0.7816164E-02  0.1300439E+00
        -11   -1    0    0    0    0  0.00000000000E+00  0.00000000000E+00  0.45593999997E+02  0.45594000000E+02  0.51100000000E-03 0.  1.
         11   -1    0    0    0    0 -0.00000000000E+00 -0.00000000000E+00 -0.45593999997E+02  0.45594000000E+02  0.51100000000E-03 0. -1.
    9900012    2    1    2    0    0 -0.19372074619E+02  0.53885944426E+01 -0.35339132581E+02  0.50528824939E+02  0.29999893884E+02 0.  0.
        -12    1    1    2    0    0  0.19372074619E+02 -0.53885944426E+01  0.35339132581E+02  0.40659175061E+02  0.00000000000E+00 0.  1.
         11    1    3    3    0    0 -0.15178974465E+02 -0.52963601680E+01 -0.18918890282E+02  0.24826943159E+02  0.51100000000E-03 0. -1.
        -11    1    3    3    0    0 -0.79457337297E+01  0.21868374050E+01 -0.18889406907E+01  0.84548825855E+01  0.51100000000E-03 0.  1.
        -12    1    3    3    0    0  0.37526335763E+01  0.84981172056E+01 -0.14531301608E+02  0.17246999195E+02  0.00000000000E+00 0.  1.
</event>
<event>
 7    1  0.5041278E-013  0.5052886E+02  0.7816164E-02  0.1300439E+00
        -11   -1    0    0    0    0  0.00000000000E+00  0.00000000000E+00  0.45593999997E+02  0.45594000000E+02  0.51100000000E-03 0.  1.
         11   -1    0    0    0    0 -0.00000000000E+00 -0.00000000000E+00 -0.45593999997E+02  0.45594000000E+02  0.51100000000E-03 0. -1.
    9900012    2    1    2    0    0 -0.40297027116E+02 -0.44716715555E+01 -0.30528016336E+01  0.50528857870E+02  0.29999993982E+02 0.  0.
        -12    1    1    2    0    0  0.40297027116E+02  0.44716715555E+01  0.30528016336E+01  0.40659142130E+02  0.00000000000E+00 0.  1.
         11    1    3    3    0    0 -0.11282779282E+02  0.55301197544E+01  0.18651499688E+01  0.12702838954E+02  0.51100000000E-03 0. -1.
        -11    1    3    3    0    0 -0.14520631438E+02 -0.10447361417E+02  0.68460511619E+01  0.19153707597E+02  0.51100000000E-03 0.  1.
         12    1    3    3    0    0 -0.14493616396E+02  0.44557010683E+00 -0.11764002764E+02  0.18672311319E+02  0.00000000000E+00 0. -1.
</event>
<event>
 7    1  0.5041278E-013  0.5052886E+02  0.7816164E-02  0.1300439E+00
        -11   -1    0    0    0    0  0.00000000000E+00  0.00000000000E+00  0.45593999997E+02  0.45594000000E+02  0.51100000000E-03 0. -1.
         11   -1    0    0    0    0 -0.00000000000E+00 -0.00000000000E+00 -0.45593999997E+02  0.45594000000E+02  0.51100000000E-03 0.  1.
    9900012    2    1    2    0    0  0.27908803671E+02 -0.18409232006E+02  0.23137936808E+02  0.50528864924E+02  0.30000015423E+02 0.  0.
        -12    1    1    2    0    0 -0.27908803671E+02  0.18409232006E+02 -0.23137936808E+02  0.40659135076E+02  0.00000000000E+00 0.  1.
         11    1    3    3    0    0  0.45228142769E+01 -0.10379038230E+02  0.69999708455E+01  0.13310893120E+02  0.51100000000E-03 0. -1.
        -11    1    3    3    0    0  0.15150080441E+01 -0.35996065526E+01 -0.50920451070E+01  0.64172689160E+01  0.51100000000E-03 0.  1.
         12    1    3    3    0    0  0.21870981350E+02 -0.44305872232E+01  0.21230011070E+02  0.30800702888E+02  0.00000000000E+00 0. -1.
</event>
<event>
 7    1  0.5041278E-013  0.5052887E+02  0.7816164E-02  0.1300439E+00
        -11   -1    0    0    0    0  0.00000000000E+00  0.00000000000E+00  0.45593999997E+02  0.45594000000E+02  0.51100000000E-03 0.  1.
         11   -1    0    0    0    0 -0.00000000000E+00 -0.00000000000E+00 -0.45593999997E+02  0.45594000000E+02  0.51100000000E-03 0. -1.
    9900012    2    1    2    0    0 -0.12379565465E+02 -0.18675592212E+02 -0.33928362978E+02  0.50528865725E+02  0.30000017859E+02 0.  0.
        -12    1    1    2    0    0  0.12379565465E+02  0.18675592212E+02  0.33928362978E+02  0.40659134275E+02  0.00000000000E+00 0.  1.
         11    1    3    3    0    0  0.56682436226E+01 -0.66257123329E+01 -0.10012422567E+02  0.13276959577E+02  0.51100000000E-03 0. -1.
        -11    1    3    3    0    0 -0.51207480789E+01  0.72501965537E+00 -0.17061178697E+02  0.17827830299E+02  0.51100000000E-03 0.  1.
        -12    1    3    3    0    0 -0.12927061008E+02 -0.12774899534E+02 -0.68547617141E+01  0.19424075849E+02  0.00000000000E+00 0.  1.
</event>
<event>
 7    1  0.5041278E-013  0.5052886E+02  0.7816164E-02  0.1300439E+00
        -11   -1    0    0    0    0  0.00000000000E+00  0.00000000000E+00  0.45593999997E+02  0.45594000000E+02  0.51100000000E-03 0.  1.
         11   -1    0    0    0    0 -0.00000000000E+00 -0.00000000000E+00 -0.45593999997E+02  0.45594000000E+02  0.51100000000E-03 0. -1.
    9900012    2    1    2    0    0  0.26794613580E+02 -0.11588200885E+02 -0.28300663722E+02  0.50528864695E+02  0.30000014726E+02 0.  0.
        -12    1    1    2    0    0 -0.26794613580E+02  0.11588200885E+02  0.28300663722E+02  0.40659135305E+02  0.00000000000E+00 0.  1.
         11    1    3    3    0    0  0.63660962245E+01 -0.51430258716E+00 -0.18613131830E+02  0.19678423847E+02  0.51100000000E-03 0. -1.
        -11    1    3    3    0    0 -0.31665003623E+01 -0.23674093609E+01 -0.25591804598E+01  0.47096450517E+01  0.51100000000E-03 0.  1.
        -12    1    3    3    0    0  0.23595017718E+02 -0.87064889374E+01 -0.71283514317E+01  0.26140795796E+02  0.00000000000E+00 0.  1.
</event>
<event>
 7    1  0.5041278E-013  0.5052885E+02  0.7816164E-02  0.1300439E+00
        -11   -1    0    0    0    0  0.00000000000E+00  0.00000000000E+00  0.45593999997E+02  0.45594000000E+02  0.51100000000E-03 0.  1.
         11   -1    0    0    0    0 -0.00000000000E+00 -0.00000000000E+00 -0.45593999997E+02  0.45594000000E+02  0.51100000000E-03 0. -1.
    9900012    2    1    2    0    0  0.86540096790E+01 -0.24060214996E+02 -0.31612985488E+02  0.50528847517E+02  0.29999962513E+02 0.  0.
        -12    1    1    2    0    0 -0.86540096790E+01  0.24060214996E+02  0.31612985488E+02  0.40659152483E+02  0.00000000000E+00 0.  1.
         11    1    3    3    0    0 -0.19572578215E+00 -0.14814585098E+02 -0.22841096268E+02  0.27225464536E+02  0.51100000000E-03 0. -1.
        -11    1    3    3    0    0 -0.29871444377E+01  0.31494483769E+01 -0.27430598973E+01  0.51348256866E+01  0.51100000000E-03 0.  1.
        -12    1    3    3    0    0  0.11836879899E+02 -0.12395078274E+02 -0.60288293230E+01  0.18168557295E+02  0.00000000000E+00 0.  1.
</event>
<event>
 7    1  0.5041278E-013  0.5052878E+02  0.7816164E-02  0.1300439E+00
        -11   -1    0    0    0    0  0.00000000000E+00  0.00000000000E+00  0.45593999997E+02  0.45594000000E+02  0.51100000000E-03 0.  1.
         11   -1    0    0    0    0 -0.00000000000E+00 -0.00000000000E+00 -0.45593999997E+02  0.45594000000E+02  0.51100000000E-03 0. -1.
    9900012    2    1    2    0    0  0.37113782093E+02  0.79974332901E+01 -0.14552671502E+02  0.50528782000E+02  0.29999763367E+02 0.  0.
        -12    1    1    2    0    0 -0.37113782093E+02 -0.79974332901E+01  0.14552671502E+02  0.40659218000E+02  0.00000000000E+00 0.  1.
         11    1    3    3    0    0  0.24158338798E+02 -0.19595822683E+01 -0.98800932834E+01  0.26174062346E+02  0.51100000000E-03 0. -1.
        -11    1    3    3    0    0  0.89647726522E+01  0.70640221373E+00  0.50839037507E+01  0.10330161199E+02  0.51100000000E-03 0.  1.
        -12    1    3    3    0    0  0.39906706433E+01  0.92506133446E+01 -0.97564819695E+01  0.14024558455E+02  0.00000000000E+00 0.  1.
</event>
<event>
 7    1  0.5041278E-013  0.5052887E+02  0.7816164E-02  0.1300439E+00
        -11   -1    0    0    0    0  0.00000000000E+00  0.00000000000E+00  0.45593999997E+02  0.45594000000E+02  0.51100000000E-03 0.  1.
         11   -1    0    0    0    0 -0.00000000000E+00 -0.00000000000E+00 -0.45593999997E+02  0.45594000000E+02  0.51100000000E-03 0. -1.
    9900012    2    1    2    0    0 -0.88615465780E+00 -0.16095737821E+02 -0.37327021478E+02  0.50528873368E+02  0.30000041089E+02 0.  0.
        -12    1    1    2    0    0  0.88615465780E+00  0.16095737821E+02  0.37327021478E+02  0.40659126632E+02  0.00000000000E+00 0.  1.
         11    1    3    3    0    0  0.19025590081E+01 -0.46380358793E+01 -0.63533367098E+01  0.80929596074E+01  0.51100000000E-03 0. -1.
        -11    1    3    3    0    0 -0.48390009422E+01 -0.87872628607E+01  0.11851626476E+01  0.10101313254E+02  0.51100000000E-03 0.  1.
         12    1    3    3    0    0  0.20502872764E+01 -0.26704390815E+01 -0.32158847415E+02  0.32334600506E+02  0.00000000000E+00 0. -1.
</event>
<event>
 7    1  0.5041278E-013  0.5052886E+02  0.7816164E-02  0.1300439E+00
        -11   -1    0    0    0    0  0.00000000000E+00  0.00000000000E+00  0.45593999997E+02  0.45594000000E+02  0.51100000000E-03 0.  1.
         11   -1    0    0    0    0 -0.00000000000E+00 -0.00000000000E+00 -0.45593999997E+02  0.45594000000E+02  0.51100000000E-03 0. -1.
    9900012    2    1    2    0    0  0.14065768654E+02  0.11773190806E+02 -0.36286523764E+02  0.50528859866E+02  0.30000000047E+02 0.  0.
        -12    1    1    2    0    0 -0.14065768654E+02 -0.11773190806E+02  0.36286523764E+02  0.40659140134E+02  0.00000000000E+00 0.  1.
         11    1    3    3    0    0  0.25976428923E+01 -0.29881355803E+01 -0.18717162265E+02  0.19131358194E+02  0.51100000000E-03 0. -1.
        -11    1    3    3    0    0 -0.38861082124E+01  0.80724470797E+01 -0.85086557713E+01  0.12355705653E+02  0.51100000000E-03 0.  1.
         12    1    3    3    0    0  0.15354233974E+02  0.66888793063E+01 -0.90607057283E+01  0.19041796018E+02  0.00000000000E+00 0. -1.
</event>
<event>
 7    1  0.5041278E-013  0.5052884E+02  0.7816164E-02  0.1300439E+00
        -11   -1    0    0    0    0  0.00000000000E+00  0.00000000000E+00  0.45593999997E+02  0.45594000000E+02  0.51100000000E-03 0.  1.
         11   -1    0    0    0    0 -0.00000000000E+00 -0.00000000000E+00 -0.45593999997E+02  0.45594000000E+02  0.51100000000E-03 0. -1.
    9900012    2    1    2    0    0  0.37760475301E+02  0.28136005283E+01  0.14812063964E+02  0.50528842584E+02  0.29999947518E+02 0.  0.
        -12    1    1    2    0    0 -0.37760475301E+02 -0.28136005283E+01 -0.14812063964E+02  0.40659157416E+02  0.00000000000E+00 0.  1.
         11    1    3    3    0    0  0.12251988150E+02 -0.65494651730E+01  0.37379577845E+01  0.14386766014E+02  0.51100000000E-03 0. -1.
        -11    1    3    3    0    0  0.17276943876E+02  0.61504063343E+01 -0.39056693162E+01  0.18750321087E+02  0.51100000000E-03 0.  1.
        -12    1    3    3    0    0  0.82315432753E+01  0.32126593671E+01  0.14979775496E+02  0.17391755484E+02  0.00000000000E+00 0.  1.
</event>
<event>
 7    1  0.5041278E-013  0.5052885E+02  0.7816164E-02  0.1300439E+00
        -11   -1    0    0    0    0  0.00000000000E+00  0.00000000000E+00  0.45593999997E+02  0.45594000000E+02  0.51100000000E-03 0. -1.
         11   -1    0    0    0    0 -0.00000000000E+00 -0.00000000000E+00 -0.45593999997E+02  0.45594000000E+02  0.51100000000E-03 0.  1.
    9900012    2    1    2    0    0 -0.21585146614E+02  0.17805182932E+02  0.29499543060E+02  0.50528854235E+02  0.29999982934E+02 0.  0.
        -12    1    1    2    0    0  0.21585146614E+02 -0.17805182932E+02 -0.29499543060E+02  0.40659145765E+02  0.00000000000E+00 0.  1.
         11    1    3    3    0    0 -0.15916907789E+02  0.16895525505E+02  0.11912875195E+02  0.26090675180E+02  0.51100000000E-03 0. -1.
        -11    1    3    3    0    0  0.14294296079E+01  0.84056444833E+00 -0.25754511550E+01  0.30631301815E+01  0.51100000000E-03 0.  1.
        -12    1    3    3    0    0 -0.70976684330E+01  0.69092978317E-01  0.20162119019E+02  0.21375048874E+02  0.00000000000E+00 0.  1.
</event>
<event>
 7    1  0.5041278E-013  0.5052884E+02  0.7816164E-02  0.1300439E+00
        -11   -1    0    0    0    0  0.00000000000E+00  0.00000000000E+00  0.45593999997E+02  0.45594000000E+02  0.51100000000E-03 0.  1.
         11   -1    0    0    0    0 -0.00000000000E+00 -0.00000000000E+00 -0.45593999997E+02  0.45594000000E+02  0.51100000000E-03 0. -1.
    9900012    2    1    2    0    0 -0.45321950159E+01 -0.11426697853E+02 -0.38756385409E+02  0.50528835899E+02  0.29999927198E+02 0.  0.
        -12    1    1    2    0    0  0.45321950159E+01  0.11426697853E+02  0.38756385409E+02  0.40659164101E+02  0.00000000000E+00 0.  1.
         11    1    3    3    0    0  0.76180868084E+01  0.19096508447E+01 -0.42546022495E+01  0.89321695870E+01  0.51100000000E-03 0. -1.
        -11    1    3    3    0    0  0.24694968633E+01 -0.66142990062E+01 -0.89370460283E+01  0.11389387959E+02  0.51100000000E-03 0.  1.
        -12    1    3    3    0    0 -0.14619778688E+02 -0.67220496910E+01 -0.25564737131E+02  0.30207278353E+02  0.00000000000E+00 0.  1.
</event>
<event>
 7    1  0.5041278E-013  0.5052885E+02  0.7816164E-02  0.1300439E+00
        -11   -1    0    0    0    0  0.00000000000E+00  0.00000000000E+00  0.45593999997E+02  0.45594000000E+02  0.51100000000E-03 0.  1.
         11   -1    0    0    0    0 -0.00000000000E+00 -0.00000000000E+00 -0.45593999997E+02  0.45594000000E+02  0.51100000000E-03 0. -1.
    9900012    2    1    2    0    0  0.21074589466E+02 -0.32704639212E+02 -0.11808233825E+02  0.50528854249E+02  0.29999982975E+02 0.  0.
        -12    1    1    2    0    0 -0.21074589466E+02  0.32704639212E+02  0.11808233825E+02  0.40659145751E+02  0.00000000000E+00 0.  1.
         11    1    3    3    0    0  0.25088431230E+02 -0.22132218259E+02 -0.14985934065E+02  0.36658459961E+02  0.51100000000E-03 0. -1.
        -11    1    3    3    0    0 -0.29340925443E+01 -0.11206644925E+01 -0.12459829600E+01  0.33789438825E+01  0.51100000000E-03 0.  1.
        -12    1    3    3    0    0 -0.10797492196E+01 -0.94517564599E+01  0.44236832003E+01  0.10491450405E+02  0.00000000000E+00 0.  1.
</event>
<event>
 7    1  0.5041278E-013  0.5052886E+02  0.7816164E-02  0.1300439E+00
        -11   -1    0    0    0    0  0.00000000000E+00  0.00000000000E+00  0.45593999997E+02  0.45594000000E+02  0.51100000000E-03 0. -1.
         11   -1    0    0    0    0 -0.00000000000E+00 -0.00000000000E+00 -0.45593999997E+02  0.45594000000E+02  0.51100000000E-03 0.  1.
    9900012    2    1    2    0    0  0.65924487808E+01  0.37633302365E+02 -0.13908269224E+02  0.50528858585E+02  0.29999996155E+02 0.  0.
        -12    1    1    2    0    0 -0.65924487808E+01 -0.37633302365E+02  0.13908269224E+02  0.40659141415E+02  0.00000000000E+00 0.  1.
         11    1    3    3    0    0  0.93500206657E+00  0.29816756536E+01  0.27445708070E+01  0.41590008107E+01  0.51100000000E-03 0. -1.
        -11    1    3    3    0    0  0.98029289996E+01  0.20130110109E+01 -0.65199076044E+01  0.11943987012E+02  0.51100000000E-03 0.  1.
        -12    1    3    3    0    0 -0.41454822854E+01  0.32638615700E+02 -0.10132932426E+02  0.34425870763E+02  0.00000000000E+00 0.  1.
</event>
<event>
 7    1  0.5041278E-013  0.5052886E+02  0.7816164E-02  0.1300439E+00
        -11   -1    0    0    0    0  0.00000000000E+00  0.00000000000E+00  0.45593999997E+02  0.45594000000E+02  0.51100000000E-03 0.  1.
         11   -1    0    0    0    0 -0.00000000000E+00 -0.00000000000E+00 -0.45593999997E+02  0.45594000000E+02  0.51100000000E-03 0. -1.
    9900012    2    1    2    0    0  0.20870321189E+01  0.38338522233E+02 -0.13377866911E+02  0.50528864333E+02  0.30000013627E+02 0.  0.
        -12    1    1    2    0    0 -0.20870321189E+01 -0.38338522233E+02  0.13377866911E+02  0.40659135667E+02  0.00000000000E+00 0.  1.
         11    1    3    3    0    0  0.73413383830E+01  0.27088806712E+02  0.99219069255E+00  0.28083503003E+02  0.51100000000E-03 0. -1.
        -11    1    3    3    0    0  0.14488739317E+01 -0.19478145665E+01 -0.23283137548E+01  0.33636680065E+01  0.51100000000E-03 0.  1.
         12    1    3    3    0    0 -0.67031801958E+01  0.13197530088E+02 -0.12041743849E+02  0.19081693323E+02  0.00000000000E+00 0. -1.
</event>
<event>
 7    1  0.5041278E-013  0.5052889E+02  0.7816164E-02  0.1300439E+00
        -11   -1    0    0    0    0  0.00000000000E+00  0.00000000000E+00  0.45593999997E+02  0.45594000000E+02  0.51100000000E-03 0.  1.
         11   -1    0    0    0    0 -0.00000000000E+00 -0.00000000000E+00 -0.45593999997E+02  0.45594000000E+02  0.51100000000E-03 0. -1.
    9900012    2    1    2    0    0 -0.13541986602E+02  0.19869939628E+02 -0.32786630505E+02  0.50528892265E+02  0.30000098527E+02 0.  0.
        -12    1    1    2    0    0  0.13541986602E+02 -0.19869939628E+02  0.32786630505E+02  0.40659107735E+02  0.00000000000E+00 0.  1.
         11    1    3    3    0    0 -0.43645767995E+01  0.14371522547E+02 -0.12709586935E+02  0.19675461653E+02  0.51100000000E-03 0. -1.
        -11    1    3    3    0    0  0.58694091174E+01  0.30765415290E+01 -0.14456810746E+01  0.67827033842E+01  0.51100000000E-03 0.  1.
         12    1    3    3    0    0 -0.15046818920E+02  0.24218755522E+01 -0.18631362496E+02  0.24070727227E+02  0.00000000000E+00 0. -1.
</event>
<event>
 7    1  0.5041278E-013  0.5052888E+02  0.7816164E-02  0.1300439E+00
        -11   -1    0    0    0    0  0.00000000000E+00  0.00000000000E+00  0.45593999997E+02  0.45594000000E+02  0.51100000000E-03 0.  1.
         11   -1    0    0    0    0 -0.00000000000E+00 -0.00000000000E+00 -0.45593999997E+02  0.45594000000E+02  0.51100000000E-03 0. -1.
    9900012    2    1    2    0    0  0.28539881688E+02 -0.71746091039E+01 -0.28056451270E+02  0.50528876541E+02  0.30000050734E+02 0.  0.
        -12    1    1    2    0    0 -0.28539881688E+02  0.71746091039E+01  0.28056451270E+02  0.40659123459E+02  0.00000000000E+00 0.  1.
         11    1    3    3    0    0  0.19985445363E+02  0.39430753528E+01 -0.14404046841E+02  0.24948796269E+02  0.51100000000E-03 0. -1.
        -11    1    3    3    0    0  0.12768361667E+02 -0.82557916885E+01 -0.59117694291E+01  0.16313741880E+02  0.51100000000E-03 0.  1.
         12    1    3    3    0    0 -0.42139253419E+01 -0.28618927683E+01 -0.77406349997E+01  0.92663383924E+01  0.00000000000E+00 0. -1.
</event>
<event>
 7    1  0.5041278E-013  0.5052886E+02  0.7816164E-02  0.1300439E+00
        -11   -1    0    0    0    0  0.00000000000E+00  0.00000000000E+00  0.45593999997E+02  0.45594000000E+02  0.51100000000E-03 0.  1.
         11   -1    0    0    0    0 -0.00000000000E+00 -0.00000000000E+00 -0.45593999997E+02  0.45594000000E+02  0.51100000000E-03 0. -1.
    9900012    2    1    2    0    0  0.20803125778E+02  0.34830271589E+02 -0.26922058534E+01  0.50528857935E+02  0.29999994179E+02 0.  0.
        -12    1    1    2    0    0 -0.20803125778E+02 -0.34830271589E+02  0.26922058534E+01  0.40659142065E+02  0.00000000000E+00 0.  1.
         11    1    3    3    0    0 -0.16541298502E+01  0.78095053973E+01  0.56244285224E+01  0.97651787785E+01  0.51100000000E-03 0.  1.
        -11    1    3    3    0    0  0.18249309616E+02  0.29711595714E+02 -0.66407952931E+01  0.35495300868E+02  0.51100000000E-03 0. -1.
         12    1    3    3    0    0  0.42079460123E+01 -0.26908295221E+01 -0.16758390827E+01  0.52683782885E+01  0.00000000000E+00 0. -1.
</event>
<event>
 7    1  0.5041278E-013  0.5052886E+02  0.7816164E-02  0.1300439E+00
        -11   -1    0    0    0    0  0.00000000000E+00  0.00000000000E+00  0.45593999997E+02  0.45594000000E+02  0.51100000000E-03 0.  1.
         11   -1    0    0    0    0 -0.00000000000E+00 -0.00000000000E+00 -0.45593999997E+02  0.45594000000E+02  0.51100000000E-03 0. -1.
    9900012    2    1    2    0    0 -0.11450667178E+01  0.70847791054E+01 -0.40020744989E+02  0.50528864467E+02  0.30000014035E+02 0.  0.
        -12    1    1    2    0    0  0.11450667178E+01 -0.70847791054E+01  0.40020744989E+02  0.40659135533E+02  0.00000000000E+00 0.  1.
         11    1    3    3    0    0  0.85295277292E+01 -0.22171613771E-01 -0.53939501601E+01  0.10091978669E+02  0.51100000000E-03 0.  1.
        -11    1    3    3    0    0 -0.20228167393E+01 -0.22114548779E+01 -0.24523783986E+02  0.24706240133E+02  0.51100000000E-03 0. -1.
        -12    1    3    3    0    0 -0.76517777078E+01  0.93184055971E+01 -0.10103010843E+02  0.15730645665E+02  0.00000000000E+00 0.  1.
</event>
<event>
 7    1  0.5041278E-013  0.5052885E+02  0.7816164E-02  0.1300439E+00
        -11   -1    0    0    0    0  0.00000000000E+00  0.00000000000E+00  0.45593999997E+02  0.45594000000E+02  0.51100000000E-03 0.  1.
         11   -1    0    0    0    0 -0.00000000000E+00 -0.00000000000E+00 -0.45593999997E+02  0.45594000000E+02  0.51100000000E-03 0. -1.
    9900012    2    1    2    0    0  0.24966019395E+01 -0.38727481381E+02  0.12129107691E+02  0.50528854796E+02  0.29999984637E+02 0.  0.
        -12    1    1    2    0    0 -0.24966019395E+01  0.38727481381E+02 -0.12129107691E+02  0.40659145204E+02  0.00000000000E+00 0.  1.
         11    1    3    3    0    0 -0.11841458230E+02 -0.18321546355E+02  0.32470941467E+01  0.22055448636E+02  0.51100000000E-03 0. -1.
        -11    1    3    3    0    0  0.12295457309E+01 -0.94661422131E+00 -0.20646165101E+01  0.25827316514E+01  0.51100000000E-03 0.  1.
         12    1    3    3    0    0  0.13108514438E+02 -0.19459320805E+02  0.10946630054E+02  0.25890674509E+02  0.00000000000E+00 0. -1.
</event>
<event>
 7    1  0.5041278E-013  0.5052884E+02  0.7816164E-02  0.1300439E+00
        -11   -1    0    0    0    0  0.00000000000E+00  0.00000000000E+00  0.45593999997E+02  0.45594000000E+02  0.51100000000E-03 0. -1.
         11   -1    0    0    0    0 -0.00000000000E+00 -0.00000000000E+00 -0.45593999997E+02  0.45594000000E+02  0.51100000000E-03 0.  1.
    9900012    2    1    2    0    0 -0.11827413594E+02 -0.37522360895E+02 -0.10264102757E+02  0.50528842546E+02  0.29999947403E+02 0.  0.
        -12    1    1    2    0    0  0.11827413594E+02  0.37522360895E+02  0.10264102757E+02  0.40659157454E+02  0.00000000000E+00 0.  1.
         11    1    3    3    0    0  0.61116035169E+01 -0.71636783641E+01 -0.10022900776E+02  0.13752400717E+02  0.51100000000E-03 0. -1.
        -11    1    3    3    0    0 -0.57402298304E+01 -0.62599945951E+01 -0.42041479069E+01  0.94769526073E+01  0.51100000000E-03 0.  1.
         12    1    3    3    0    0 -0.12198787281E+02 -0.24098687936E+02  0.39629459265E+01  0.27299489222E+02  0.00000000000E+00 0. -1.
</event>
<event>
 7    1  0.5041278E-013  0.5052886E+02  0.7816164E-02  0.1300439E+00
        -11   -1    0    0    0    0  0.00000000000E+00  0.00000000000E+00  0.45593999997E+02  0.45594000000E+02  0.51100000000E-03 0. -1.
         11   -1    0    0    0    0 -0.00000000000E+00 -0.00000000000E+00 -0.45593999997E+02  0.45594000000E+02  0.51100000000E-03 0.  1.
    9900012    2    1    2    0    0 -0.12889896123E+02 -0.36209914274E+02  0.13261167934E+02  0.50528857255E+02  0.29999992112E+02 0.  0.
        -12    1    1    2    0    0  0.12889896123E+02  0.36209914274E+02 -0.13261167934E+02  0.40659142745E+02  0.00000000000E+00 0.  1.
         11    1    3    3    0    0 -0.79519090490E-01 -0.12414989412E+02  0.14731751638E+02  0.19265585690E+02  0.51100000000E-03 0. -1.
        -11    1    3    3    0    0  0.23505745367E+01 -0.66538848953E+01 -0.42080816255E+01  0.82162848101E+01  0.51100000000E-03 0.  1.
         12    1    3    3    0    0 -0.15160951569E+02 -0.17141039967E+02  0.27374979218E+01  0.23046986755E+02  0.00000000000E+00 0. -1.
</event>
<event>
 7    1  0.5041278E-013  0.5052887E+02  0.7816164E-02  0.1300439E+00
        -11   -1    0    0    0    0  0.00000000000E+00  0.00000000000E+00  0.45593999997E+02  0.45594000000E+02  0.51100000000E-03 0.  1.
         11   -1    0    0    0    0 -0.00000000000E+00 -0.00000000000E+00 -0.45593999997E+02  0.45594000000E+02  0.51100000000E-03 0. -1.
    9900012    2    1    2    0    0  0.31899551405E+02 -0.11280405912E+02 -0.22546314562E+02  0.50528865261E+02  0.30000016449E+02 0.  0.
        -12    1    1    2    0    0 -0.31899551405E+02  0.11280405912E+02  0.22546314562E+02  0.40659134739E+02  0.00000000000E+00 0.  1.
         11    1    3    3    0    0  0.24318458973E+02 -0.66275749834E+01 -0.12460218133E+02  0.28117063025E+02  0.51100000000E-03 0. -1.
        -11    1    3    3    0    0 -0.11586380766E+01 -0.20945889412E+00 -0.12303550648E+02  0.12359760274E+02  0.51100000000E-03 0.  1.
        -12    1    3    3    0    0  0.87397305086E+01 -0.44433720349E+01  0.22174542190E+01  0.10052041963E+02  0.00000000000E+00 0.  1.
</event>
<event>
 7    1  0.5041278E-013  0.5052886E+02  0.7816164E-02  0.1300439E+00
        -11   -1    0    0    0    0  0.00000000000E+00  0.00000000000E+00  0.45593999997E+02  0.45594000000E+02  0.51100000000E-03 0. -1.
         11   -1    0    0    0    0 -0.00000000000E+00 -0.00000000000E+00 -0.45593999997E+02  0.45594000000E+02  0.51100000000E-03 0.  1.
    9900012    2    1    2    0    0 -0.27801077103E+02 -0.91809595576E+01  0.28213035312E+02  0.50528864889E+02  0.30000015316E+02 0.  0.
        -12    1    1    2    0    0  0.27801077103E+02  0.91809595576E+01 -0.28213035312E+02  0.40659135111E+02  0.00000000000E+00 0.  1.
         11    1    3    3    0    0 -0.94820938018E+01  0.61155703163E+01  0.15768579874E+02  0.19389647100E+02  0.51100000000E-03 0. -1.
        -11    1    3    3    0    0  0.22274914928E+01 -0.51877010971E+01  0.24202168640E+01  0.61425899223E+01  0.51100000000E-03 0.  1.
        -12    1    3    3    0    0 -0.20546474794E+02 -0.10108828777E+02  0.10024238574E+02  0.24996627867E+02  0.00000000000E+00 0.  1.
</event>
<event>
 7    1  0.5041278E-013  0.5052885E+02  0.7816164E-02  0.1300439E+00
        -11   -1    0    0    0    0  0.00000000000E+00  0.00000000000E+00  0.45593999997E+02  0.45594000000E+02  0.51100000000E-03 0.  1.
         11   -1    0    0    0    0 -0.00000000000E+00 -0.00000000000E+00 -0.45593999997E+02  0.45594000000E+02  0.51100000000E-03 0. -1.
    9900012    2    1    2    0    0 -0.12652105306E+02  0.30146630660E+02 -0.24171700178E+02  0.50528853448E+02  0.29999980541E+02 0.  0.
        -12    1    1    2    0    0  0.12652105306E+02 -0.30146630660E+02  0.24171700178E+02  0.40659146552E+02  0.00000000000E+00 0.  1.
         11    1    3    3    0    0  0.29909402359E+01  0.37546345675E+01 -0.74468369973E+01  0.88599314758E+01  0.51100000000E-03 0. -1.
        -11    1    3    3    0    0  0.51617225817E+01  0.10634661120E+02 -0.74422166236E+01  0.13968750326E+02  0.51100000000E-03 0.  1.
        -12    1    3    3    0    0 -0.20804768124E+02  0.15757334972E+02 -0.92826465576E+01  0.27700171646E+02  0.00000000000E+00 0.  1.
</event>
<event>
 7    1  0.5041278E-013  0.5052886E+02  0.7816164E-02  0.1300439E+00
        -11   -1    0    0    0    0  0.00000000000E+00  0.00000000000E+00  0.45593999997E+02  0.45594000000E+02  0.51100000000E-03 0.  1.
         11   -1    0    0    0    0 -0.00000000000E+00 -0.00000000000E+00 -0.45593999997E+02  0.45594000000E+02  0.51100000000E-03 0. -1.
    9900012    2    1    2    0    0 -0.36025497389E+02 -0.18842047371E+02 -0.55336210519E+00  0.50528863008E+02  0.30000009601E+02 0.  0.
        -12    1    1    2    0    0  0.36025497389E+02  0.18842047371E+02  0.55336210519E+00  0.40659136992E+02  0.00000000000E+00 0.  1.
         11    1    3    3    0    0 -0.12780306997E+02  0.19176413683E+01 -0.57299519515E+00  0.12936070466E+02  0.51100000000E-03 0. -1.
        -11    1    3    3    0    0 -0.58118168869E+01 -0.33853787504E+01 -0.91251422217E+01  0.11336058647E+02  0.51100000000E-03 0.  1.
        -12    1    3    3    0    0 -0.17433373506E+02 -0.17374309989E+02  0.91447753117E+01  0.26256733896E+02  0.00000000000E+00 0.  1.
</event>
<event>
 7    1  0.5041278E-013  0.5052888E+02  0.7816164E-02  0.1300439E+00
        -11   -1    0    0    0    0  0.00000000000E+00  0.00000000000E+00  0.45593999997E+02  0.45594000000E+02  0.51100000000E-03 0. -1.
         11   -1    0    0    0    0 -0.00000000000E+00 -0.00000000000E+00 -0.45593999997E+02  0.45594000000E+02  0.51100000000E-03 0.  1.
    9900012    2    1    2    0    0  0.22654755601E+02  0.30460471486E+02  0.14563172100E+02  0.50528877332E+02  0.30000053139E+02 0.  0.
        -12    1    1    2    0    0 -0.22654755601E+02 -0.30460471486E+02 -0.14563172100E+02  0.40659122668E+02  0.00000000000E+00 0.  1.
         11    1    3    3    0    0  0.10091948096E+02  0.18944957846E+00  0.23462114687E+01  0.10362818924E+02  0.51100000000E-03 0. -1.
        -11    1    3    3    0    0 -0.38793013990E+01  0.13183863557E+00  0.63768499589E+00  0.39335738439E+01  0.51100000000E-03 0.  1.
         12    1    3    3    0    0  0.16442108903E+02  0.30139183272E+02  0.11579275636E+02  0.36232484565E+02  0.00000000000E+00 0. -1.
</event>
<event>
 7    1  0.5041278E-013  0.5052885E+02  0.7816164E-02  0.1300439E+00
        -11   -1    0    0    0    0  0.00000000000E+00  0.00000000000E+00  0.45593999997E+02  0.45594000000E+02  0.51100000000E-03 0.  1.
         11   -1    0    0    0    0 -0.00000000000E+00 -0.00000000000E+00 -0.45593999997E+02  0.45594000000E+02  0.51100000000E-03 0. -1.
    9900012    2    1    2    0    0 -0.23434356960E+02  0.11739638947E+02 -0.31083412000E+02  0.50528847152E+02  0.29999961405E+02 0.  0.
        -12    1    1    2    0    0  0.23434356960E+02 -0.11739638947E+02  0.31083412000E+02  0.40659152848E+02  0.00000000000E+00 0.  1.
         11    1    3    3    0    0 -0.17509571203E+02 -0.15242829359E+01 -0.13985283334E+02  0.22461003370E+02  0.51100000000E-03 0. -1.
        -11    1    3    3    0    0 -0.11172721446E+02  0.11085018232E+02 -0.15668832213E+02  0.22208548734E+02  0.51100000000E-03 0.  1.
        -12    1    3    3    0    0  0.52479356887E+01  0.21789036515E+01 -0.14292964523E+01  0.58592950483E+01  0.00000000000E+00 0.  1.
</event>
<event>
 7    1  0.5041278E-013  0.5052884E+02  0.7816164E-02  0.1300439E+00
        -11   -1    0    0    0    0  0.00000000000E+00  0.00000000000E+00  0.45593999997E+02  0.45594000000E+02  0.51100000000E-03 0.  1.
         11   -1    0    0    0    0 -0.00000000000E+00 -0.00000000000E+00 -0.45593999997E+02  0.45594000000E+02  0.51100000000E-03 0. -1.
    9900012    2    1    2    0    0 -0.18914582022E+02  0.11529110763E+02 -0.34095242881E+02  0.50528838731E+02  0.29999935805E+02 0.  0.
        -12    1    1    2    0    0  0.18914582022E+02 -0.11529110763E+02  0.34095242881E+02  0.40659161269E+02  0.00000000000E+00 0.  1.
         11    1    3    3    0    0  0.28782014576E+01  0.10272157315E+01 -0.77553321020E+00  0.31528824607E+01  0.51100000000E-03 0. -1.
        -11    1    3    3    0    0 -0.15376973269E+02  0.19923982985E+01 -0.37615183383E+01  0.15955249242E+02  0.51100000000E-03 0.  1.
         12    1    3    3    0    0 -0.64158102100E+01  0.85094967325E+01 -0.29558191332E+02  0.31420707028E+02  0.00000000000E+00 0. -1.
</event>
<event>
 7    1  0.5041278E-013  0.5052886E+02  0.7816164E-02  0.1300439E+00
        -11   -1    0    0    0    0  0.00000000000E+00  0.00000000000E+00  0.45593999997E+02  0.45594000000E+02  0.51100000000E-03 0. -1.
         11   -1    0    0    0    0 -0.00000000000E+00 -0.00000000000E+00 -0.45593999997E+02  0.45594000000E+02  0.51100000000E-03 0.  1.
    9900012    2    1    2    0    0  0.24358847704E+02 -0.32194885900E+02  0.48271775950E+01  0.50528858554E+02  0.29999996061E+02 0.  0.
        -12    1    1    2    0    0 -0.24358847704E+02  0.32194885900E+02 -0.48271775950E+01  0.40659141446E+02  0.00000000000E+00 0.  1.
         11    1    3    3    0    0  0.56235676597E+01 -0.13728850517E+02  0.50596115923E+01  0.15674996634E+02  0.51100000000E-03 0. -1.
        -11    1    3    3    0    0  0.22000905652E+02 -0.16983020469E+02 -0.56451296883E+01  0.28360717960E+02  0.51100000000E-03 0.  1.
         12    1    3    3    0    0 -0.32656256077E+01 -0.14830149141E+01  0.54126956910E+01  0.64931439602E+01  0.00000000000E+00 0. -1.
</event>
<event>
 7    1  0.5041278E-013  0.5052886E+02  0.7816164E-02  0.1300439E+00
        -11   -1    0    0    0    0  0.00000000000E+00  0.00000000000E+00  0.45593999997E+02  0.45594000000E+02  0.51100000000E-03 0.  1.
         11   -1    0    0    0    0 -0.00000000000E+00 -0.00000000000E+00 -0.45593999997E+02  0.45594000000E+02  0.51100000000E-03 0. -1.
    9900012    2    1    2    0    0  0.61515424816E+01  0.90902431452E+01 -0.39149607346E+02  0.50528858953E+02  0.29999997273E+02 0.  0.
        -12    1    1    2    0    0 -0.61515424816E+01 -0.90902431452E+01  0.39149607346E+02  0.40659141047E+02  0.00000000000E+00 0.  1.
         11    1    3    3    0    0 -0.44448947919E+01  0.75678368314E+01 -0.32977726037E+02  0.34125645179E+02  0.51100000000E-03 0. -1.
        -11    1    3    3    0    0  0.42425167915E+01  0.40898371971E+01  0.15356199664E+01  0.60896507262E+01  0.51100000000E-03 0.  1.
        -12    1    3    3    0    0  0.63539204819E+01 -0.25674308833E+01 -0.77075012756E+01  0.10313563048E+02  0.00000000000E+00 0.  1.
</event>
<event>
 7    1  0.5041278E-013  0.5052886E+02  0.7816164E-02  0.1300439E+00
        -11   -1    0    0    0    0  0.00000000000E+00  0.00000000000E+00  0.45593999997E+02  0.45594000000E+02  0.51100000000E-03 0.  1.
         11   -1    0    0    0    0 -0.00000000000E+00 -0.00000000000E+00 -0.45593999997E+02  0.45594000000E+02  0.51100000000E-03 0. -1.
    9900012    2    1    2    0    0 -0.12468252182E+02  0.34077089534E+02 -0.18342854889E+02  0.50528859956E+02  0.30000000324E+02 0.  0.
        -12    1    1    2    0    0  0.12468252182E+02 -0.34077089534E+02  0.18342854889E+02  0.40659140044E+02  0.00000000000E+00 0.  1.
         11    1    3    3    0    0  0.19454639866E+01  0.16014872518E+01 -0.93369885174E-01  0.25215689040E+01  0.51100000000E-03 0. -1.
        -11    1    3    3    0    0 -0.58804372073E+01  0.12541844756E+02 -0.22004172411E+02  0.26001173347E+02  0.51100000000E-03 0.  1.
         12    1    3    3    0    0 -0.85332789612E+01  0.19933757526E+02  0.37546874077E+01  0.22006117706E+02  0.00000000000E+00 0. -1.
</event>
<event>
 7    1  0.5041278E-013  0.5052885E+02  0.7816164E-02  0.1300439E+00
        -11   -1    0    0    0    0  0.00000000000E+00  0.00000000000E+00  0.45593999997E+02  0.45594000000E+02  0.51100000000E-03 0.  1.
         11   -1    0    0    0    0 -0.00000000000E+00 -0.00000000000E+00 -0.45593999997E+02  0.45594000000E+02  0.51100000000E-03 0. -1.
    9900012    2    1    2    0    0  0.31113785189E+02  0.10585728027E+02 -0.23938274313E+02  0.50528852890E+02  0.29999978844E+02 0.  0.
        -12    1    1    2    0    0 -0.31113785189E+02 -0.10585728027E+02  0.23938274313E+02  0.40659147110E+02  0.00000000000E+00 0.  1.
         11    1    3    3    0    0  0.51899041544E+01  0.77109312789E+01 -0.10703661768E+02  0.14176104607E+02  0.51100000000E-03 0. -1.
        -11    1    3    3    0    0  0.18062207827E+02 -0.17744856218E+01 -0.18412435672E+02  0.25853625248E+02  0.51100000000E-03 0.  1.
         12    1    3    3    0    0  0.78616732071E+01  0.46492823700E+01  0.51778231270E+01  0.10499123035E+02  0.00000000000E+00 0. -1.
</event>
<event>
 7    1  0.5041278E-013  0.5052887E+02  0.7816164E-02  0.1300439E+00
        -11   -1    0    0    0    0  0.00000000000E+00  0.00000000000E+00  0.45593999997E+02  0.45594000000E+02  0.51100000000E-03 0. -1.
         11   -1    0    0    0    0 -0.00000000000E+00 -0.00000000000E+00 -0.45593999997E+02  0.45594000000E+02  0.51100000000E-03 0.  1.
    9900012    2    1    2    0    0 -0.23498749926E+02 -0.20504395880E+02  0.26087231776E+02  0.50528866214E+02  0.30000019344E+02 0.  0.
        -12    1    1    2    0    0  0.23498749926E+02  0.20504395880E+02 -0.26087231776E+02  0.40659133786E+02  0.00000000000E+00 0.  1.
         11    1    3    3    0    0 -0.97363952700E+01 -0.27398285155E+01  0.16884510282E+02  0.19682244305E+02  0.51100000000E-03 0. -1.
        -11    1    3    3    0    0 -0.84988314488E+00  0.40122040738E+01  0.86139504659E+00  0.41907140892E+01  0.51100000000E-03 0.  1.
         12    1    3    3    0    0 -0.12912471511E+02 -0.21776771439E+02  0.83413264472E+01  0.26655907820E+02  0.00000000000E+00 0. -1.
</event>
<event>
 7    1  0.5041278E-013  0.5052886E+02  0.7816164E-02  0.1300439E+00
        -11   -1    0    0    0    0  0.00000000000E+00  0.00000000000E+00  0.45593999997E+02  0.45594000000E+02  0.51100000000E-03 0.  1.
         11   -1    0    0    0    0 -0.00000000000E+00 -0.00000000000E+00 -0.45593999997E+02  0.45594000000E+02  0.51100000000E-03 0. -1.
    9900012    2    1    2    0    0 -0.30843743441E+01 -0.12144083770E+02 -0.38680398745E+02  0.50528863477E+02  0.30000011024E+02 0.  0.
        -12    1    1    2    0    0  0.30843743441E+01  0.12144083770E+02  0.38680398745E+02  0.40659136523E+02  0.00000000000E+00 0.  1.
         11    1    3    3    0    0  0.46559556523E+00 -0.11088565171E+02 -0.11541165556E+02  0.16011607022E+02  0.51100000000E-03 0. -1.
        -11    1    3    3    0    0  0.50605120087E+01 -0.83799506629E+01 -0.15163417275E+02  0.18048866408E+02  0.51100000000E-03 0.  1.
        -12    1    3    3    0    0 -0.86104819180E+01  0.73244320638E+01 -0.11975815915E+02  0.16468390047E+02  0.00000000000E+00 0.  1.
</event>
<event>
 7    1  0.5041278E-013  0.5052887E+02  0.7816164E-02  0.1300439E+00
        -11   -1    0    0    0    0  0.00000000000E+00  0.00000000000E+00  0.45593999997E+02  0.45594000000E+02  0.51100000000E-03 0. -1.
         11   -1    0    0    0    0 -0.00000000000E+00 -0.00000000000E+00 -0.45593999997E+02  0.45594000000E+02  0.51100000000E-03 0.  1.
    9900012    2    1    2    0    0 -0.84110203128E+01  0.12541682480E+02  0.37750842520E+02  0.50528866056E+02  0.30000018864E+02 0.  0.
        -12    1    1    2    0    0  0.84110203128E+01 -0.12541682480E+02 -0.37750842520E+02  0.40659133944E+02  0.00000000000E+00 0.  1.
         11    1    3    3    0    0 -0.25595787546E+01 -0.16864730798E+01  0.13847861126E+02  0.14183049491E+02  0.51100000000E-03 0. -1.
        -11    1    3    3    0    0  0.86277102181E+01  0.62893953185E+01  0.11512745517E+02  0.15701502688E+02  0.51100000000E-03 0.  1.
         12    1    3    3    0    0 -0.14479151776E+02  0.79387602412E+01  0.12390235877E+02  0.20644313876E+02  0.00000000000E+00 0. -1.
</event>
<event>
 7    1  0.6699339E-013  0.5052887E+02  0.7816164E-02  0.1300439E+00
        -11   -1    0    0    0    0  0.00000000000E+00  0.00000000000E+00  0.45593999997E+02  0.45594000000E+02  0.51100000000E-03 0.  1.
         11   -1    0    0    0    0 -0.00000000000E+00 -0.00000000000E+00 -0.45593999997E+02  0.45594000000E+02  0.51100000000E-03 0. -1.
    9900012    2    1    2    0    0 -0.33103896670E+02  0.13302639408E+02 -0.19502231337E+02  0.50528865514E+02  0.30000017217E+02 0.  0.
        -12    1    1    2    0    0  0.33103896670E+02 -0.13302639408E+02  0.19502231337E+02  0.40659134486E+02  0.00000000000E+00 0.  1.
         11    1    3    3    0    0 -0.58733664909E+01  0.18705051239E+01 -0.12517691008E+02  0.13953057435E+02  0.51100000000E-03 0. -1.
        -11    1    3    3    0    0 -0.20048668443E+01  0.29938676403E+00  0.58286163878E+01  0.61710528076E+01  0.51100000000E-03 0.  1.
         12    1    3    3    0    0 -0.25225663335E+02  0.11132747521E+02 -0.12813156717E+02  0.30404755271E+02  0.00000000000E+00 0. -1.
</event>
<event>
 7    1  0.5041278E-013  0.5052885E+02  0.7816164E-02  0.1300439E+00
        -11   -1    0    0    0    0  0.00000000000E+00  0.00000000000E+00  0.45593999997E+02  0.45594000000E+02  0.51100000000E-03 0.  1.
         11   -1    0    0    0    0 -0.00000000000E+00 -0.00000000000E+00 -0.45593999997E+02  0.45594000000E+02  0.51100000000E-03 0. -1.
    9900012    2    1    2    0    0 -0.75435946804E+01 -0.23059909651E+02 -0.32626695291E+02  0.50528849745E+02  0.29999969285E+02 0.  0.
        -12    1    1    2    0    0  0.75435946804E+01  0.23059909651E+02  0.32626695291E+02  0.40659150255E+02  0.00000000000E+00 0.  1.
         11    1    3    3    0    0  0.56703549354E+01 -0.16014878026E+02 -0.83463577837E+01  0.18928574478E+02  0.51100000000E-03 0. -1.
        -11    1    3    3    0    0 -0.12318427230E+01 -0.67849432211E+01 -0.38069618714E+01  0.78769188113E+01  0.51100000000E-03 0.  1.
        -12    1    3    3    0    0 -0.11982106893E+02 -0.26008840449E+00 -0.20473375636E+02  0.23723356455E+02  0.00000000000E+00 0.  1.
</event>
<event>
 7    1  0.5041278E-013  0.5052886E+02  0.7816164E-02  0.1300439E+00
        -11   -1    0    0    0    0  0.00000000000E+00  0.00000000000E+00  0.45593999997E+02  0.45594000000E+02  0.51100000000E-03 0.  1.
         11   -1    0    0    0    0 -0.00000000000E+00 -0.00000000000E+00 -0.45593999997E+02  0.45594000000E+02  0.51100000000E-03 0. -1.
    9900012    2    1    2    0    0  0.16107217603E+02  0.23993304322E+02 -0.28601471144E+02  0.50528864953E+02  0.30000015510E+02 0.  0.
        -12    1    1    2    0    0 -0.16107217603E+02 -0.23993304322E+02  0.28601471144E+02  0.40659135047E+02  0.00000000000E+00 0.  1.
         11    1    3    3    0    0  0.12252054925E+01 -0.23173099509E+01 -0.15408213396E+01  0.30405895101E+01  0.51100000000E-03 0. -1.
        -11    1    3    3    0    0  0.13655434702E+02  0.15149990339E+02 -0.29629027824E+02  0.35970437782E+02  0.51100000000E-03 0.  1.
         12    1    3    3    0    0  0.12265774087E+01  0.11160623933E+02  0.25683780192E+01  0.11517837660E+02  0.00000000000E+00 0. -1.
</event>
<event>
 7    1  0.5041278E-013  0.5052885E+02  0.7816164E-02  0.1300439E+00
        -11   -1    0    0    0    0  0.00000000000E+00  0.00000000000E+00  0.45593999997E+02  0.45594000000E+02  0.51100000000E-03 0.  1.
         11   -1    0    0    0    0 -0.00000000000E+00 -0.00000000000E+00 -0.45593999997E+02  0.45594000000E+02  0.51100000000E-03 0. -1.
    9900012    2    1    2    0    0 -0.19799633009E+02 -0.23687103115E+02 -0.26458685902E+02  0.50528851203E+02  0.29999973716E+02 0.  0.
        -12    1    1    2    0    0  0.19799633009E+02  0.23687103115E+02  0.26458685902E+02  0.40659148797E+02  0.00000000000E+00 0.  1.
         11    1    3    3    0    0 -0.43871510280E+01 -0.17774704859E+02 -0.20351984072E+02  0.27374997404E+02  0.51100000000E-03 0. -1.
        -11    1    3    3    0    0  0.13329269286E+01 -0.30917950182E+01  0.24254940647E+01  0.41495677306E+01  0.51100000000E-03 0.  1.
        -12    1    3    3    0    0 -0.16745408909E+02 -0.28206032376E+01 -0.85321958950E+01  0.19004286068E+02  0.00000000000E+00 0.  1.
</event>
<event>
 7    1  0.5041278E-013  0.5052887E+02  0.7816164E-02  0.1300439E+00
        -11   -1    0    0    0    0  0.00000000000E+00  0.00000000000E+00  0.45593999997E+02  0.45594000000E+02  0.51100000000E-03 0.  1.
         11   -1    0    0    0    0 -0.00000000000E+00 -0.00000000000E+00 -0.45593999997E+02  0.45594000000E+02  0.51100000000E-03 0. -1.
    9900012    2    1    2    0    0  0.34627103074E+02  0.72064901421E+01 -0.20054792253E+02  0.50528874828E+02  0.30000045527E+02 0.  0.
        -12    1    1    2    0    0 -0.34627103074E+02 -0.72064901421E+01  0.20054792253E+02  0.40659125172E+02  0.00000000000E+00 0.  1.
         11    1    3    3    0    0  0.14007169280E+02 -0.73965078979E+01 -0.51221639987E+01  0.16647693071E+02  0.51100000000E-03 0. -1.
        -11    1    3    3    0    0  0.64992040704E+01  0.35788635919E+01 -0.14117280345E+02  0.15948213779E+02  0.51100000000E-03 0.  1.
         12    1    3    3    0    0  0.14120729724E+02  0.11024134448E+02 -0.81534790968E+00  0.17932967977E+02  0.00000000000E+00 0. -1.
</event>
<event>
 7    1  0.5041278E-013  0.5052886E+02  0.7816164E-02  0.1300439E+00
        -11   -1    0    0    0    0  0.00000000000E+00  0.00000000000E+00  0.45593999997E+02  0.45594000000E+02  0.51100000000E-03 0.  1.
         11   -1    0    0    0    0 -0.00000000000E+00 -0.00000000000E+00 -0.45593999997E+02  0.45594000000E+02  0.51100000000E-03 0. -1.
    9900012    2    1    2    0    0  0.36682408267E+02 -0.75790497068E+01 -0.15815329322E+02  0.50528859425E+02  0.29999998709E+02 0.  0.
        -12    1    1    2    0    0 -0.36682408267E+02  0.75790497068E+01  0.15815329322E+02  0.40659140575E+02  0.00000000000E+00 0.  1.
         11    1    3    3    0    0  0.10011442383E+02  0.17121484265E+01 -0.10053134361E+02  0.14290764204E+02  0.51100000000E-03 0. -1.
        -11    1    3    3    0    0  0.11783777338E+02  0.50876460474E+01  0.38746186144E+01  0.13407245068E+02  0.51100000000E-03 0.  1.
        -12    1    3    3    0    0  0.14887188547E+02 -0.14378844181E+02 -0.96368135760E+01  0.22830850153E+02  0.00000000000E+00 0.  1.
</event>
<event>
 7    1  0.5041278E-013  0.5052887E+02  0.7816164E-02  0.1300439E+00
        -11   -1    0    0    0    0  0.00000000000E+00  0.00000000000E+00  0.45593999997E+02  0.45594000000E+02  0.51100000000E-03 0. -1.
         11   -1    0    0    0    0 -0.00000000000E+00 -0.00000000000E+00 -0.45593999997E+02  0.45594000000E+02  0.51100000000E-03 0.  1.
    9900012    2    1    2    0    0  0.27039972526E+02 -0.29759021896E+02 -0.60336926704E+01  0.50528868853E+02  0.30000027366E+02 0.  0.
        -12    1    1    2    0    0 -0.27039972526E+02  0.29759021896E+02  0.60336926704E+01  0.40659131147E+02  0.00000000000E+00 0.  1.
         11    1    3    3    0    0  0.22784267631E+02 -0.27423581942E+02 -0.85448313316E+01  0.36663194633E+02  0.51100000000E-03 0. -1.
        -11    1    3    3    0    0 -0.16419899145E+01 -0.49852138838E+01 -0.23754434765E+01  0.57611821979E+01  0.51100000000E-03 0.  1.
         12    1    3    3    0    0  0.58976948093E+01  0.26497739296E+01  0.48865821377E+01  0.81044920217E+01  0.00000000000E+00 0. -1.
</event>
<event>
 7    1  0.5041278E-013  0.5052884E+02  0.7816164E-02  0.1300439E+00
        -11   -1    0    0    0    0  0.00000000000E+00  0.00000000000E+00  0.45593999997E+02  0.45594000000E+02  0.51100000000E-03 0.  1.
         11   -1    0    0    0    0 -0.00000000000E+00 -0.00000000000E+00 -0.45593999997E+02  0.45594000000E+02  0.51100000000E-03 0. -1.
    9900012    2    1    2    0    0  0.20318049085E+02 -0.35174680269E+02  0.17567691378E+01  0.50528837583E+02  0.29999932317E+02 0.  0.
        -12    1    1    2    0    0 -0.20318049085E+02  0.35174680269E+02 -0.17567691378E+01  0.40659162417E+02  0.00000000000E+00 0.  1.
         11    1    3    3    0    0  0.40926721427E+01 -0.92992342322E+01  0.93948992032E+01  0.13837985904E+02  0.51100000000E-03 0. -1.
        -11    1    3    3    0    0 -0.22640612072E+01  0.12119401894E+01  0.10326505923E+01  0.27678763844E+01  0.51100000000E-03 0.  1.
        -12    1    3    3    0    0  0.18489438150E+02 -0.27087386226E+02 -0.86707806577E+01  0.33922975295E+02  0.00000000000E+00 0.  1.
</event>
<event>
 7    1  0.5041278E-013  0.5052888E+02  0.7816164E-02  0.1300439E+00
        -11   -1    0    0    0    0  0.00000000000E+00  0.00000000000E+00  0.45593999997E+02  0.45594000000E+02  0.51100000000E-03 0. -1.
         11   -1    0    0    0    0 -0.00000000000E+00 -0.00000000000E+00 -0.45593999997E+02  0.45594000000E+02  0.51100000000E-03 0.  1.
    9900012    2    1    2    0    0 -0.14741161187E+02  0.26759083445E+02 -0.26829349339E+02  0.50528875982E+02  0.30000049035E+02 0.  0.
        -12    1    1    2    0    0  0.14741161187E+02 -0.26759083445E+02  0.26829349339E+02  0.40659124018E+02  0.00000000000E+00 0.  1.
         11    1    3    3    0    0  0.12382506595E+01  0.24261628027E+01  0.35164833493E+01  0.44480541867E+01  0.51100000000E-03 0. -1.
        -11    1    3    3    0    0 -0.10121690753E+02  0.35356104751E+01 -0.28168268700E+01  0.11085291110E+02  0.51100000000E-03 0.  1.
         12    1    3    3    0    0 -0.58577210935E+01  0.20797310168E+02 -0.27529005818E+02  0.34995530685E+02  0.00000000000E+00 0. -1.
</event>
<event>
 7    1  0.5041278E-013  0.5052888E+02  0.7816164E-02  0.1300439E+00
        -11   -1    0    0    0    0  0.00000000000E+00  0.00000000000E+00  0.45593999997E+02  0.45594000000E+02  0.51100000000E-03 0.  1.
         11   -1    0    0    0    0 -0.00000000000E+00 -0.00000000000E+00 -0.45593999997E+02  0.45594000000E+02  0.51100000000E-03 0. -1.
    9900012    2    1    2    0    0 -0.37102650966E+01 -0.29357210785E+02 -0.27884621115E+02  0.50528880643E+02  0.30000063202E+02 0.  0.
        -12    1    1    2    0    0  0.37102650966E+01  0.29357210785E+02  0.27884621115E+02  0.40659119357E+02  0.00000000000E+00 0.  1.
         11    1    3    3    0    0  0.42935761658E+01 -0.22556105972E+02 -0.20961828197E+02  0.31090367552E+02  0.51100000000E-03 0. -1.
        -11    1    3    3    0    0  0.26169884173E+01  0.17899985270E+01  0.13743516068E+01  0.34556570580E+01  0.51100000000E-03 0.  1.
         12    1    3    3    0    0 -0.10620829680E+02 -0.85911033398E+01 -0.82971445250E+01  0.15982856032E+02  0.00000000000E+00 0. -1.
</event>
<event>
 7    1  0.5041278E-013  0.5052888E+02  0.7816164E-02  0.1300439E+00
        -11   -1    0    0    0    0  0.00000000000E+00  0.00000000000E+00  0.45593999997E+02  0.45594000000E+02  0.51100000000E-03 0.  1.
         11   -1    0    0    0    0 -0.00000000000E+00 -0.00000000000E+00 -0.45593999997E+02  0.45594000000E+02  0.51100000000E-03 0. -1.
    9900012    2    1    2    0    0 -0.77057991060E+01 -0.28910935947E+02 -0.27530756103E+02  0.50528879390E+02  0.30000059395E+02 0.  0.
        -12    1    1    2    0    0  0.77057991060E+01  0.28910935947E+02  0.27530756103E+02  0.40659120610E+02  0.00000000000E+00 0.  1.
         11    1    3    3    0    0 -0.13671594552E+02 -0.11031995021E+02 -0.12287704323E+02  0.21438402215E+02  0.51100000000E-03 0. -1.
        -11    1    3    3    0    0  0.21449645192E+01 -0.20697184641E+01 -0.12180960714E+02  0.12540351330E+02  0.51100000000E-03 0.  1.
        -12    1    3    3    0    0  0.38208309265E+01 -0.15809222461E+02 -0.30620910657E+01  0.16550125845E+02  0.00000000000E+00 0.  1.
</event>
<event>
 7    1  0.5041278E-013  0.5052879E+02  0.7816164E-02  0.1300439E+00
        -11   -1    0    0    0    0  0.00000000000E+00  0.00000000000E+00  0.45593999997E+02  0.45594000000E+02  0.51100000000E-03 0. -1.
         11   -1    0    0    0    0 -0.00000000000E+00 -0.00000000000E+00 -0.45593999997E+02  0.45594000000E+02  0.51100000000E-03 0.  1.
    9900012    2    1    2    0    0 -0.26649748235E+02 -0.16065879114E+02  0.26169629360E+02  0.50528793742E+02  0.29999799056E+02 0.  0.
        -12    1    1    2    0    0  0.26649748235E+02  0.16065879114E+02 -0.26169629360E+02  0.40659206258E+02  0.00000000000E+00 0.  1.
         11    1    3    3    0    0 -0.96787841597E+01 -0.55945090332E+01  0.12870963278E+02  0.17048140371E+02  0.51100000000E-03 0. -1.
        -11    1    3    3    0    0 -0.92476269997E+01 -0.14394428289E+02 -0.58177869741E+00  0.17118897091E+02  0.51100000000E-03 0.  1.
         12    1    3    3    0    0 -0.77233370761E+01  0.39230582082E+01  0.13880444780E+02  0.16361756280E+02  0.00000000000E+00 0. -1.
</event>
<event>
 7    1  0.5041278E-013  0.5052886E+02  0.7816164E-02  0.1300439E+00
        -11   -1    0    0    0    0  0.00000000000E+00  0.00000000000E+00  0.45593999997E+02  0.45594000000E+02  0.51100000000E-03 0.  1.
         11   -1    0    0    0    0 -0.00000000000E+00 -0.00000000000E+00 -0.45593999997E+02  0.45594000000E+02  0.51100000000E-03 0. -1.
    9900012    2    1    2    0    0 -0.29111161105E+02 -0.23164339762E+02  0.16404859187E+02  0.50528859054E+02  0.29999997581E+02 0.  0.
        -12    1    1    2    0    0  0.29111161105E+02  0.23164339762E+02 -0.16404859187E+02  0.40659140946E+02  0.00000000000E+00 0.  1.
         11    1    3    3    0    0 -0.16764455557E+02 -0.32395823492E+01  0.30079215565E+01  0.17337515862E+02  0.51100000000E-03 0. -1.
        -11    1    3    3    0    0 -0.17007189843E+02 -0.15230492386E+02  0.13599027855E+02  0.26573407074E+02  0.51100000000E-03 0.  1.
        -12    1    3    3    0    0  0.46604842943E+01 -0.46942650271E+01 -0.20209022440E+00  0.66179361179E+01  0.00000000000E+00 0.  1.
</event>
<event>
 7    1  0.5041278E-013  0.5052884E+02  0.7816164E-02  0.1300439E+00
        -11   -1    0    0    0    0  0.00000000000E+00  0.00000000000E+00  0.45593999997E+02  0.45594000000E+02  0.51100000000E-03 0.  1.
         11   -1    0    0    0    0 -0.00000000000E+00 -0.00000000000E+00 -0.45593999997E+02  0.45594000000E+02  0.51100000000E-03 0. -1.
    9900012    2    1    2    0    0  0.21873564405E+02 -0.21041874926E+01 -0.34209450132E+02  0.50528844781E+02  0.29999954195E+02 0.  0.
        -12    1    1    2    0    0 -0.21873564405E+02  0.21041874926E+01  0.34209450132E+02  0.40659155219E+02  0.00000000000E+00 0.  1.
         11    1    3    3    0    0  0.69882325844E+01 -0.65441237625E+01 -0.12082808621E+01  0.96499167549E+01  0.51100000000E-03 0. -1.
        -11    1    3    3    0    0  0.58917048210E+01  0.52144022718E+01 -0.13715999055E+01  0.79864549902E+01  0.51100000000E-03 0.  1.
        -12    1    3    3    0    0  0.89936269996E+01 -0.77446600180E+00 -0.31629569365E+02  0.32892473036E+02  0.00000000000E+00 0.  1.
</event>
<event>
 7    1  0.5041278E-013  0.5052886E+02  0.7816164E-02  0.1300439E+00
        -11   -1    0    0    0    0  0.00000000000E+00  0.00000000000E+00  0.45593999997E+02  0.45594000000E+02  0.51100000000E-03 0.  1.
         11   -1    0    0    0    0 -0.00000000000E+00 -0.00000000000E+00 -0.45593999997E+02  0.45594000000E+02  0.51100000000E-03 0. -1.
    9900012    2    1    2    0    0 -0.23134575093E+02 -0.18049106979E+02 -0.28145820142E+02  0.50528855655E+02  0.29999987248E+02 0.  0.
        -12    1    1    2    0    0  0.23134575093E+02  0.18049106979E+02  0.28145820142E+02  0.40659144345E+02  0.00000000000E+00 0.  1.
         11    1    3    3    0    0 -0.14224905165E+02 -0.13393800574E+02 -0.14889682814E+02  0.24565106866E+02  0.51100000000E-03 0. -1.
        -11    1    3    3    0    0 -0.15257293639E+02 -0.22861859836E+01 -0.79349076180E+01  0.17348614201E+02  0.51100000000E-03 0.  1.
        -12    1    3    3    0    0  0.63476237109E+01 -0.23691204215E+01 -0.53212297093E+01  0.86151345878E+01  0.00000000000E+00 0.  1.
</event>
<event>
 7    1  0.5041278E-013  0.5052886E+02  0.7816164E-02  0.1300439E+00
        -11   -1    0    0    0    0  0.00000000000E+00  0.00000000000E+00  0.45593999997E+02  0.45594000000E+02  0.51100000000E-03 0.  1.
         11   -1    0    0    0    0 -0.00000000000E+00 -0.00000000000E+00 -0.45593999997E+02  0.45594000000E+02  0.51100000000E-03 0. -1.
    9900012    2    1    2    0    0  0.16105767031E+02 -0.84043844592E+01 -0.36374942065E+02  0.50528858100E+02  0.29999994681E+02 0.  0.
        -12    1    1    2    0    0 -0.16105767031E+02  0.84043844592E+01  0.36374942065E+02  0.40659141900E+02  0.00000000000E+00 0.  1.
         11    1    3    3    0    0  0.58589054521E+01 -0.10751283352E+02 -0.92357300017E+01  0.15336739410E+02  0.51100000000E-03 0. -1.
        -11    1    3    3    0    0  0.10656846209E+02 -0.56580288829E+01 -0.23442373004E+02  0.26365252024E+02  0.51100000000E-03 0.  1.
        -12    1    3    3    0    0 -0.40998463049E+00  0.80049277760E+01 -0.36968390594E+01  0.88268666653E+01  0.00000000000E+00 0.  1.
</event>
<event>
 7    1  0.5041278E-013  0.5052886E+02  0.7816164E-02  0.1300439E+00
        -11   -1    0    0    0    0  0.00000000000E+00  0.00000000000E+00  0.45593999997E+02  0.45594000000E+02  0.51100000000E-03 0.  1.
         11   -1    0    0    0    0 -0.00000000000E+00 -0.00000000000E+00 -0.45593999997E+02  0.45594000000E+02  0.51100000000E-03 0. -1.
    9900012    2    1    2    0    0 -0.28954567160E+02 -0.28264311047E+02 -0.39908971853E+01  0.50528862051E+02  0.30000006690E+02 0.  0.
        -12    1    1    2    0    0  0.28954567160E+02  0.28264311047E+02  0.39908971853E+01  0.40659137949E+02  0.00000000000E+00 0.  1.
         11    1    3    3    0    0 -0.34122093509E+01 -0.23098899868E+01 -0.49931540795E+01  0.64738205357E+01  0.51100000000E-03 0. -1.
        -11    1    3    3    0    0  0.40372772628E+01  0.67984209690E+00 -0.95199651668E+00  0.42033427891E+01  0.51100000000E-03 0.  1.
        -12    1    3    3    0    0 -0.29579635072E+02 -0.26634263157E+02  0.19542534109E+01  0.39851698726E+02  0.00000000000E+00 0.  1.
</event>
<event>
 7    1  0.5041278E-013  0.5052886E+02  0.7816164E-02  0.1300439E+00
        -11   -1    0    0    0    0  0.00000000000E+00  0.00000000000E+00  0.45593999997E+02  0.45594000000E+02  0.51100000000E-03 0. -1.
         11   -1    0    0    0    0 -0.00000000000E+00 -0.00000000000E+00 -0.45593999997E+02  0.45594000000E+02  0.51100000000E-03 0.  1.
    9900012    2    1    2    0    0  0.63950544710E+01 -0.18387167361E+02  0.35695673800E+02  0.50528858675E+02  0.29999996428E+02 0.  0.
        -12    1    1    2    0    0 -0.63950544710E+01  0.18387167361E+02 -0.35695673800E+02  0.40659141325E+02  0.00000000000E+00 0.  1.
         11    1    3    3    0    0  0.46237240360E+01 -0.97265542007E+01  0.12429452600E+02  0.16446153738E+02  0.51100000000E-03 0. -1.
        -11    1    3    3    0    0 -0.23757300852E+01 -0.94886062364E+00  0.25021894239E+02  0.25152328351E+02  0.51100000000E-03 0.  1.
         12    1    3    3    0    0  0.41470605201E+01 -0.77117525367E+01 -0.17556730383E+01  0.89303765857E+01  0.00000000000E+00 0. -1.
</event>
<event>
 7    1  0.5041278E-013  0.5052886E+02  0.7816164E-02  0.1300439E+00
        -11   -1    0    0    0    0  0.00000000000E+00  0.00000000000E+00  0.45593999997E+02  0.45594000000E+02  0.51100000000E-03 0.  1.
         11   -1    0    0    0    0 -0.00000000000E+00 -0.00000000000E+00 -0.45593999997E+02  0.45594000000E+02  0.51100000000E-03 0. -1.
    9900012    2    1    2    0    0 -0.21950859772E+02 -0.32676741809E+02 -0.10176230847E+02  0.50528863582E+02  0.30000011344E+02 0.  0.
        -12    1    1    2    0    0  0.21950859772E+02  0.32676741809E+02  0.10176230847E+02  0.40659136418E+02  0.00000000000E+00 0.  1.
         11    1    3    3    0    0  0.47234976502E+01 -0.94701155113E+01  0.24133323141E+01  0.10854431858E+02  0.51100000000E-03 0. -1.
        -11    1    3    3    0    0 -0.31332407754E+01  0.15160829130E+01 -0.97317805345E+00  0.36142469396E+01  0.51100000000E-03 0.  1.
        -12    1    3    3    0    0 -0.23541116647E+02 -0.24722709211E+02 -0.11616385108E+02  0.36060184784E+02  0.00000000000E+00 0.  1.
</event>
<event>
 7    1  0.5041278E-013  0.5052885E+02  0.7816164E-02  0.1300439E+00
        -11   -1    0    0    0    0  0.00000000000E+00  0.00000000000E+00  0.45593999997E+02  0.45594000000E+02  0.51100000000E-03 0.  1.
         11   -1    0    0    0    0 -0.00000000000E+00 -0.00000000000E+00 -0.45593999997E+02  0.45594000000E+02  0.51100000000E-03 0. -1.
    9900012    2    1    2    0    0 -0.27230719720E+02  0.23031961031E+02 -0.19523910759E+02  0.50528850762E+02  0.29999972377E+02 0.  0.
        -12    1    1    2    0    0  0.27230719720E+02 -0.23031961031E+02  0.19523910759E+02  0.40659149238E+02  0.00000000000E+00 0.  1.
         11    1    3    3    0    0  0.26194326097E+01  0.53889481638E+01 -0.94819308338E+01  0.11216470127E+02  0.51100000000E-03 0. -1.
        -11    1    3    3    0    0 -0.51040810014E+01  0.14368680679E+01  0.39280690603E+01  0.65989362414E+01  0.51100000000E-03 0.  1.
         12    1    3    3    0    0 -0.24746071328E+02  0.16206144800E+02 -0.13970048986E+02  0.32713444394E+02  0.00000000000E+00 0. -1.
</event>
<event>
 7    1  0.5041278E-013  0.5052886E+02  0.7816164E-02  0.1300439E+00
        -11   -1    0    0    0    0  0.00000000000E+00  0.00000000000E+00  0.45593999997E+02  0.45594000000E+02  0.51100000000E-03 0.  1.
         11   -1    0    0    0    0 -0.00000000000E+00 -0.00000000000E+00 -0.45593999997E+02  0.45594000000E+02  0.51100000000E-03 0. -1.
    9900012    2    1    2    0    0 -0.31010833833E+02 -0.26251440908E+02  0.15349191666E+01  0.50528856605E+02  0.29999990137E+02 0.  0.
        -12    1    1    2    0    0  0.31010833833E+02  0.26251440908E+02 -0.15349191666E+01  0.40659143395E+02  0.00000000000E+00 0.  1.
         11    1    3    3    0    0 -0.25623835644E+01 -0.51198828536E+01 -0.44281358312E+01  0.72379138684E+01  0.51100000000E-03 0. -1.
        -11    1    3    3    0    0 -0.88470066142E+01 -0.21233442857E+02  0.56509741879E+01  0.23686750117E+02  0.51100000000E-03 0.  1.
        -12    1    3    3    0    0 -0.19601443654E+02  0.10188480198E+00  0.31208080983E+00  0.19604192620E+02  0.00000000000E+00 0.  1.
</event>
<event>
 7    1  0.5041278E-013  0.5052886E+02  0.7816164E-02  0.1300439E+00
        -11   -1    0    0    0    0  0.00000000000E+00  0.00000000000E+00  0.45593999997E+02  0.45594000000E+02  0.51100000000E-03 0. -1.
         11   -1    0    0    0    0 -0.00000000000E+00 -0.00000000000E+00 -0.45593999997E+02  0.45594000000E+02  0.51100000000E-03 0.  1.
    9900012    2    1    2    0    0 -0.11984868378E+02  0.35797484689E+02  0.15101936088E+02  0.50528862605E+02  0.30000008375E+02 0.  0.
        -12    1    1    2    0    0  0.11984868378E+02 -0.35797484689E+02 -0.15101936088E+02  0.40659137395E+02  0.00000000000E+00 0.  1.
         11    1    3    3    0    0 -0.35292652539E-01  0.80304369275E+01 -0.44425562935E+01  0.91774435166E+01  0.51100000000E-03 0. -1.
        -11    1    3    3    0    0 -0.67044628003E+01  0.28414282717E+02  0.10788556788E+02  0.31124174552E+02  0.51100000000E-03 0.  1.
         12    1    3    3    0    0 -0.52451129254E+01 -0.64723495565E+00  0.87559355937E+01  0.10227244536E+02  0.00000000000E+00 0. -1.
</event>
<event>
 7    1  0.5041278E-013  0.5052884E+02  0.7816164E-02  0.1300439E+00
        -11   -1    0    0    0    0  0.00000000000E+00  0.00000000000E+00  0.45593999997E+02  0.45594000000E+02  0.51100000000E-03 0. -1.
         11   -1    0    0    0    0 -0.00000000000E+00 -0.00000000000E+00 -0.45593999997E+02  0.45594000000E+02  0.51100000000E-03 0.  1.
    9900012    2    1    2    0    0 -0.25783321156E+02  0.21869091896E+02 -0.22586064387E+02  0.50528841934E+02  0.29999945541E+02 0.  0.
        -12    1    1    2    0    0  0.25783321156E+02 -0.21869091896E+02  0.22586064387E+02  0.40659158066E+02  0.00000000000E+00 0.  1.
         11    1    3    3    0    0 -0.18573932488E+02  0.13404234368E+02 -0.10285389685E+02  0.25108837255E+02  0.51100000000E-03 0. -1.
        -11    1    3    3    0    0 -0.90747671535E+01 -0.22857622489E+01 -0.53481391355E+00  0.93734803639E+01  0.51100000000E-03 0.  1.
         12    1    3    3    0    0  0.18653784857E+01  0.10750619777E+02 -0.11765860789E+02  0.16046524315E+02  0.00000000000E+00 0. -1.
</event>
<event>
 7    1  0.5041278E-013  0.5052886E+02  0.7816164E-02  0.1300439E+00
        -11   -1    0    0    0    0  0.00000000000E+00  0.00000000000E+00  0.45593999997E+02  0.45594000000E+02  0.51100000000E-03 0.  1.
         11   -1    0    0    0    0 -0.00000000000E+00 -0.00000000000E+00 -0.45593999997E+02  0.45594000000E+02  0.51100000000E-03 0. -1.
    9900012    2    1    2    0    0 -0.35081255501E+02  0.16196800242E+02 -0.12654427242E+02  0.50528863826E+02  0.30000012086E+02 0.  0.
        -12    1    1    2    0    0  0.35081255501E+02 -0.16196800242E+02  0.12654427242E+02  0.40659136174E+02  0.00000000000E+00 0.  1.
         11    1    3    3    0    0 -0.24621721148E+02  0.55473122774E+01 -0.13456872020E+02  0.28602259188E+02  0.51100000000E-03 0. -1.
        -11    1    3    3    0    0  0.35363666561E+01  0.22292416759E+00 -0.22662536389E+01  0.42061253105E+01  0.51100000000E-03 0.  1.
        -12    1    3    3    0    0 -0.13995901008E+02  0.10426563797E+02  0.30686984163E+01  0.17720479328E+02  0.00000000000E+00 0.  1.
</event>
<event>
 7    1  0.5041278E-013  0.5052886E+02  0.7816164E-02  0.1300439E+00
        -11   -1    0    0    0    0  0.00000000000E+00  0.00000000000E+00  0.45593999997E+02  0.45594000000E+02  0.51100000000E-03 0. -1.
         11   -1    0    0    0    0 -0.00000000000E+00 -0.00000000000E+00 -0.45593999997E+02  0.45594000000E+02  0.51100000000E-03 0.  1.
    9900012    2    1    2    0    0 -0.16576495487E+02 -0.75385108626E+01  0.36353212319E+02  0.50528863332E+02  0.30000010585E+02 0.  0.
        -12    1    1    2    0    0  0.16576495487E+02  0.75385108626E+01 -0.36353212319E+02  0.40659136668E+02  0.00000000000E+00 0.  1.
         11    1    3    3    0    0 -0.35379320841E+01  0.18460499586E+01  0.11643204067E+02  0.12308089417E+02  0.51100000000E-03 0. -1.
        -11    1    3    3    0    0  0.11176736008E+01 -0.69538785973E+01 -0.24825537910E+01  0.74678440938E+01  0.51100000000E-03 0.  1.
         12    1    3    3    0    0 -0.14156237004E+02 -0.24306822239E+01  0.27192562042E+02  0.30752929822E+02  0.00000000000E+00 0. -1.
</event>
<event>
 7    1  0.5041278E-013  0.5052886E+02  0.7816164E-02  0.1300439E+00
        -11   -1    0    0    0    0  0.00000000000E+00  0.00000000000E+00  0.45593999997E+02  0.45594000000E+02  0.51100000000E-03 0. -1.
         11   -1    0    0    0    0 -0.00000000000E+00 -0.00000000000E+00 -0.45593999997E+02  0.45594000000E+02  0.51100000000E-03 0.  1.
    9900012    2    1    2    0    0  0.62250836979E+01  0.22042347042E+02  0.33593877572E+02  0.50528863997E+02  0.30000012606E+02 0.  0.
        -12    1    1    2    0    0 -0.62250836979E+01 -0.22042347042E+02 -0.33593877572E+02  0.40659136003E+02  0.00000000000E+00 0.  1.
         11    1    3    3    0    0  0.33124752699E+01  0.27305905551E+02  0.20801106484E+02  0.34485808699E+02  0.51100000000E-03 0. -1.
        -11    1    3    3    0    0 -0.95849788898E+00 -0.12004961110E+00 -0.63217439928E+00  0.11544586803E+01  0.51100000000E-03 0.  1.
        -12    1    3    3    0    0  0.38711063170E+01 -0.51435088986E+01  0.13424945488E+02  0.14888596618E+02  0.00000000000E+00 0.  1.
</event>
<event>
 7    1  0.5041278E-013  0.5052883E+02  0.7816164E-02  0.1300439E+00
        -11   -1    0    0    0    0  0.00000000000E+00  0.00000000000E+00  0.45593999997E+02  0.45594000000E+02  0.51100000000E-03 0.  1.
         11   -1    0    0    0    0 -0.00000000000E+00 -0.00000000000E+00 -0.45593999997E+02  0.45594000000E+02  0.51100000000E-03 0. -1.
    9900012    2    1    2    0    0  0.68281607375E+01  0.18547047965E+02 -0.35532396689E+02  0.50528831517E+02  0.29999913878E+02 0.  0.
        -12    1    1    2    0    0 -0.68281607375E+01 -0.18547047965E+02  0.35532396689E+02  0.40659168483E+02  0.00000000000E+00 0.  1.
         11    1    3    3    0    0  0.39267967395E+01  0.83374523143E+01 -0.19961294940E+01  0.94296011021E+01  0.51100000000E-03 0. -1.
        -11    1    3    3    0    0 -0.65700614576E+01 -0.76754889486E+00 -0.29340699635E+01  0.72362701494E+01  0.51100000000E-03 0.  1.
         12    1    3    3    0    0  0.94714254556E+01  0.10977144546E+02 -0.30602197231E+02  0.33862960265E+02  0.00000000000E+00 0. -1.
</event>
<event>
 7    1  0.5041278E-013  0.5052888E+02  0.7816164E-02  0.1300439E+00
        -11   -1    0    0    0    0  0.00000000000E+00  0.00000000000E+00  0.45593999997E+02  0.45594000000E+02  0.51100000000E-03 0.  1.
         11   -1    0    0    0    0 -0.00000000000E+00 -0.00000000000E+00 -0.45593999997E+02  0.45594000000E+02  0.51100000000E-03 0. -1.
    9900012    2    1    2    0    0 -0.10812924588E+02  0.98441014148E+01 -0.37938618414E+02  0.50528875096E+02  0.30000046341E+02 0.  0.
        -12    1    1    2    0    0  0.10812924588E+02 -0.98441014148E+01  0.37938618414E+02  0.40659124904E+02  0.00000000000E+00 0.  1.
         11    1    3    3    0    0  0.29014941690E+01 -0.66674707213E+00 -0.11918942872E+02  0.12285130016E+02  0.51100000000E-03 0. -1.
        -11    1    3    3    0    0 -0.52820040722E+01 -0.68957723512E+01 -0.80418047645E+01  0.11837308287E+02  0.51100000000E-03 0.  1.
         12    1    3    3    0    0 -0.84324146845E+01  0.17406620838E+02 -0.17977870778E+02  0.26406436793E+02  0.00000000000E+00 0. -1.
</event>
<event>
 7    1  0.5041278E-013  0.5052886E+02  0.7816164E-02  0.1300439E+00
        -11   -1    0    0    0    0  0.00000000000E+00  0.00000000000E+00  0.45593999997E+02  0.45594000000E+02  0.51100000000E-03 0.  1.
         11   -1    0    0    0    0 -0.00000000000E+00 -0.00000000000E+00 -0.45593999997E+02  0.45594000000E+02  0.51100000000E-03 0. -1.
    9900012    2    1    2    0    0 -0.10425665535E+02 -0.21300916840E+02 -0.33026385143E+02  0.50528859875E+02  0.30000000076E+02 0.  0.
        -12    1    1    2    0    0  0.10425665535E+02  0.21300916840E+02  0.33026385143E+02  0.40659140125E+02  0.00000000000E+00 0.  1.
         11    1    3    3    0    0  0.48385834196E+00 -0.12076044494E+02 -0.13706052264E+02  0.18273500990E+02  0.51100000000E-03 0. -1.
        -11    1    3    3    0    0 -0.14333787975E+02 -0.11897387082E+02 -0.82687945356E+01  0.20380830710E+02  0.51100000000E-03 0.  1.
         12    1    3    3    0    0  0.34242640980E+01  0.26725147353E+01 -0.11051538344E+02  0.11874528175E+02  0.00000000000E+00 0. -1.
</event>
<event>
 7    1  0.5041278E-013  0.5052886E+02  0.7816164E-02  0.1300439E+00
        -11   -1    0    0    0    0  0.00000000000E+00  0.00000000000E+00  0.45593999997E+02  0.45594000000E+02  0.51100000000E-03 0.  1.
         11   -1    0    0    0    0 -0.00000000000E+00 -0.00000000000E+00 -0.45593999997E+02  0.45594000000E+02  0.51100000000E-03 0. -1.
    9900012    2    1    2    0    0  0.20148798507E+02  0.21009907908E+01 -0.35253054112E+02  0.50528855053E+02  0.29999985419E+02 0.  0.
        -12    1    1    2    0    0 -0.20148798507E+02 -0.21009907908E+01  0.35253054112E+02  0.40659144947E+02  0.00000000000E+00 0.  1.
         11    1    3    3    0    0  0.14591618841E+02  0.74634366944E+01 -0.22100204349E+02  0.27514310099E+02  0.51100000000E-03 0. -1.
        -11    1    3    3    0    0  0.90665152748E+01 -0.17443224465E+01 -0.33232612149E+00  0.92387662021E+01  0.51100000000E-03 0.  1.
         12    1    3    3    0    0 -0.35093356090E+01 -0.36181234570E+01 -0.12820523642E+02  0.13775778752E+02  0.00000000000E+00 0. -1.
</event>
<event>
 7    1  0.5041278E-013  0.5052888E+02  0.7816164E-02  0.1300439E+00
        -11   -1    0    0    0    0  0.00000000000E+00  0.00000000000E+00  0.45593999997E+02  0.45594000000E+02  0.51100000000E-03 0.  1.
         11   -1    0    0    0    0 -0.00000000000E+00 -0.00000000000E+00 -0.45593999997E+02  0.45594000000E+02  0.51100000000E-03 0. -1.
    9900012    2    1    2    0    0  0.21599057534E+02  0.11519129836E+02 -0.32464667759E+02  0.50528876900E+02  0.30000051826E+02 0.  0.
        -12    1    1    2    0    0 -0.21599057534E+02 -0.11519129836E+02  0.32464667759E+02  0.40659123100E+02  0.00000000000E+00 0.  1.
         11    1    3    3    0    0  0.65061703547E+01 -0.16207528369E+01 -0.13988391047E+02  0.15512323385E+02  0.51100000000E-03 0. -1.
        -11    1    3    3    0    0  0.20247624719E+01 -0.54630512332E+01 -0.17093821170E+00  0.58287058579E+01  0.51100000000E-03 0.  1.
         12    1    3    3    0    0  0.13068124707E+02  0.18602933906E+02 -0.18305338500E+02  0.29187847658E+02  0.00000000000E+00 0. -1.
</event>
<event>
 7    1  0.5041278E-013  0.5052886E+02  0.7816164E-02  0.1300439E+00
        -11   -1    0    0    0    0  0.00000000000E+00  0.00000000000E+00  0.45593999997E+02  0.45594000000E+02  0.51100000000E-03 0.  1.
         11   -1    0    0    0    0 -0.00000000000E+00 -0.00000000000E+00 -0.45593999997E+02  0.45594000000E+02  0.51100000000E-03 0. -1.
    9900012    2    1    2    0    0 -0.18390003984E+02 -0.19915459651E+02 -0.30304252447E+02  0.50528862084E+02  0.30000006792E+02 0.  0.
        -12    1    1    2    0    0  0.18390003984E+02  0.19915459651E+02  0.30304252447E+02  0.40659137916E+02  0.00000000000E+00 0.  1.
         11    1    3    3    0    0 -0.46999866290E+01 -0.50814162894E+01  0.14465782375E+01  0.70712979485E+01  0.51100000000E-03 0. -1.
        -11    1    3    3    0    0 -0.13167058608E+02  0.51809420050E+00 -0.88181690117E+01  0.15855597086E+02  0.51100000000E-03 0.  1.
         12    1    3    3    0    0 -0.52295874695E+00 -0.15352137562E+02 -0.22932661673E+02  0.27601967049E+02  0.00000000000E+00 0. -1.
</event>
<event>
 7    1  0.5041278E-013  0.5052886E+02  0.7816164E-02  0.1300439E+00
        -11   -1    0    0    0    0  0.00000000000E+00  0.00000000000E+00  0.45593999997E+02  0.45594000000E+02  0.51100000000E-03 0.  1.
         11   -1    0    0    0    0 -0.00000000000E+00 -0.00000000000E+00 -0.45593999997E+02  0.45594000000E+02  0.51100000000E-03 0. -1.
    9900012    2    1    2    0    0 -0.89980156267E+00  0.14972432763E+02 -0.37791298854E+02  0.50528860132E+02  0.30000000858E+02 0.  0.
        -12    1    1    2    0    0  0.89980156267E+00 -0.14972432763E+02  0.37791298854E+02  0.40659139868E+02  0.00000000000E+00 0.  1.
         11    1    3    3    0    0 -0.90062821990E+01 -0.57109706875E+00 -0.13700844220E+02  0.16405864912E+02  0.51100000000E-03 0.  1.
        -11    1    3    3    0    0 -0.19821807468E+01 -0.16128361778E+01 -0.83970558476E+01  0.87772904827E+01  0.51100000000E-03 0. -1.
        -12    1    3    3    0    0  0.10088661383E+02  0.17156366009E+02 -0.15693398787E+02  0.25345704737E+02  0.00000000000E+00 0.  1.
</event>
<event>
 7    1  0.5041278E-013  0.5052885E+02  0.7816164E-02  0.1300439E+00
        -11   -1    0    0    0    0  0.00000000000E+00  0.00000000000E+00  0.45593999997E+02  0.45594000000E+02  0.51100000000E-03 0.  1.
         11   -1    0    0    0    0 -0.00000000000E+00 -0.00000000000E+00 -0.45593999997E+02  0.45594000000E+02  0.51100000000E-03 0. -1.
    9900012    2    1    2    0    0 -0.38482508924E+02 -0.59537842836E+01 -0.11696822655E+02  0.50528847272E+02  0.29999961767E+02 0.  0.
        -12    1    1    2    0    0  0.38482508924E+02  0.59537842836E+01  0.11696822655E+02  0.40659152728E+02  0.00000000000E+00 0.  1.
         11    1    3    3    0    0 -0.96914657042E+01  0.72341211271E+01 -0.16019166369E+01  0.12199309536E+02  0.51100000000E-03 0. -1.
        -11    1    3    3    0    0  0.19404878769E+01 -0.47140737916E+01 -0.14126450232E+01  0.52899481223E+01  0.51100000000E-03 0.  1.
         12    1    3    3    0    0 -0.30731531097E+02 -0.84738316191E+01 -0.86822609949E+01  0.33039589614E+02  0.00000000000E+00 0. -1.
</event>
<event>
 7    1  0.5041278E-013  0.5052887E+02  0.7816164E-02  0.1300439E+00
        -11   -1    0    0    0    0  0.00000000000E+00  0.00000000000E+00  0.45593999997E+02  0.45594000000E+02  0.51100000000E-03 0.  1.
         11   -1    0    0    0    0 -0.00000000000E+00 -0.00000000000E+00 -0.45593999997E+02  0.45594000000E+02  0.51100000000E-03 0. -1.
    9900012    2    1    2    0    0  0.33189097777E+02 -0.30973244866E+01 -0.23282078664E+02  0.50528870433E+02  0.30000032167E+02 0.  0.
        -12    1    1    2    0    0 -0.33189097777E+02  0.30973244866E+01  0.23282078664E+02  0.40659129567E+02  0.00000000000E+00 0.  1.
         11    1    3    3    0    0  0.16764042713E+02 -0.11545271698E+02 -0.18296435828E+02  0.27369435342E+02  0.51100000000E-03 0. -1.
        -11    1    3    3    0    0  0.51400517736E+00  0.15016878783E+01 -0.55666327938E+01  0.57884945131E+01  0.51100000000E-03 0.  1.
         12    1    3    3    0    0  0.15911049887E+02  0.69462593330E+01  0.58098995754E+00  0.17370940578E+02  0.00000000000E+00 0. -1.
</event>
<event>
 7    1  0.5041278E-013  0.5052885E+02  0.7816164E-02  0.1300439E+00
        -11   -1    0    0    0    0  0.00000000000E+00  0.00000000000E+00  0.45593999997E+02  0.45594000000E+02  0.51100000000E-03 0.  1.
         11   -1    0    0    0    0 -0.00000000000E+00 -0.00000000000E+00 -0.45593999997E+02  0.45594000000E+02  0.51100000000E-03 0. -1.
    9900012    2    1    2    0    0  0.40536448339E+02 -0.96118506780E+00 -0.30064664183E+01  0.50528851447E+02  0.29999974460E+02 0.  0.
        -12    1    1    2    0    0 -0.40536448339E+02  0.96118506780E+00  0.30064664183E+01  0.40659148553E+02  0.00000000000E+00 0.  1.
         11    1    3    3    0    0  0.41572664836E+01 -0.20017303420E+01  0.28810082574E+01  0.54396689070E+01  0.51100000000E-03 0. -1.
        -11    1    3    3    0    0 -0.41049118977E+01 -0.74170091911E+00 -0.80577035972E+00  0.42484924473E+01  0.51100000000E-03 0.  1.
         12    1    3    3    0    0  0.40484093753E+02  0.17822461933E+01 -0.50817043160E+01  0.40840690093E+02  0.00000000000E+00 0. -1.
</event>
<event>
 7    1  0.5041278E-013  0.5052886E+02  0.7816164E-02  0.1300439E+00
        -11   -1    0    0    0    0  0.00000000000E+00  0.00000000000E+00  0.45593999997E+02  0.45594000000E+02  0.51100000000E-03 0.  1.
         11   -1    0    0    0    0 -0.00000000000E+00 -0.00000000000E+00 -0.45593999997E+02  0.45594000000E+02  0.51100000000E-03 0. -1.
    9900012    2    1    2    0    0 -0.51327264372E+01  0.39485803593E+02 -0.82275188227E+01  0.50528860412E+02  0.30000001709E+02 0.  0.
        -12    1    1    2    0    0  0.51327264372E+01 -0.39485803593E+02  0.82275188227E+01  0.40659139588E+02  0.00000000000E+00 0.  1.
         11    1    3    3    0    0  0.46294136221E+01  0.20611880461E+01 -0.91148561753E+00  0.51488613244E+01  0.51100000000E-03 0. -1.
        -11    1    3    3    0    0 -0.10388181160E+02  0.24653131770E+02  0.54604789740E+01  0.27303993202E+02  0.51100000000E-03 0.  1.
         12    1    3    3    0    0  0.62604110063E+00  0.12771483776E+02 -0.12776512179E+02  0.18076005886E+02  0.00000000000E+00 0. -1.
</event>
<event>
 7    1  0.5041278E-013  0.5052887E+02  0.7816164E-02  0.1300439E+00
        -11   -1    0    0    0    0  0.00000000000E+00  0.00000000000E+00  0.45593999997E+02  0.45594000000E+02  0.51100000000E-03 0.  1.
         11   -1    0    0    0    0 -0.00000000000E+00 -0.00000000000E+00 -0.45593999997E+02  0.45594000000E+02  0.51100000000E-03 0. -1.
    9900012    2    1    2    0    0  0.14395850570E+02  0.31132254646E+02 -0.21833616419E+02  0.50528873117E+02  0.30000040325E+02 0.  0.
        -12    1    1    2    0    0 -0.14395850570E+02 -0.31132254646E+02  0.21833616419E+02  0.40659126883E+02  0.00000000000E+00 0.  1.
         11    1    3    3    0    0  0.64632934900E+01  0.12552162181E+02 -0.66329535820E+01  0.15598942645E+02  0.51100000000E-03 0. -1.
        -11    1    3    3    0    0  0.54853896691E+01  0.22668104045E+01 -0.17310478833E+02  0.18299743357E+02  0.51100000000E-03 0.  1.
         12    1    3    3    0    0  0.24471674112E+01  0.16313282061E+02  0.21098159967E+01  0.16630187115E+02  0.00000000000E+00 0. -1.
</event>
<event>
 7    1  0.5041278E-013  0.5052887E+02  0.7816164E-02  0.1300439E+00
        -11   -1    0    0    0    0  0.00000000000E+00  0.00000000000E+00  0.45593999997E+02  0.45594000000E+02  0.51100000000E-03 0.  1.
         11   -1    0    0    0    0 -0.00000000000E+00 -0.00000000000E+00 -0.45593999997E+02  0.45594000000E+02  0.51100000000E-03 0. -1.
    9900012    2    1    2    0    0  0.33833441808E+02  0.77255410380E+01 -0.21184414645E+02  0.50528865814E+02  0.30000018129E+02 0.  0.
        -12    1    1    2    0    0 -0.33833441808E+02 -0.77255410380E+01  0.21184414645E+02  0.40659134186E+02  0.00000000000E+00 0.  1.
         11    1    3    3    0    0  0.12792008029E+02 -0.82650517548E+01 -0.90889987669E+01  0.17735739307E+02  0.51100000000E-03 0. -1.
        -11    1    3    3    0    0  0.16940711829E+02  0.48243837049E+01 -0.11179588280E+02  0.20862540348E+02  0.51100000000E-03 0.  1.
        -12    1    3    3    0    0  0.41007219489E+01  0.11166209088E+02 -0.91582759821E+00  0.11930586159E+02  0.00000000000E+00 0.  1.
</event>
<event>
 7    1  0.5041278E-013  0.5052886E+02  0.7816164E-02  0.1300439E+00
        -11   -1    0    0    0    0  0.00000000000E+00  0.00000000000E+00  0.45593999997E+02  0.45594000000E+02  0.51100000000E-03 0. -1.
         11   -1    0    0    0    0 -0.00000000000E+00 -0.00000000000E+00 -0.45593999997E+02  0.45594000000E+02  0.51100000000E-03 0.  1.
    9900012    2    1    2    0    0  0.36150784655E+02  0.17196193719E+02 -0.71117744915E+01  0.50528860240E+02  0.30000001186E+02 0.  0.
        -12    1    1    2    0    0 -0.36150784655E+02 -0.17196193719E+02  0.71117744915E+01  0.40659139760E+02  0.00000000000E+00 0.  1.
         11    1    3    3    0    0  0.10425351873E+02  0.60313947091E+01 -0.37515931022E+01  0.12615075698E+02  0.51100000000E-03 0. -1.
        -11    1    3    3    0    0  0.85554049090E+01  0.17379883369E+02 -0.14152660325E+00  0.19372024393E+02  0.51100000000E-03 0.  1.
         12    1    3    3    0    0  0.17170027873E+02 -0.62150843589E+01 -0.32186547860E+01  0.18541760148E+02  0.00000000000E+00 0. -1.
</event>
<event>
 7    1  0.5041278E-013  0.5052886E+02  0.7816164E-02  0.1300439E+00
        -11   -1    0    0    0    0  0.00000000000E+00  0.00000000000E+00  0.45593999997E+02  0.45594000000E+02  0.51100000000E-03 0.  1.
         11   -1    0    0    0    0 -0.00000000000E+00 -0.00000000000E+00 -0.45593999997E+02  0.45594000000E+02  0.51100000000E-03 0. -1.
    9900012    2    1    2    0    0  0.19942246589E+02 -0.44435869653E+01 -0.35152914550E+02  0.50528855082E+02  0.29999985506E+02 0.  0.
        -12    1    1    2    0    0 -0.19942246589E+02  0.44435869653E+01  0.35152914550E+02  0.40659144918E+02  0.00000000000E+00 0.  1.
         11    1    3    3    0    0  0.13476097163E+02 -0.13700048308E+01 -0.37069947803E+01  0.14043643350E+02  0.51100000000E-03 0. -1.
        -11    1    3    3    0    0  0.10290505502E+02  0.28603726923E+01 -0.13592828703E+02  0.17287024841E+02  0.51100000000E-03 0.  1.
        -12    1    3    3    0    0 -0.38243560758E+01 -0.59339548268E+01 -0.17853091066E+02  0.19198186891E+02  0.00000000000E+00 0.  1.
</event>
<event>
 7    1  0.5041278E-013  0.5052886E+02  0.7816164E-02  0.1300439E+00
        -11   -1    0    0    0    0  0.00000000000E+00  0.00000000000E+00  0.45593999997E+02  0.45594000000E+02  0.51100000000E-03 0.  1.
         11   -1    0    0    0    0 -0.00000000000E+00 -0.00000000000E+00 -0.45593999997E+02  0.45594000000E+02  0.51100000000E-03 0. -1.
    9900012    2    1    2    0    0 -0.48556806471E+01 -0.24952818454E+01 -0.40290960166E+02  0.50528861579E+02  0.30000005257E+02 0.  0.
        -12    1    1    2    0    0  0.48556806471E+01  0.24952818454E+01  0.40290960166E+02  0.40659138421E+02  0.00000000000E+00 0.  1.
         11    1    3    3    0    0  0.67024734472E+00 -0.57838707939E+01 -0.25265335066E+01  0.63471067964E+01  0.51100000000E-03 0. -1.
        -11    1    3    3    0    0 -0.79481188511E+01 -0.76052758615E+01 -0.24437169574E+02  0.26799031163E+02  0.51100000000E-03 0.  1.
         12    1    3    3    0    0  0.24221908593E+01  0.10893864810E+02 -0.13327257085E+02  0.17382723620E+02  0.00000000000E+00 0. -1.
</event>
<event>
 7    1  0.5041278E-013  0.5052877E+02  0.7816164E-02  0.1300439E+00
        -11   -1    0    0    0    0  0.00000000000E+00  0.00000000000E+00  0.45593999997E+02  0.45594000000E+02  0.51100000000E-03 0.  1.
         11   -1    0    0    0    0 -0.00000000000E+00 -0.00000000000E+00 -0.45593999997E+02  0.45594000000E+02  0.51100000000E-03 0. -1.
    9900012    2    1    2    0    0 -0.34827932073E+02  0.23132015538E+01 -0.20852758454E+02  0.50528766251E+02  0.29999715496E+02 0.  0.
        -12    1    1    2    0    0  0.34827932073E+02 -0.23132015538E+01  0.20852758454E+02  0.40659233749E+02  0.00000000000E+00 0.  1.
         11    1    3    3    0    0 -0.11796462177E+02  0.81346725409E+01 -0.75968647752E+01  0.16218562572E+02  0.51100000000E-03 0. -1.
        -11    1    3    3    0    0  0.59076399118E+00  0.34883772306E+01  0.25863936401E+01  0.43826031213E+01  0.51100000000E-03 0.  1.
         12    1    3    3    0    0 -0.23622233887E+02 -0.93098482177E+01 -0.15842287319E+02  0.29927600558E+02  0.00000000000E+00 0. -1.
</event>
<event>
 7    1  0.5041278E-013  0.5052887E+02  0.7816164E-02  0.1300439E+00
        -11   -1    0    0    0    0  0.00000000000E+00  0.00000000000E+00  0.45593999997E+02  0.45594000000E+02  0.51100000000E-03 0. -1.
         11   -1    0    0    0    0 -0.00000000000E+00 -0.00000000000E+00 -0.45593999997E+02  0.45594000000E+02  0.51100000000E-03 0.  1.
    9900012    2    1    2    0    0  0.24129530254E+02 -0.27628649936E+02  0.17538195437E+02  0.50528870315E+02  0.30000031808E+02 0.  0.
        -12    1    1    2    0    0 -0.24129530254E+02  0.27628649936E+02 -0.17538195437E+02  0.40659129685E+02  0.00000000000E+00 0.  1.
         11    1    3    3    0    0  0.74980733001E+01 -0.80839854010E-01 -0.55152960993E+01  0.93083902808E+01  0.51100000000E-03 0. -1.
        -11    1    3    3    0    0  0.34634097302E+01 -0.90888248339E+01  0.13258423465E+01  0.98163028687E+01  0.51100000000E-03 0.  1.
         12    1    3    3    0    0  0.13168047224E+02 -0.18458985248E+02  0.21727649190E+02  0.31404177165E+02  0.00000000000E+00 0. -1.
</event>
<event>
 7    1  0.5041278E-013  0.5052884E+02  0.7816164E-02  0.1300439E+00
        -11   -1    0    0    0    0  0.00000000000E+00  0.00000000000E+00  0.45593999997E+02  0.45594000000E+02  0.51100000000E-03 0.  1.
         11   -1    0    0    0    0 -0.00000000000E+00 -0.00000000000E+00 -0.45593999997E+02  0.45594000000E+02  0.51100000000E-03 0. -1.
    9900012    2    1    2    0    0 -0.91968334881E+01 -0.13954249001E+02 -0.37065673978E+02  0.50528843604E+02  0.29999950620E+02 0.  0.
        -12    1    1    2    0    0  0.91968334881E+01  0.13954249001E+02  0.37065673978E+02  0.40659156396E+02  0.00000000000E+00 0.  1.
         11    1    3    3    0    0 -0.19647222491E+01  0.29753974924E+00 -0.11754423025E+02  0.11921204819E+02  0.51100000000E-03 0. -1.
        -11    1    3    3    0    0 -0.11331069415E+02  0.19137511494E+01 -0.55862614738E+01  0.12777397820E+02  0.51100000000E-03 0.  1.
        -12    1    3    3    0    0  0.40989581759E+01 -0.16165539899E+02 -0.19724989479E+02  0.25830240965E+02  0.00000000000E+00 0.  1.
</event>
<event>
 7    1  0.5041278E-013  0.5052885E+02  0.7816164E-02  0.1300439E+00
        -11   -1    0    0    0    0  0.00000000000E+00  0.00000000000E+00  0.45593999997E+02  0.45594000000E+02  0.51100000000E-03 0. -1.
         11   -1    0    0    0    0 -0.00000000000E+00 -0.00000000000E+00 -0.45593999997E+02  0.45594000000E+02  0.51100000000E-03 0.  1.
    9900012    2    1    2    0    0 -0.30792351994E+02 -0.14078005741E+02  0.22512373074E+02  0.50528854308E+02  0.29999983154E+02 0.  0.
        -12    1    1    2    0    0  0.30792351994E+02  0.14078005741E+02 -0.22512373074E+02  0.40659145692E+02  0.00000000000E+00 0.  1.
         11    1    3    3    0    0 -0.44238687348E+01  0.24104863728E-01  0.18522671954E+02  0.19043649130E+02  0.51100000000E-03 0. -1.
        -11    1    3    3    0    0 -0.61002859014E+01 -0.75849240285E+01  0.29446821684E+01  0.10169351697E+02  0.51100000000E-03 0.  1.
        -12    1    3    3    0    0 -0.20268197358E+02 -0.65171865764E+01  0.10450189521E+01  0.21315853481E+02  0.00000000000E+00 0.  1.
</event>
<event>
 7    1  0.5041278E-013  0.5052885E+02  0.7816164E-02  0.1300439E+00
        -11   -1    0    0    0    0  0.00000000000E+00  0.00000000000E+00  0.45593999997E+02  0.45594000000E+02  0.51100000000E-03 0.  1.
         11   -1    0    0    0    0 -0.00000000000E+00 -0.00000000000E+00 -0.45593999997E+02  0.45594000000E+02  0.51100000000E-03 0. -1.
    9900012    2    1    2    0    0  0.26037872978E+02 -0.19508492872E+02 -0.24384708583E+02  0.50528854215E+02  0.29999982870E+02 0.  0.
        -12    1    1    2    0    0 -0.26037872978E+02  0.19508492872E+02  0.24384708583E+02  0.40659145785E+02  0.00000000000E+00 0.  1.
         11    1    3    3    0    0  0.41247857724E+00  0.48147664684E+01 -0.57668935363E+01  0.75239069665E+01  0.51100000000E-03 0. -1.
        -11    1    3    3    0    0  0.29861036381E+01 -0.12665449457E+02 -0.88219472519E+01  0.15721233363E+02  0.51100000000E-03 0.  1.
        -12    1    3    3    0    0  0.22639290763E+02 -0.11657809883E+02 -0.97958677945E+01  0.27283713885E+02  0.00000000000E+00 0.  1.
</event>
<event>
 7    1  0.5041278E-013  0.5052886E+02  0.7816164E-02  0.1300439E+00
        -11   -1    0    0    0    0  0.00000000000E+00  0.00000000000E+00  0.45593999997E+02  0.45594000000E+02  0.51100000000E-03 0.  1.
         11   -1    0    0    0    0 -0.00000000000E+00 -0.00000000000E+00 -0.45593999997E+02  0.45594000000E+02  0.51100000000E-03 0. -1.
    9900012    2    1    2    0    0  0.24500878642E+02 -0.91694501266E+01  0.31125456072E+02  0.50528857294E+02  0.29999992231E+02 0.  0.
        -12    1    1    2    0    0 -0.24500878642E+02  0.91694501266E+01 -0.31125456072E+02  0.40659142706E+02  0.00000000000E+00 0.  1.
         11    1    3    3    0    0 -0.46663161214E+00 -0.66038333457E+01  0.10065061239E+02  0.12047149784E+02  0.51100000000E-03 0. -1.
        -11    1    3    3    0    0  0.15079339000E+02 -0.61353955782E+01  0.22603925976E+02  0.27856184473E+02  0.51100000000E-03 0.  1.
         12    1    3    3    0    0  0.98881712547E+01  0.35697787973E+01 -0.15435311431E+01  0.10625523037E+02  0.00000000000E+00 0. -1.
</event>
<event>
 7    1  0.5608976E-013  0.5052886E+02  0.7816164E-02  0.1300439E+00
        -11   -1    0    0    0    0  0.00000000000E+00  0.00000000000E+00  0.45593999997E+02  0.45594000000E+02  0.51100000000E-03 0. -1.
         11   -1    0    0    0    0 -0.00000000000E+00 -0.00000000000E+00 -0.45593999997E+02  0.45594000000E+02  0.51100000000E-03 0.  1.
    9900012    2    1    2    0    0  0.12341880556E+02 -0.18154352128E+02  0.34223718894E+02  0.50528862629E+02  0.30000008447E+02 0.  0.
        -12    1    1    2    0    0 -0.12341880556E+02  0.18154352128E+02 -0.34223718894E+02  0.40659137371E+02  0.00000000000E+00 0.  1.
         11    1    3    3    0    0  0.10060155898E+02  0.31130530212E+00  0.58577032476E+01  0.11645442683E+02  0.51100000000E-03 0. -1.
        -11    1    3    3    0    0 -0.20915416624E+01 -0.66294308965E+00 -0.22854890039E+01  0.31682014320E+01  0.51100000000E-03 0.  1.
         12    1    3    3    0    0  0.43732663203E+01 -0.17802714340E+02  0.30651504650E+02  0.35715218514E+02  0.00000000000E+00 0. -1.
</event>
<event>
 7    1  0.5041278E-013  0.5052886E+02  0.7816164E-02  0.1300439E+00
        -11   -1    0    0    0    0  0.00000000000E+00  0.00000000000E+00  0.45593999997E+02  0.45594000000E+02  0.51100000000E-03 0.  1.
         11   -1    0    0    0    0 -0.00000000000E+00 -0.00000000000E+00 -0.45593999997E+02  0.45594000000E+02  0.51100000000E-03 0. -1.
    9900012    2    1    2    0    0  0.12039072576E+02  0.38589364015E+02  0.43689089844E+01  0.50528860200E+02  0.30000001063E+02 0.  0.
        -12    1    1    2    0    0 -0.12039072576E+02 -0.38589364015E+02 -0.43689089844E+01  0.40659139800E+02  0.00000000000E+00 0.  1.
         11    1    3    3    0    0  0.70920237994E+01  0.35428979016E+02  0.13905412149E+02  0.38715240448E+02  0.51100000000E-03 0. -1.
        -11    1    3    3    0    0  0.37336887632E+00  0.12186213050E+01 -0.47365572022E+01  0.49050399176E+01  0.51100000000E-03 0.  1.
        -12    1    3    3    0    0  0.45736799007E+01  0.19417636941E+01 -0.47999459623E+01  0.69085798337E+01  0.00000000000E+00 0.  1.
</event>
<event>
 7    1  0.5041278E-013  0.5052886E+02  0.7816164E-02  0.1300439E+00
        -11   -1    0    0    0    0  0.00000000000E+00  0.00000000000E+00  0.45593999997E+02  0.45594000000E+02  0.51100000000E-03 0. -1.
         11   -1    0    0    0    0 -0.00000000000E+00 -0.00000000000E+00 -0.45593999997E+02  0.45594000000E+02  0.51100000000E-03 0.  1.
    9900012    2    1    2    0    0 -0.48262863941E+01  0.33763937905E+02  0.22132990531E+02  0.50528858186E+02  0.29999994942E+02 0.  0.
        -12    1    1    2    0    0  0.48262863941E+01 -0.33763937905E+02 -0.22132990531E+02  0.40659141814E+02  0.00000000000E+00 0.  1.
         11    1    3    3    0    0 -0.33900682665E+01  0.29863643699E+01  0.78052841704E+01  0.90185029935E+01  0.51100000000E-03 0. -1.
        -11    1    3    3    0    0  0.31574666599E+01 -0.23210270342E+01 -0.19085673766E+01  0.43588291884E+01  0.51100000000E-03 0.  1.
         12    1    3    3    0    0 -0.45936847875E+01  0.33098600569E+02  0.16236273737E+02  0.37151526004E+02  0.00000000000E+00 0. -1.
</event>
<event>
 7    1  0.5041278E-013  0.5052884E+02  0.7816164E-02  0.1300439E+00
        -11   -1    0    0    0    0  0.00000000000E+00  0.00000000000E+00  0.45593999997E+02  0.45594000000E+02  0.51100000000E-03 0. -1.
         11   -1    0    0    0    0 -0.00000000000E+00 -0.00000000000E+00 -0.45593999997E+02  0.45594000000E+02  0.51100000000E-03 0.  1.
    9900012    2    1    2    0    0  0.35926916688E+02 -0.18445445927E+02 -0.47105295600E+01  0.50528844735E+02  0.29999954055E+02 0.  0.
        -12    1    1    2    0    0 -0.35926916688E+02  0.18445445927E+02  0.47105295600E+01  0.40659155265E+02  0.00000000000E+00 0.  1.
         11    1    3    3    0    0  0.31654656508E+02 -0.22040964718E+02 -0.29087033677E+01  0.38681803989E+02  0.51100000000E-03 0. -1.
        -11    1    3    3    0    0  0.74750851557E+01  0.34276223944E+01 -0.24381569966E+01  0.85773016249E+01  0.51100000000E-03 0.  1.
        -12    1    3    3    0    0 -0.32028249754E+01  0.16789639661E+00  0.63633080435E+00  0.32697391205E+01  0.00000000000E+00 0.  1.
</event>
<event>
 7    1  0.5041278E-013  0.5052885E+02  0.7816164E-02  0.1300439E+00
        -11   -1    0    0    0    0  0.00000000000E+00  0.00000000000E+00  0.45593999997E+02  0.45594000000E+02  0.51100000000E-03 0. -1.
         11   -1    0    0    0    0 -0.00000000000E+00 -0.00000000000E+00 -0.45593999997E+02  0.45594000000E+02  0.51100000000E-03 0.  1.
    9900012    2    1    2    0    0  0.19897964370E+02  0.43294396663E+01  0.35192241000E+02  0.50528845305E+02  0.29999955789E+02 0.  0.
        -12    1    1    2    0    0 -0.19897964370E+02 -0.43294396663E+01 -0.35192241000E+02  0.40659154695E+02  0.00000000000E+00 0.  1.
         11    1    3    3    0    0 -0.92886104503E+00 -0.63052833728E+01  0.70830971367E+01  0.95283601193E+01  0.51100000000E-03 0. -1.
        -11    1    3    3    0    0  0.16805069498E+01 -0.38934952583E+01  0.10141332606E+02  0.10992271659E+02  0.51100000000E-03 0.  1.
         12    1    3    3    0    0  0.19146318465E+02  0.14528218297E+02  0.17967811257E+02  0.30008213526E+02  0.00000000000E+00 0. -1.
</event>
<event>
 7    1  0.5041278E-013  0.5052886E+02  0.7816164E-02  0.1300439E+00
        -11   -1    0    0    0    0  0.00000000000E+00  0.00000000000E+00  0.45593999997E+02  0.45594000000E+02  0.51100000000E-03 0.  1.
         11   -1    0    0    0    0 -0.00000000000E+00 -0.00000000000E+00 -0.45593999997E+02  0.45594000000E+02  0.51100000000E-03 0. -1.
    9900012    2    1    2    0    0  0.76130278868E+01 -0.17771958853E+02 -0.35768212168E+02  0.50528859370E+02  0.29999998542E+02 0.  0.
        -12    1    1    2    0    0 -0.76130278868E+01  0.17771958853E+02  0.35768212168E+02  0.40659140630E+02  0.00000000000E+00 0.  1.
         11    1    3    3    0    0 -0.44002634526E+01  0.43772539866E+01 -0.54839920051E+01  0.82823208999E+01  0.51100000000E-03 0.  1.
        -11    1    3    3    0    0  0.87585132778E+00 -0.38710554730E+01 -0.16069421628E+02  0.16552295845E+02  0.51100000000E-03 0. -1.
        -12    1    3    3    0    0  0.11137440012E+02 -0.18278157366E+02 -0.14214798535E+02  0.25694242625E+02  0.00000000000E+00 0.  1.
</event>
<event>
 7    1  0.5041278E-013  0.5052886E+02  0.7816164E-02  0.1300439E+00
        -11   -1    0    0    0    0  0.00000000000E+00  0.00000000000E+00  0.45593999997E+02  0.45594000000E+02  0.51100000000E-03 0. -1.
         11   -1    0    0    0    0 -0.00000000000E+00 -0.00000000000E+00 -0.45593999997E+02  0.45594000000E+02  0.51100000000E-03 0.  1.
    9900012    2    1    2    0    0  0.23502799201E+02 -0.28232907748E+02  0.17426620443E+02  0.50528858958E+02  0.29999997290E+02 0.  0.
        -12    1    1    2    0    0 -0.23502799201E+02  0.28232907748E+02 -0.17426620443E+02  0.40659141042E+02  0.00000000000E+00 0.  1.
         11    1    3    3    0    0  0.15952384142E+02 -0.26106482693E+02  0.12802866095E+02  0.33165349070E+02  0.51100000000E-03 0. -1.
        -11    1    3    3    0    0 -0.32483660669E+01 -0.43378647642E+01  0.30789747401E+01  0.62328996886E+01  0.51100000000E-03 0.  1.
        -12    1    3    3    0    0  0.10798781126E+02  0.22114397092E+01  0.15447796081E+01  0.11130610200E+02  0.00000000000E+00 0.  1.
</event>
<event>
 7    1  0.5041278E-013  0.5052887E+02  0.7816164E-02  0.1300439E+00
        -11   -1    0    0    0    0  0.00000000000E+00  0.00000000000E+00  0.45593999997E+02  0.45594000000E+02  0.51100000000E-03 0. -1.
         11   -1    0    0    0    0 -0.00000000000E+00 -0.00000000000E+00 -0.45593999997E+02  0.45594000000E+02  0.51100000000E-03 0.  1.
    9900012    2    1    2    0    0 -0.11622289177E+02 -0.31826246446E+02  0.22476157095E+02  0.50528865647E+02  0.30000017622E+02 0.  0.
        -12    1    1    2    0    0  0.11622289177E+02  0.31826246446E+02 -0.22476157095E+02  0.40659134353E+02  0.00000000000E+00 0.  1.
         11    1    3    3    0    0 -0.14461839538E+01  0.59432160128E+00 -0.19508387684E+01  0.25000876696E+01  0.51100000000E-03 0. -1.
        -11    1    3    3    0    0 -0.68253982925E+01 -0.46511619851E+01  0.17290404366E+02  0.19161874989E+02  0.51100000000E-03 0.  1.
         12    1    3    3    0    0 -0.33507069304E+01 -0.27769406062E+02  0.71365914967E+01  0.28866902989E+02  0.00000000000E+00 0. -1.
</event>
<event>
 7    1  0.5041278E-013  0.5052886E+02  0.7816164E-02  0.1300439E+00
        -11   -1    0    0    0    0  0.00000000000E+00  0.00000000000E+00  0.45593999997E+02  0.45594000000E+02  0.51100000000E-03 0.  1.
         11   -1    0    0    0    0 -0.00000000000E+00 -0.00000000000E+00 -0.45593999997E+02  0.45594000000E+02  0.51100000000E-03 0. -1.
    9900012    2    1    2    0    0 -0.16089451064E+02 -0.33811044572E+02 -0.15846404555E+02  0.50528859479E+02  0.29999998871E+02 0.  0.
        -12    1    1    2    0    0  0.16089451064E+02  0.33811044572E+02  0.15846404555E+02  0.40659140521E+02  0.00000000000E+00 0.  1.
         11    1    3    3    0    0  0.13673933649E+01 -0.11910285098E+02  0.38388450587E+01  0.12588144716E+02  0.51100000000E-03 0. -1.
        -11    1    3    3    0    0 -0.11456168825E+02 -0.22101974933E+02 -0.10614866080E+02  0.27063194235E+02  0.51100000000E-03 0.  1.
        -12    1    3    3    0    0 -0.60006756038E+01  0.20121545869E+00 -0.90703835345E+01  0.10877520527E+02  0.00000000000E+00 0.  1.
</event>
<event>
 7    1  0.5041278E-013  0.5052874E+02  0.7816164E-02  0.1300439E+00
        -11   -1    0    0    0    0  0.00000000000E+00  0.00000000000E+00  0.45593999997E+02  0.45594000000E+02  0.51100000000E-03 0.  1.
         11   -1    0    0    0    0 -0.00000000000E+00 -0.00000000000E+00 -0.45593999997E+02  0.45594000000E+02  0.51100000000E-03 0. -1.
    9900012    2    1    2    0    0  0.13764208410E+01  0.39108378077E+02 -0.11037007478E+02  0.50528741470E+02  0.29999640169E+02 0.  0.
        -12    1    1    2    0    0 -0.13764208410E+01 -0.39108378077E+02  0.11037007478E+02  0.40659258530E+02  0.00000000000E+00 0.  1.
         11    1    3    3    0    0 -0.58014224190E+01  0.10237152664E+02 -0.59077541400E+01  0.13166524066E+02  0.51100000000E-03 0. -1.
        -11    1    3    3    0    0 -0.61803201918E+01  0.55107674963E+01 -0.63340227932E+01  0.10425198371E+02  0.51100000000E-03 0.  1.
        -12    1    3    3    0    0  0.13358163452E+02  0.23360457917E+02  0.12047694554E+01  0.26937019033E+02  0.00000000000E+00 0.  1.
</event>
<event>
 7    1  0.5041278E-013  0.5052886E+02  0.7816164E-02  0.1300439E+00
        -11   -1    0    0    0    0  0.00000000000E+00  0.00000000000E+00  0.45593999997E+02  0.45594000000E+02  0.51100000000E-03 0.  1.
         11   -1    0    0    0    0 -0.00000000000E+00 -0.00000000000E+00 -0.45593999997E+02  0.45594000000E+02  0.51100000000E-03 0. -1.
    9900012    2    1    2    0    0 -0.39847576717E+01 -0.38813151784E+02  0.11437949272E+02  0.50528859224E+02  0.29999998098E+02 0.  0.
        -12    1    1    2    0    0  0.39847576717E+01  0.38813151784E+02 -0.11437949272E+02  0.40659140776E+02  0.00000000000E+00 0.  1.
         11    1    3    3    0    0 -0.24072266020E+00 -0.21683154790E+02  0.80912389771E+00  0.21699581351E+02  0.51100000000E-03 0. -1.
        -11    1    3    3    0    0  0.39628774767E+01 -0.10390717043E+02 -0.32472390826E+01  0.11585161220E+02  0.51100000000E-03 0.  1.
         12    1    3    3    0    0 -0.77069124882E+01 -0.67392799499E+01  0.13876064457E+02  0.17244116653E+02  0.00000000000E+00 0. -1.
</event>
<event>
 7    1  0.5041278E-013  0.5052886E+02  0.7816164E-02  0.1300439E+00
        -11   -1    0    0    0    0  0.00000000000E+00  0.00000000000E+00  0.45593999997E+02  0.45594000000E+02  0.51100000000E-03 0. -1.
         11   -1    0    0    0    0 -0.00000000000E+00 -0.00000000000E+00 -0.45593999997E+02  0.45594000000E+02  0.51100000000E-03 0.  1.
    9900012    2    1    2    0    0  0.37373468198E+02  0.16012162383E+02  0.27414460653E-02  0.50528862320E+02  0.30000007509E+02 0.  0.
        -12    1    1    2    0    0 -0.37373468198E+02 -0.16012162383E+02 -0.27414460653E-02  0.40659137680E+02  0.00000000000E+00 0.  1.
         11    1    3    3    0    0  0.22789645967E+02 -0.22669516070E+00  0.85062687319E+01  0.24326445733E+02  0.51100000000E-03 0. -1.
        -11    1    3    3    0    0  0.11089002262E+02  0.38053029463E+01 -0.54623467328E+01  0.12933813582E+02  0.51100000000E-03 0.  1.
        -12    1    3    3    0    0  0.34948199679E+01  0.12433554598E+02 -0.30411805531E+01  0.13268603005E+02  0.00000000000E+00 0.  1.
</event>
<event>
 7    1  0.5041278E-013  0.5052887E+02  0.7816164E-02  0.1300439E+00
        -11   -1    0    0    0    0  0.00000000000E+00  0.00000000000E+00  0.45593999997E+02  0.45594000000E+02  0.51100000000E-03 0.  1.
         11   -1    0    0    0    0 -0.00000000000E+00 -0.00000000000E+00 -0.45593999997E+02  0.45594000000E+02  0.51100000000E-03 0. -1.
    9900012    2    1    2    0    0 -0.90753806035E+01  0.24885562425E+02 -0.30846578889E+02  0.50528865978E+02  0.30000018626E+02 0.  0.
        -12    1    1    2    0    0  0.90753806035E+01 -0.24885562425E+02  0.30846578889E+02  0.40659134022E+02  0.00000000000E+00 0.  1.
         11    1    3    3    0    0 -0.41017365452E+01  0.15796233449E+02 -0.16290466321E+02  0.23059152783E+02  0.51100000000E-03 0. -1.
        -11    1    3    3    0    0  0.69398108381E+01  0.44379724616E+01 -0.19565468761E+00  0.82398334362E+01  0.51100000000E-03 0.  1.
         12    1    3    3    0    0 -0.11913454896E+02  0.46513565142E+01 -0.14360457880E+02  0.19229879758E+02  0.00000000000E+00 0. -1.
</event>
<event>
 7    1  0.5041278E-013  0.5052885E+02  0.7816164E-02  0.1300439E+00
        -11   -1    0    0    0    0  0.00000000000E+00  0.00000000000E+00  0.45593999997E+02  0.45594000000E+02  0.51100000000E-03 0.  1.
         11   -1    0    0    0    0 -0.00000000000E+00 -0.00000000000E+00 -0.45593999997E+02  0.45594000000E+02  0.51100000000E-03 0. -1.
    9900012    2    1    2    0    0 -0.18776525892E+02 -0.44755407101E+01 -0.35785171262E+02  0.50528845170E+02  0.29999955379E+02 0.  0.
        -12    1    1    2    0    0  0.18776525892E+02  0.44755407101E+01  0.35785171262E+02  0.40659154830E+02  0.00000000000E+00 0.  1.
         11    1    3    3    0    0 -0.19405752456E+02  0.72893701904E+01 -0.21741274291E+02  0.30039992580E+02  0.51100000000E-03 0. -1.
        -11    1    3    3    0    0 -0.37936572097E+01 -0.38692458744E+01 -0.77855464750E+01  0.94856540542E+01  0.51100000000E-03 0.  1.
        -12    1    3    3    0    0  0.44228837741E+01 -0.78956650261E+01 -0.62583504963E+01  0.11003198536E+02  0.00000000000E+00 0.  1.
</event>
<event>
 7    1  0.5041278E-013  0.5052886E+02  0.7816164E-02  0.1300439E+00
        -11   -1    0    0    0    0  0.00000000000E+00  0.00000000000E+00  0.45593999997E+02  0.45594000000E+02  0.51100000000E-03 0.  1.
         11   -1    0    0    0    0 -0.00000000000E+00 -0.00000000000E+00 -0.45593999997E+02  0.45594000000E+02  0.51100000000E-03 0. -1.
    9900012    2    1    2    0    0  0.57048243296E+01  0.75813125150E+01 -0.39536619998E+02  0.50528860302E+02  0.30000001375E+02 0.  0.
        -12    1    1    2    0    0 -0.57048243296E+01 -0.75813125150E+01  0.39536619998E+02  0.40659139698E+02  0.00000000000E+00 0.  1.
         11    1    3    3    0    0 -0.15529183301E+01  0.61995376177E+01 -0.27656155321E+01  0.69637957714E+01  0.51100000000E-03 0. -1.
        -11    1    3    3    0    0 -0.13003268707E+01 -0.71385965584E+01 -0.32793406165E+01  0.79626933844E+01  0.51100000000E-03 0.  1.
         12    1    3    3    0    0  0.85580695304E+01  0.85203714557E+01 -0.33491663850E+02  0.35602371146E+02  0.00000000000E+00 0. -1.
</event>
<event>
 7    1  0.5041278E-013  0.5052886E+02  0.7816164E-02  0.1300439E+00
        -11   -1    0    0    0    0  0.00000000000E+00  0.00000000000E+00  0.45593999997E+02  0.45594000000E+02  0.51100000000E-03 0.  1.
         11   -1    0    0    0    0 -0.00000000000E+00 -0.00000000000E+00 -0.45593999997E+02  0.45594000000E+02  0.51100000000E-03 0. -1.
    9900012    2    1    2    0    0 -0.18458699007E+02 -0.23923368177E+02 -0.27205045372E+02  0.50528860712E+02  0.30000002620E+02 0.  0.
        -12    1    1    2    0    0  0.18458699007E+02  0.23923368177E+02  0.27205045372E+02  0.40659139288E+02  0.00000000000E+00 0.  1.
         11    1    3    3    0    0 -0.25445667934E+01 -0.10491972106E+02 -0.79634412835E+01  0.13415390273E+02  0.51100000000E-03 0. -1.
        -11    1    3    3    0    0  0.60604245120E+01 -0.20575573638E+01 -0.70753876782E+01  0.95406183568E+01  0.51100000000E-03 0.  1.
        -12    1    3    3    0    0 -0.21974556725E+02 -0.11373838707E+02 -0.12166216411E+02  0.27572852082E+02  0.00000000000E+00 0.  1.
</event>
<event>
 7    1  0.5041278E-013  0.5052887E+02  0.7816164E-02  0.1300439E+00
        -11   -1    0    0    0    0  0.00000000000E+00  0.00000000000E+00  0.45593999997E+02  0.45594000000E+02  0.51100000000E-03 0.  1.
         11   -1    0    0    0    0 -0.00000000000E+00 -0.00000000000E+00 -0.45593999997E+02  0.45594000000E+02  0.51100000000E-03 0. -1.
    9900012    2    1    2    0    0  0.18622598285E+02  0.57795982252E+01 -0.35678569018E+02  0.50528865605E+02  0.30000017494E+02 0.  0.
        -12    1    1    2    0    0 -0.18622598285E+02 -0.57795982252E+01  0.35678569018E+02  0.40659134395E+02  0.00000000000E+00 0.  1.
         11    1    3    3    0    0  0.12215734301E+02  0.86846746412E+00 -0.24086626335E+02  0.27021176301E+02  0.51100000000E-03 0. -1.
        -11    1    3    3    0    0  0.12016938295E+01 -0.49990343695E+01  0.23290277337E+01  0.56443585227E+01  0.51100000000E-03 0.  1.
         12    1    3    3    0    0  0.52051701542E+01  0.99101651305E+01 -0.13920970417E+02  0.17863330781E+02  0.00000000000E+00 0. -1.
</event>
<event>
 7    1  0.5041278E-013  0.5052887E+02  0.7816164E-02  0.1300439E+00
        -11   -1    0    0    0    0  0.00000000000E+00  0.00000000000E+00  0.45593999997E+02  0.45594000000E+02  0.51100000000E-03 0. -1.
         11   -1    0    0    0    0 -0.00000000000E+00 -0.00000000000E+00 -0.45593999997E+02  0.45594000000E+02  0.51100000000E-03 0.  1.
    9900012    2    1    2    0    0 -0.10318696215E+02  0.21758433407E+02  0.32760649454E+02  0.50528867342E+02  0.30000022772E+02 0.  0.
        -12    1    1    2    0    0  0.10318696215E+02 -0.21758433407E+02 -0.32760649454E+02  0.40659132658E+02  0.00000000000E+00 0.  1.
         11    1    3    3    0    0 -0.85423734639E+00  0.23381364749E+02  0.27569806377E+02  0.36159537648E+02  0.51100000000E-03 0. -1.
        -11    1    3    3    0    0 -0.30569579166E+01  0.31818246221E+01  0.45449468468E+01  0.63344724904E+01  0.51100000000E-03 0.  1.
        -12    1    3    3    0    0 -0.64075009524E+01 -0.48047559648E+01  0.64589622978E+00  0.80348572032E+01  0.00000000000E+00 0.  1.
</event>
<event>
 7    1  0.5041278E-013  0.5052889E+02  0.7816164E-02  0.1300439E+00
        -11   -1    0    0    0    0  0.00000000000E+00  0.00000000000E+00  0.45593999997E+02  0.45594000000E+02  0.51100000000E-03 0. -1.
         11   -1    0    0    0    0 -0.00000000000E+00 -0.00000000000E+00 -0.45593999997E+02  0.45594000000E+02  0.51100000000E-03 0.  1.
    9900012    2    1    2    0    0  0.11869285616E+02  0.27850738647E+02  0.27140736165E+02  0.50528891011E+02  0.30000094716E+02 0.  0.
        -12    1    1    2    0    0 -0.11869285616E+02 -0.27850738647E+02 -0.27140736165E+02  0.40659108989E+02  0.00000000000E+00 0.  1.
         11    1    3    3    0    0  0.46173507460E+01  0.19305406391E+02  0.10091306477E+02  0.22267759441E+02  0.51100000000E-03 0. -1.
        -11    1    3    3    0    0 -0.55002121840E+01  0.80694551207E+01  0.78558917201E+01  0.12533294658E+02  0.51100000000E-03 0.  1.
         12    1    3    3    0    0  0.12752147054E+02  0.47587713483E+00  0.91935379685E+01  0.15727836912E+02  0.00000000000E+00 0. -1.
</event>
<event>
 7    1  0.5041278E-013  0.5052886E+02  0.7816164E-02  0.1300439E+00
        -11   -1    0    0    0    0  0.00000000000E+00  0.00000000000E+00  0.45593999997E+02  0.45594000000E+02  0.51100000000E-03 0.  1.
         11   -1    0    0    0    0 -0.00000000000E+00 -0.00000000000E+00 -0.45593999997E+02  0.45594000000E+02  0.51100000000E-03 0. -1.
    9900012    2    1    2    0    0  0.27034417338E+02  0.92832149954E+01 -0.28915876615E+02  0.50528859308E+02  0.29999998352E+02 0.  0.
        -12    1    1    2    0    0 -0.27034417338E+02 -0.92832149954E+01  0.28915876615E+02  0.40659140692E+02  0.00000000000E+00 0.  1.
         11    1    3    3    0    0  0.48535112312E+01  0.38221020851E-02 -0.93486618625E+01  0.10533473537E+02  0.51100000000E-03 0. -1.
        -11    1    3    3    0    0  0.43922291395E+01 -0.20767776072E+01 -0.18210347428E+02  0.18847319060E+02  0.51100000000E-03 0.  1.
        -12    1    3    3    0    0  0.17788676967E+02  0.11356170501E+02 -0.13568673243E+01  0.21148066711E+02  0.00000000000E+00 0.  1.
</event>
<event>
 7    1  0.5041278E-013  0.5052885E+02  0.7816164E-02  0.1300439E+00
        -11   -1    0    0    0    0  0.00000000000E+00  0.00000000000E+00  0.45593999997E+02  0.45594000000E+02  0.51100000000E-03 0.  1.
         11   -1    0    0    0    0 -0.00000000000E+00 -0.00000000000E+00 -0.45593999997E+02  0.45594000000E+02  0.51100000000E-03 0. -1.
    9900012    2    1    2    0    0 -0.27410646967E+02 -0.24512014165E+02  0.17348894552E+02  0.50528849151E+02  0.29999967480E+02 0.  0.
        -12    1    1    2    0    0  0.27410646967E+02  0.24512014165E+02 -0.17348894552E+02  0.40659150849E+02  0.00000000000E+00 0.  1.
         11    1    3    3    0    0 -0.43202340104E+01  0.38059800219E+01  0.82353771082E+00  0.58161946712E+01  0.51100000000E-03 0. -1.
        -11    1    3    3    0    0 -0.17420223383E+02 -0.58574129936E+01  0.70481379432E+01  0.19683742490E+02  0.51100000000E-03 0.  1.
        -12    1    3    3    0    0 -0.56701895737E+01 -0.22460581193E+02  0.94772188981E+01  0.25028911990E+02  0.00000000000E+00 0.  1.
</event>
<event>
 7    1  0.5041278E-013  0.5052891E+02  0.7816164E-02  0.1300439E+00
        -11   -1    0    0    0    0  0.00000000000E+00  0.00000000000E+00  0.45593999997E+02  0.45594000000E+02  0.51100000000E-03 0.  1.
         11   -1    0    0    0    0 -0.00000000000E+00 -0.00000000000E+00 -0.45593999997E+02  0.45594000000E+02  0.51100000000E-03 0. -1.
    9900012    2    1    2    0    0  0.14496665377E+02 -0.78588673932E+01 -0.37165120664E+02  0.50528913712E+02  0.30000163719E+02 0.  0.
        -12    1    1    2    0    0 -0.14496665377E+02  0.78588673932E+01  0.37165120664E+02  0.40659086288E+02  0.00000000000E+00 0.  1.
         11    1    3    3    0    0 -0.43191746743E+01 -0.56744154761E+01 -0.30273884864E+01  0.77472151236E+01  0.51100000000E-03 0.  1.
        -11    1    3    3    0    0  0.83847326040E+01 -0.93020991598E+01 -0.21715610382E+02  0.25067918225E+02  0.51100000000E-03 0. -1.
         12    1    3    3    0    0  0.10431107447E+02  0.71176472427E+01 -0.12422121796E+02  0.17713780363E+02  0.00000000000E+00 0. -1.
</event>
<event>
 7    1  0.5041278E-013  0.5052894E+02  0.7816164E-02  0.1300439E+00
        -11   -1    0    0    0    0  0.00000000000E+00  0.00000000000E+00  0.45593999997E+02  0.45594000000E+02  0.51100000000E-03 0.  1.
         11   -1    0    0    0    0 -0.00000000000E+00 -0.00000000000E+00 -0.45593999997E+02  0.45594000000E+02  0.51100000000E-03 0. -1.
    9900012    2    1    2    0    0 -0.20195714355E+02 -0.13689547317E+02 -0.32525199353E+02  0.50528939792E+02  0.30000242989E+02 0.  0.
        -12    1    1    2    0    0  0.20195714355E+02  0.13689547317E+02  0.32525199353E+02  0.40659060208E+02  0.00000000000E+00 0.  1.
         11    1    3    3    0    0 -0.11003306309E+02 -0.55216619950E+01 -0.25413687022E+02  0.28238572720E+02  0.51100000000E-03 0. -1.
        -11    1    3    3    0    0 -0.13358080562E+02 -0.17568350610E+01 -0.48089329478E+01  0.14305615055E+02  0.51100000000E-03 0.  1.
        -12    1    3    3    0    0  0.41656725158E+01 -0.64110502612E+01 -0.23025793829E+01  0.79847520171E+01  0.00000000000E+00 0.  1.
</event>
<event>
 7    1  0.5041278E-013  0.5052885E+02  0.7816164E-02  0.1300439E+00
        -11   -1    0    0    0    0  0.00000000000E+00  0.00000000000E+00  0.45593999997E+02  0.45594000000E+02  0.51100000000E-03 0. -1.
         11   -1    0    0    0    0 -0.00000000000E+00 -0.00000000000E+00 -0.45593999997E+02  0.45594000000E+02  0.51100000000E-03 0.  1.
    9900012    2    1    2    0    0 -0.36359419185E+02 -0.85565837104E+01 -0.16060624383E+02  0.50528854118E+02  0.29999982578E+02 0.  0.
        -12    1    1    2    0    0  0.36359419185E+02  0.85565837104E+01  0.16060624383E+02  0.40659145882E+02  0.00000000000E+00 0.  1.
         11    1    3    3    0    0 -0.20208448750E+02  0.62400444160E+01 -0.90035308901E+00  0.21169085741E+02  0.51100000000E-03 0. -1.
        -11    1    3    3    0    0 -0.14583693178E+02 -0.63932782075E+01 -0.12965077872E+02  0.20534151003E+02  0.51100000000E-03 0.  1.
        -12    1    3    3    0    0 -0.15672772574E+01 -0.84033499189E+01 -0.21951934225E+01  0.88256173734E+01  0.00000000000E+00 0.  1.
</event>
<event>
 7    1  0.5041278E-013  0.5052886E+02  0.7816164E-02  0.1300439E+00
        -11   -1    0    0    0    0  0.00000000000E+00  0.00000000000E+00  0.45593999997E+02  0.45594000000E+02  0.51100000000E-03 0. -1.
         11   -1    0    0    0    0 -0.00000000000E+00 -0.00000000000E+00 -0.45593999997E+02  0.45594000000E+02  0.51100000000E-03 0.  1.
    9900012    2    1    2    0    0  0.32810636394E+02  0.84893379190E+01  0.22462389106E+02  0.50528860274E+02  0.30000001289E+02 0.  0.
        -12    1    1    2    0    0 -0.32810636394E+02 -0.84893379190E+01 -0.22462389106E+02  0.40659139726E+02  0.00000000000E+00 0.  1.
         11    1    3    3    0    0  0.10348257402E+02  0.55795586764E+01  0.64970480599E+01  0.13432406338E+02  0.51100000000E-03 0. -1.
        -11    1    3    3    0    0  0.54193014578E+01  0.88164649447E+01 -0.31467165679E+01  0.10816686546E+02  0.51100000000E-03 0.  1.
        -12    1    3    3    0    0  0.17043077534E+02 -0.59066857021E+01  0.19112057614E+02  0.26279767390E+02  0.00000000000E+00 0.  1.
</event>
<event>
 7    1  0.5041278E-013  0.5052886E+02  0.7816164E-02  0.1300439E+00
        -11   -1    0    0    0    0  0.00000000000E+00  0.00000000000E+00  0.45593999997E+02  0.45594000000E+02  0.51100000000E-03 0.  1.
         11   -1    0    0    0    0 -0.00000000000E+00 -0.00000000000E+00 -0.45593999997E+02  0.45594000000E+02  0.51100000000E-03 0. -1.
    9900012    2    1    2    0    0  0.39264343388E+02  0.10538474015E+02  0.64648623386E+00  0.50528855386E+02  0.29999986432E+02 0.  0.
        -12    1    1    2    0    0 -0.39264343388E+02 -0.10538474015E+02 -0.64648623386E+00  0.40659144614E+02  0.00000000000E+00 0.  1.
         11    1    3    3    0    0  0.27811051185E+02 -0.15512937055E+01 -0.59653140807E+01  0.28485892166E+02  0.51100000000E-03 0. -1.
        -11    1    3    3    0    0  0.10499798499E+01  0.35994566918E+01 -0.35807788387E+01  0.51846430460E+01  0.51100000000E-03 0.  1.
        -12    1    3    3    0    0  0.10403312353E+02  0.84903110290E+01  0.10192579153E+02  0.16858320174E+02  0.00000000000E+00 0.  1.
</event>
<event>
 7    1  0.5041278E-013  0.5052886E+02  0.7816164E-02  0.1300439E+00
        -11   -1    0    0    0    0  0.00000000000E+00  0.00000000000E+00  0.45593999997E+02  0.45594000000E+02  0.51100000000E-03 0.  1.
         11   -1    0    0    0    0 -0.00000000000E+00 -0.00000000000E+00 -0.45593999997E+02  0.45594000000E+02  0.51100000000E-03 0. -1.
    9900012    2    1    2    0    0  0.11694885404E+02  0.30451733807E+02 -0.24271111701E+02  0.50528864499E+02  0.30000014132E+02 0.  0.
        -12    1    1    2    0    0 -0.11694885404E+02 -0.30451733807E+02  0.24271111701E+02  0.40659135501E+02  0.00000000000E+00 0.  1.
         11    1    3    3    0    0 -0.32798260686E+00  0.22029825685E+02 -0.20243705628E+02  0.29920367814E+02  0.51100000000E-03 0. -1.
        -11    1    3    3    0    0  0.39945484945E+01 -0.36078275096E+01 -0.28690347129E+01  0.60995243633E+01  0.51100000000E-03 0.  1.
         12    1    3    3    0    0  0.80283195165E+01  0.12029735632E+02 -0.11583713598E+01  0.14508972322E+02  0.00000000000E+00 0. -1.
</event>
<event>
 7    1  0.5041278E-013  0.5052890E+02  0.7816164E-02  0.1300439E+00
        -11   -1    0    0    0    0  0.00000000000E+00  0.00000000000E+00  0.45593999997E+02  0.45594000000E+02  0.51100000000E-03 0.  1.
         11   -1    0    0    0    0 -0.00000000000E+00 -0.00000000000E+00 -0.45593999997E+02  0.45594000000E+02  0.51100000000E-03 0. -1.
    9900012    2    1    2    0    0 -0.16407299461E+01  0.56349076905E+01 -0.40233295726E+02  0.50528901825E+02  0.30000127586E+02 0.  0.
        -12    1    1    2    0    0  0.16407299461E+01 -0.56349076905E+01  0.40233295726E+02  0.40659098175E+02  0.00000000000E+00 0.  1.
         11    1    3    3    0    0 -0.12996468408E+02 -0.24071217543E+00 -0.94854942698E+01  0.16091635568E+02  0.51100000000E-03 0. -1.
        -11    1    3    3    0    0  0.10720137345E+01 -0.20925997672E+01 -0.66277281504E+01  0.70324226216E+01  0.51100000000E-03 0.  1.
         12    1    3    3    0    0  0.10283724728E+02  0.79682196331E+01 -0.24120073306E+02  0.27404843635E+02  0.00000000000E+00 0. -1.
</event>
<event>
 7    1  0.5041278E-013  0.5052886E+02  0.7816164E-02  0.1300439E+00
        -11   -1    0    0    0    0  0.00000000000E+00  0.00000000000E+00  0.45593999997E+02  0.45594000000E+02  0.51100000000E-03 0. -1.
         11   -1    0    0    0    0 -0.00000000000E+00 -0.00000000000E+00 -0.45593999997E+02  0.45594000000E+02  0.51100000000E-03 0.  1.
    9900012    2    1    2    0    0  0.34323481004E+02  0.15852342400E+02  0.14958863535E+02  0.50528859502E+02  0.29999998941E+02 0.  0.
        -12    1    1    2    0    0 -0.34323481004E+02 -0.15852342400E+02 -0.14958863535E+02  0.40659140498E+02  0.00000000000E+00 0.  1.
         11    1    3    3    0    0  0.39436899841E+01 -0.32830770420E+01  0.41638858197E+00  0.51482681813E+01  0.51100000000E-03 0.  1.
        -11    1    3    3    0    0  0.29122218486E+02  0.10560402304E+02  0.32531264838E+01  0.31148170709E+02  0.51100000000E-03 0. -1.
         12    1    3    3    0    0  0.12575725344E+01  0.85750171379E+01  0.11289348469E+02  0.14232420611E+02  0.00000000000E+00 0. -1.
</event>
<event>
 7    1  0.5041278E-013  0.5052885E+02  0.7816164E-02  0.1300439E+00
        -11   -1    0    0    0    0  0.00000000000E+00  0.00000000000E+00  0.45593999997E+02  0.45594000000E+02  0.51100000000E-03 0. -1.
         11   -1    0    0    0    0 -0.00000000000E+00 -0.00000000000E+00 -0.45593999997E+02  0.45594000000E+02  0.51100000000E-03 0.  1.
    9900012    2    1    2    0    0  0.25608850561E+02  0.21126497808E+02  0.23473908212E+02  0.50528849696E+02  0.29999969136E+02 0.  0.
        -12    1    1    2    0    0 -0.25608850561E+02 -0.21126497808E+02 -0.23473908212E+02  0.40659150304E+02  0.00000000000E+00 0.  1.
         11    1    3    3    0    0  0.39848629324E+01  0.79436920582E+01  0.21188546915E+02  0.22976855675E+02  0.51100000000E-03 0. -1.
        -11    1    3    3    0    0  0.14902569232E+02  0.11595042728E+02  0.58664343674E+01  0.19772370571E+02  0.51100000000E-03 0.  1.
        -12    1    3    3    0    0  0.67214183971E+01  0.15877630222E+01 -0.35810730701E+01  0.77796234495E+01  0.00000000000E+00 0.  1.
</event>
<event>
 7    1  0.5041278E-013  0.5052886E+02  0.7816164E-02  0.1300439E+00
        -11   -1    0    0    0    0  0.00000000000E+00  0.00000000000E+00  0.45593999997E+02  0.45594000000E+02  0.51100000000E-03 0.  1.
         11   -1    0    0    0    0 -0.00000000000E+00 -0.00000000000E+00 -0.45593999997E+02  0.45594000000E+02  0.51100000000E-03 0. -1.
    9900012    2    1    2    0    0 -0.12548278217E+02 -0.62521820245E+01 -0.38165642847E+02  0.50528863755E+02  0.30000011869E+02 0.  0.
        -12    1    1    2    0    0  0.12548278217E+02  0.62521820245E+01  0.38165642847E+02  0.40659136245E+02  0.00000000000E+00 0.  1.
         11    1    3    3    0    0  0.30482037542E+01  0.29101179687E+01 -0.62782937966E+01  0.75615676931E+01  0.51100000000E-03 0.  1.
        -11    1    3    3    0    0 -0.68974184876E+01 -0.62416994818E+01 -0.32466416289E+02  0.33772790544E+02  0.51100000000E-03 0. -1.
         12    1    3    3    0    0 -0.86990634838E+01 -0.29206005114E+01  0.57906723901E+00  0.91945055174E+01  0.00000000000E+00 0. -1.
</event>
<event>
 7    1  0.5041278E-013  0.5052885E+02  0.7816164E-02  0.1300439E+00
        -11   -1    0    0    0    0  0.00000000000E+00  0.00000000000E+00  0.45593999997E+02  0.45594000000E+02  0.51100000000E-03 0. -1.
         11   -1    0    0    0    0 -0.00000000000E+00 -0.00000000000E+00 -0.45593999997E+02  0.45594000000E+02  0.51100000000E-03 0.  1.
    9900012    2    1    2    0    0 -0.26922832233E+02 -0.10309810841E+02 -0.28671164019E+02  0.50528846772E+02  0.29999960249E+02 0.  0.
        -12    1    1    2    0    0  0.26922832233E+02  0.10309810841E+02  0.28671164019E+02  0.40659153228E+02  0.00000000000E+00 0.  1.
         11    1    3    3    0    0 -0.11712701663E+02 -0.19196512590E+01  0.85231088295E+00  0.11899532567E+02  0.51100000000E-03 0. -1.
        -11    1    3    3    0    0  0.14968933879E+01  0.35658939839E+01 -0.79377231861E+01  0.88297077732E+01  0.51100000000E-03 0.  1.
         12    1    3    3    0    0 -0.16707023957E+02 -0.11956053566E+02 -0.21585751716E+02  0.29799606432E+02  0.00000000000E+00 0. -1.
</event>
<event>
 7    1  0.5041278E-013  0.5052891E+02  0.7816164E-02  0.1300439E+00
        -11   -1    0    0    0    0  0.00000000000E+00  0.00000000000E+00  0.45593999997E+02  0.45594000000E+02  0.51100000000E-03 0.  1.
         11   -1    0    0    0    0 -0.00000000000E+00 -0.00000000000E+00 -0.45593999997E+02  0.45594000000E+02  0.51100000000E-03 0. -1.
    9900012    2    1    2    0    0 -0.22713858437E+01  0.17645791076E+02 -0.36559929455E+02  0.50528910264E+02  0.30000153239E+02 0.  0.
        -12    1    1    2    0    0  0.22713858437E+01 -0.17645791076E+02  0.36559929455E+02  0.40659089736E+02  0.00000000000E+00 0.  1.
         11    1    3    3    0    0  0.92399333173E+01  0.60589709537E+01 -0.20778976989E+02  0.23534089778E+02  0.51100000000E-03 0. -1.
        -11    1    3    3    0    0  0.32133951705E+01  0.45288735001E+00 -0.11613895051E+01  0.34467145685E+01  0.51100000000E-03 0.  1.
        -12    1    3    3    0    0 -0.14724714332E+02  0.11133932772E+02 -0.14619562961E+02  0.23548105917E+02  0.00000000000E+00 0.  1.
</event>
<event>
 7    1  0.5041278E-013  0.5052888E+02  0.7816164E-02  0.1300439E+00
        -11   -1    0    0    0    0  0.00000000000E+00  0.00000000000E+00  0.45593999997E+02  0.45594000000E+02  0.51100000000E-03 0.  1.
         11   -1    0    0    0    0 -0.00000000000E+00 -0.00000000000E+00 -0.45593999997E+02  0.45594000000E+02  0.51100000000E-03 0. -1.
    9900012    2    1    2    0    0 -0.35789979341E+01  0.25149603241E+02 -0.31746690565E+02  0.50528878868E+02  0.30000057806E+02 0.  0.
        -12    1    1    2    0    0  0.35789979341E+01 -0.25149603241E+02  0.31746690565E+02  0.40659121132E+02  0.00000000000E+00 0.  1.
         11    1    3    3    0    0 -0.53065967643E+01  0.11159422736E+02 -0.20052046844E+02  0.23553710279E+02  0.51100000000E-03 0. -1.
        -11    1    3    3    0    0 -0.87763425028E+01  0.62187846970E+01 -0.26319435362E+01  0.11073599138E+02  0.51100000000E-03 0.  1.
        -12    1    3    3    0    0  0.10503941333E+02  0.77713958085E+01 -0.90627001851E+01  0.15901569450E+02  0.00000000000E+00 0.  1.
</event>
<event>
 7    1  0.5041278E-013  0.5052886E+02  0.7816164E-02  0.1300439E+00
        -11   -1    0    0    0    0  0.00000000000E+00  0.00000000000E+00  0.45593999997E+02  0.45594000000E+02  0.51100000000E-03 0.  1.
         11   -1    0    0    0    0 -0.00000000000E+00 -0.00000000000E+00 -0.45593999997E+02  0.45594000000E+02  0.51100000000E-03 0. -1.
    9900012    2    1    2    0    0  0.68419415584E+00 -0.31284939119E+02 -0.25960549347E+02  0.50528860072E+02  0.30000000674E+02 0.  0.
        -12    1    1    2    0    0 -0.68419415584E+00  0.31284939119E+02  0.25960549347E+02  0.40659139928E+02  0.00000000000E+00 0.  1.
         11    1    3    3    0    0  0.92239364544E+01 -0.10428578785E+02 -0.90948895533E+01  0.16629891023E+02  0.51100000000E-03 0. -1.
        -11    1    3    3    0    0  0.60456347340E+01 -0.48576101077E+01 -0.43322037080E+01  0.88833588537E+01  0.51100000000E-03 0.  1.
         12    1    3    3    0    0 -0.14585377033E+02 -0.15998750226E+02 -0.12533456086E+02  0.25015610195E+02  0.00000000000E+00 0. -1.
</event>
<event>
 7    1  0.5041278E-013  0.5052886E+02  0.7816164E-02  0.1300439E+00
        -11   -1    0    0    0    0  0.00000000000E+00  0.00000000000E+00  0.45593999997E+02  0.45594000000E+02  0.51100000000E-03 0.  1.
         11   -1    0    0    0    0 -0.00000000000E+00 -0.00000000000E+00 -0.45593999997E+02  0.45594000000E+02  0.51100000000E-03 0. -1.
    9900012    2    1    2    0    0  0.40056898524E+02  0.44086231106E+01 -0.54013227547E+01  0.50528863701E+02  0.30000011705E+02 0.  0.
        -12    1    1    2    0    0 -0.40056898524E+02 -0.44086231106E+01  0.54013227547E+01  0.40659136299E+02  0.00000000000E+00 0.  1.
         11    1    3    3    0    0  0.13420407522E+02  0.76821748597E+00 -0.19361908673E+01  0.13581101999E+02  0.51100000000E-03 0. -1.
        -11    1    3    3    0    0  0.19615849392E+02  0.10872635250E+02  0.58983741821E+01  0.23190225590E+02  0.51100000000E-03 0.  1.
        -12    1    3    3    0    0  0.70206416098E+01 -0.72322296255E+01 -0.93635060695E+01  0.13757536112E+02  0.00000000000E+00 0.  1.
</event>
<event>
 7    1  0.5041278E-013  0.5052887E+02  0.7816164E-02  0.1300439E+00
        -11   -1    0    0    0    0  0.00000000000E+00  0.00000000000E+00  0.45593999997E+02  0.45594000000E+02  0.51100000000E-03 0.  1.
         11   -1    0    0    0    0 -0.00000000000E+00 -0.00000000000E+00 -0.45593999997E+02  0.45594000000E+02  0.51100000000E-03 0. -1.
    9900012    2    1    2    0    0  0.39552394173E+02  0.25057290986E+01 -0.90826202172E+01  0.50528873680E+02  0.30000042036E+02 0.  0.
        -12    1    1    2    0    0 -0.39552394173E+02 -0.25057290986E+01  0.90826202172E+01  0.40659126320E+02  0.00000000000E+00 0.  1.
         11    1    3    3    0    0  0.28250306387E+02 -0.20492419676E+01 -0.16601507560E+02  0.32831223814E+02  0.51100000000E-03 0. -1.
        -11    1    3    3    0    0  0.87387999851E+01  0.31226066474E+01 -0.36252126645E+00  0.92870188642E+01  0.51100000000E-03 0.  1.
        -12    1    3    3    0    0  0.25632878009E+01  0.14323644189E+01  0.78814086091E+01  0.84106310014E+01  0.00000000000E+00 0.  1.
</event>
<event>
 7    1  0.5041278E-013  0.5052886E+02  0.7816164E-02  0.1300439E+00
        -11   -1    0    0    0    0  0.00000000000E+00  0.00000000000E+00  0.45593999997E+02  0.45594000000E+02  0.51100000000E-03 0. -1.
         11   -1    0    0    0    0 -0.00000000000E+00 -0.00000000000E+00 -0.45593999997E+02  0.45594000000E+02  0.51100000000E-03 0.  1.
    9900012    2    1    2    0    0 -0.88055805961E+01  0.18903068744E+02  0.34904177349E+02  0.50528857682E+02  0.29999993411E+02 0.  0.
        -12    1    1    2    0    0  0.88055805961E+01 -0.18903068744E+02 -0.34904177349E+02  0.40659142318E+02  0.00000000000E+00 0.  1.
         11    1    3    3    0    0 -0.90998908544E+01 -0.11482746447E+01  0.51397577348E+01  0.10513974418E+02  0.51100000000E-03 0. -1.
        -11    1    3    3    0    0  0.92144259538E+00  0.85995583495E+01  0.59206767130E+00  0.86690255884E+01  0.51100000000E-03 0.  1.
         12    1    3    3    0    0 -0.62713233710E+00  0.11451785039E+02  0.29172351943E+02  0.31345857676E+02  0.00000000000E+00 0. -1.
</event>
<event>
 7    1  0.5041278E-013  0.5052887E+02  0.7816164E-02  0.1300439E+00
        -11   -1    0    0    0    0  0.00000000000E+00  0.00000000000E+00  0.45593999997E+02  0.45594000000E+02  0.51100000000E-03 0.  1.
         11   -1    0    0    0    0 -0.00000000000E+00 -0.00000000000E+00 -0.45593999997E+02  0.45594000000E+02  0.51100000000E-03 0. -1.
    9900012    2    1    2    0    0  0.39418656593E+02 -0.42003392188E+01 -0.90383527116E+01  0.50528866255E+02  0.30000019470E+02 0.  0.
        -12    1    1    2    0    0 -0.39418656593E+02  0.42003392188E+01  0.90383527116E+01  0.40659133745E+02  0.00000000000E+00 0.  1.
         11    1    3    3    0    0  0.47100861374E+01  0.53434682557E+01 -0.20276836161E+01  0.74060154962E+01  0.51100000000E-03 0. -1.
        -11    1    3    3    0    0  0.28870471043E+02 -0.10679835581E+01 -0.12477011229E+02  0.31469358058E+02  0.51100000000E-03 0.  1.
        -12    1    3    3    0    0  0.58380994122E+01 -0.84758239164E+01  0.54663421336E+01  0.11653492701E+02  0.00000000000E+00 0.  1.
</event>
<event>
 7    1  0.5041278E-013  0.5052886E+02  0.7816164E-02  0.1300439E+00
        -11   -1    0    0    0    0  0.00000000000E+00  0.00000000000E+00  0.45593999997E+02  0.45594000000E+02  0.51100000000E-03 0.  1.
         11   -1    0    0    0    0 -0.00000000000E+00 -0.00000000000E+00 -0.45593999997E+02  0.45594000000E+02  0.51100000000E-03 0. -1.
    9900012    2    1    2    0    0  0.30461594122E+02  0.26781821975E+02 -0.28268395792E+01  0.50528859247E+02  0.29999998167E+02 0.  0.
        -12    1    1    2    0    0 -0.30461594122E+02 -0.26781821975E+02  0.28268395792E+01  0.40659140753E+02  0.00000000000E+00 0.  1.
         11    1    3    3    0    0 -0.17861542607E+00  0.99336379684E+01  0.29743421605E+01  0.10370910197E+02  0.51100000000E-03 0. -1.
        -11    1    3    3    0    0 -0.10528602240E+01  0.61681398530E+00 -0.43530229085E+01  0.45208166128E+01  0.51100000000E-03 0.  1.
         12    1    3    3    0    0  0.31693069772E+02  0.16231370021E+02 -0.14481588312E+01  0.35637132437E+02  0.00000000000E+00 0. -1.
</event>
<event>
 7    1  0.5041278E-013  0.5052886E+02  0.7816164E-02  0.1300439E+00
        -11   -1    0    0    0    0  0.00000000000E+00  0.00000000000E+00  0.45593999997E+02  0.45594000000E+02  0.51100000000E-03 0.  1.
         11   -1    0    0    0    0 -0.00000000000E+00 -0.00000000000E+00 -0.45593999997E+02  0.45594000000E+02  0.51100000000E-03 0. -1.
    9900012    2    1    2    0    0 -0.37182588310E+02  0.15793351532E+02  0.46033596646E+01  0.50528859007E+02  0.29999997438E+02 0.  0.
        -12    1    1    2    0    0  0.37182588310E+02 -0.15793351532E+02 -0.46033596646E+01  0.40659140993E+02  0.00000000000E+00 0.  1.
         11    1    3    3    0    0 -0.13252332023E+02 -0.65982807101E+01  0.88055830889E+01  0.17224979134E+02  0.51100000000E-03 0. -1.
        -11    1    3    3    0    0 -0.81072847136E+01  0.56826865336E+01  0.58324851899E-01  0.99007269287E+01  0.51100000000E-03 0.  1.
         12    1    3    3    0    0 -0.15822971574E+02  0.16708945709E+02 -0.42605482762E+01  0.23403152944E+02  0.00000000000E+00 0. -1.
</event>
<event>
 7    1  0.5041278E-013  0.5052889E+02  0.7816164E-02  0.1300439E+00
        -11   -1    0    0    0    0  0.00000000000E+00  0.00000000000E+00  0.45593999997E+02  0.45594000000E+02  0.51100000000E-03 0. -1.
         11   -1    0    0    0    0 -0.00000000000E+00 -0.00000000000E+00 -0.45593999997E+02  0.45594000000E+02  0.51100000000E-03 0.  1.
    9900012    2    1    2    0    0 -0.35477944973E+01 -0.16201940471E+02  0.37122415401E+02  0.50528887294E+02  0.30000083419E+02 0.  0.
        -12    1    1    2    0    0  0.35477944973E+01  0.16201940471E+02 -0.37122415401E+02  0.40659112706E+02  0.00000000000E+00 0.  1.
         11    1    3    3    0    0 -0.46533639925E+01 -0.18311455126E+02  0.27502703515E+02  0.33367077879E+02  0.51100000000E-03 0. -1.
        -11    1    3    3    0    0  0.26298597743E+01 -0.53893263647E+01  0.18961400967E+01  0.62893838033E+01  0.51100000000E-03 0.  1.
        -12    1    3    3    0    0 -0.15242902792E+01  0.74988410199E+01  0.77235717894E+01  0.10872425612E+02  0.00000000000E+00 0.  1.
</event>
<event>
 7    1  0.5041278E-013  0.5052885E+02  0.7816164E-02  0.1300439E+00
        -11   -1    0    0    0    0  0.00000000000E+00  0.00000000000E+00  0.45593999997E+02  0.45594000000E+02  0.51100000000E-03 0.  1.
         11   -1    0    0    0    0 -0.00000000000E+00 -0.00000000000E+00 -0.45593999997E+02  0.45594000000E+02  0.51100000000E-03 0. -1.
    9900012    2    1    2    0    0  0.19944721706E+02 -0.28976065225E+02 -0.20390243306E+02  0.50528852174E+02  0.29999976667E+02 0.  0.
        -12    1    1    2    0    0 -0.19944721706E+02  0.28976065225E+02  0.20390243306E+02  0.40659147826E+02  0.00000000000E+00 0.  1.
         11    1    3    3    0    0  0.27880828402E+00 -0.12166670099E+02 -0.19460780790E+02  0.22952724992E+02  0.51100000000E-03 0. -1.
        -11    1    3    3    0    0  0.11753369147E+02 -0.13823140073E+02 -0.39973882788E+01  0.18579558689E+02  0.51100000000E-03 0.  1.
        -12    1    3    3    0    0  0.79125442753E+01 -0.29862550533E+01  0.30679257620E+01  0.89965684921E+01  0.00000000000E+00 0.  1.
</event>
<event>
 7    1  0.5041278E-013  0.5052886E+02  0.7816164E-02  0.1300439E+00
        -11   -1    0    0    0    0  0.00000000000E+00  0.00000000000E+00  0.45593999997E+02  0.45594000000E+02  0.51100000000E-03 0.  1.
         11   -1    0    0    0    0 -0.00000000000E+00 -0.00000000000E+00 -0.45593999997E+02  0.45594000000E+02  0.51100000000E-03 0. -1.
    9900012    2    1    2    0    0  0.21401662138E+02  0.28083381972E+02 -0.20160814934E+02  0.50528856575E+02  0.29999990045E+02 0.  0.
        -12    1    1    2    0    0 -0.21401662138E+02 -0.28083381972E+02  0.20160814934E+02  0.40659143425E+02  0.00000000000E+00 0.  1.
         11    1    3    3    0    0  0.14147086961E+02  0.66301611282E+01 -0.13927031879E+02  0.20929914555E+02  0.51100000000E-03 0. -1.
        -11    1    3    3    0    0  0.61780408531E+01  0.15111804242E+02 -0.12543853936E+02  0.20588421213E+02  0.51100000000E-03 0.  1.
        -12    1    3    3    0    0  0.10765343235E+01  0.63414166023E+01  0.63100708811E+01  0.90105208061E+01  0.00000000000E+00 0.  1.
</event>
<event>
 7    1  0.5041278E-013  0.5052887E+02  0.7816164E-02  0.1300439E+00
        -11   -1    0    0    0    0  0.00000000000E+00  0.00000000000E+00  0.45593999997E+02  0.45594000000E+02  0.51100000000E-03 0. -1.
         11   -1    0    0    0    0 -0.00000000000E+00 -0.00000000000E+00 -0.45593999997E+02  0.45594000000E+02  0.51100000000E-03 0.  1.
    9900012    2    1    2    0    0  0.39586782623E+02 -0.13502732693E+01  0.91776103705E+01  0.50528866605E+02  0.30000020532E+02 0.  0.
        -12    1    1    2    0    0 -0.39586782623E+02  0.13502732693E+01 -0.91776103705E+01  0.40659133395E+02  0.00000000000E+00 0.  1.
         11    1    3    3    0    0  0.20718546533E+02  0.34533416169E+01  0.14153071525E+00  0.21004851105E+02  0.51100000000E-03 0.  1.
        -11    1    3    3    0    0  0.20073691602E+02 -0.40671308121E+01  0.10492881188E+00  0.20481837268E+02  0.51100000000E-03 0. -1.
        -12    1    3    3    0    0 -0.12054555115E+01 -0.73648407397E+00  0.89311508434E+01  0.90421782314E+01  0.00000000000E+00 0.  1.
</event>
<event>
 7    1  0.5041278E-013  0.5052886E+02  0.7816164E-02  0.1300439E+00
        -11   -1    0    0    0    0  0.00000000000E+00  0.00000000000E+00  0.45593999997E+02  0.45594000000E+02  0.51100000000E-03 0.  1.
         11   -1    0    0    0    0 -0.00000000000E+00 -0.00000000000E+00 -0.45593999997E+02  0.45594000000E+02  0.51100000000E-03 0. -1.
    9900012    2    1    2    0    0  0.26986668596E+02 -0.30409155982E+02  0.41039628556E+00  0.50528862348E+02  0.30000007594E+02 0.  0.
        -12    1    1    2    0    0 -0.26986668596E+02  0.30409155982E+02 -0.41039628556E+00  0.40659137652E+02  0.00000000000E+00 0.  1.
         11    1    3    3    0    0  0.28188851425E+01 -0.23032573733E+02 -0.15683096883E+01  0.23257367902E+02  0.51100000000E-03 0. -1.
        -11    1    3    3    0    0  0.82466524636E+01 -0.73349488240E+01 -0.97113980480E+00  0.11079344019E+02  0.51100000000E-03 0.  1.
        -12    1    3    3    0    0  0.15921130990E+02 -0.41633425273E-01  0.29498457787E+01  0.16192150427E+02  0.00000000000E+00 0.  1.
</event>
<event>
 7    1  0.5041278E-013  0.5052880E+02  0.7816164E-02  0.1300439E+00
        -11   -1    0    0    0    0  0.00000000000E+00  0.00000000000E+00  0.45593999997E+02  0.45594000000E+02  0.51100000000E-03 0. -1.
         11   -1    0    0    0    0 -0.00000000000E+00 -0.00000000000E+00 -0.45593999997E+02  0.45594000000E+02  0.51100000000E-03 0.  1.
    9900012    2    1    2    0    0 -0.87746346403E+01 -0.34127368578E+02 -0.20285435069E+02  0.50528802085E+02  0.29999824416E+02 0.  0.
        -12    1    1    2    0    0  0.87746346403E+01  0.34127368578E+02  0.20285435069E+02  0.40659197915E+02  0.00000000000E+00 0.  1.
         11    1    3    3    0    0 -0.69763921863E+01 -0.15406380598E+02 -0.93276989722E+01  0.19314051347E+02  0.51100000000E-03 0. -1.
        -11    1    3    3    0    0 -0.10741847090E+02 -0.61015557427E+01 -0.16629106475E+00  0.12354914583E+02  0.51100000000E-03 0.  1.
        -12    1    3    3    0    0  0.89436046356E+01 -0.12619432237E+02 -0.10791445032E+02  0.18859836154E+02  0.00000000000E+00 0.  1.
</event>
<event>
 7    1  0.5041278E-013  0.5052886E+02  0.7816164E-02  0.1300439E+00
        -11   -1    0    0    0    0  0.00000000000E+00  0.00000000000E+00  0.45593999997E+02  0.45594000000E+02  0.51100000000E-03 0. -1.
         11   -1    0    0    0    0 -0.00000000000E+00 -0.00000000000E+00 -0.45593999997E+02  0.45594000000E+02  0.51100000000E-03 0.  1.
    9900012    2    1    2    0    0  0.13110666735E+02 -0.71175834611E+01  0.37823481088E+02  0.50528864518E+02  0.30000014189E+02 0.  0.
        -12    1    1    2    0    0 -0.13110666735E+02  0.71175834611E+01 -0.37823481088E+02  0.40659135482E+02  0.00000000000E+00 0.  1.
         11    1    3    3    0    0  0.13156035924E+02  0.40408955881E+01  0.74761678285E+01  0.15662158345E+02  0.51100000000E-03 0. -1.
        -11    1    3    3    0    0  0.21295056535E+01 -0.10340995053E+02  0.10522384747E+02  0.14906091172E+02  0.51100000000E-03 0.  1.
        -12    1    3    3    0    0 -0.21748748420E+01 -0.81748399593E+00  0.19824928512E+02  0.19960615000E+02  0.00000000000E+00 0.  1.
</event>
<event>
 7    1  0.5041278E-013  0.5052885E+02  0.7816164E-02  0.1300439E+00
        -11   -1    0    0    0    0  0.00000000000E+00  0.00000000000E+00  0.45593999997E+02  0.45594000000E+02  0.51100000000E-03 0.  1.
         11   -1    0    0    0    0 -0.00000000000E+00 -0.00000000000E+00 -0.45593999997E+02  0.45594000000E+02  0.51100000000E-03 0. -1.
    9900012    2    1    2    0    0 -0.22691730577E+02 -0.15907791359E+02 -0.29752205123E+02  0.50528853770E+02  0.29999981518E+02 0.  0.
        -12    1    1    2    0    0  0.22691730577E+02  0.15907791359E+02  0.29752205123E+02  0.40659146230E+02  0.00000000000E+00 0.  1.
         11    1    3    3    0    0  0.21885666026E+00 -0.25197807998E+01  0.16671080600E+01  0.30292644424E+01  0.51100000000E-03 0. -1.
        -11    1    3    3    0    0 -0.11554934845E+02  0.53253168073E+01 -0.17211699663E+02  0.21403694166E+02  0.51100000000E-03 0.  1.
        -12    1    3    3    0    0 -0.11355652392E+02 -0.18713327366E+02 -0.14207613520E+02  0.26095895162E+02  0.00000000000E+00 0.  1.
</event>
<event>
 7    1  0.5041278E-013  0.5052886E+02  0.7816164E-02  0.1300439E+00
        -11   -1    0    0    0    0  0.00000000000E+00  0.00000000000E+00  0.45593999997E+02  0.45594000000E+02  0.51100000000E-03 0.  1.
         11   -1    0    0    0    0 -0.00000000000E+00 -0.00000000000E+00 -0.45593999997E+02  0.45594000000E+02  0.51100000000E-03 0. -1.
    9900012    2    1    2    0    0  0.37757853804E+02 -0.12421937554E+02 -0.85560492281E+01  0.50528855459E+02  0.29999986652E+02 0.  0.
        -12    1    1    2    0    0 -0.37757853804E+02  0.12421937554E+02  0.85560492281E+01  0.40659144541E+02  0.00000000000E+00 0.  1.
         11    1    3    3    0    0  0.73714543261E+01  0.61796070703E+01  0.66381112575E+01  0.11687189729E+02  0.51100000000E-03 0.  1.
        -11    1    3    3    0    0  0.87285325110E+01 -0.41800468910E+01 -0.50294274104E+01  0.10906659073E+02  0.51100000000E-03 0. -1.
        -12    1    3    3    0    0  0.21657866967E+02 -0.14421497733E+02 -0.10164733075E+02  0.27935006657E+02  0.00000000000E+00 0.  1.
</event>
<event>
 7    1  0.5041278E-013  0.5052889E+02  0.7816164E-02  0.1300439E+00
        -11   -1    0    0    0    0  0.00000000000E+00  0.00000000000E+00  0.45593999997E+02  0.45594000000E+02  0.51100000000E-03 0. -1.
         11   -1    0    0    0    0 -0.00000000000E+00 -0.00000000000E+00 -0.45593999997E+02  0.45594000000E+02  0.51100000000E-03 0.  1.
    9900012    2    1    2    0    0  0.20397854838E+02  0.27309943499E+02  0.22164341251E+02  0.50528886396E+02  0.30000080690E+02 0.  0.
        -12    1    1    2    0    0 -0.20397854838E+02 -0.27309943499E+02 -0.22164341251E+02  0.40659113604E+02  0.00000000000E+00 0.  1.
         11    1    3    3    0    0 -0.18749765617E+00  0.34494325439E+01 -0.21355406398E+01  0.40613143600E+01  0.51100000000E-03 0. -1.
        -11    1    3    3    0    0  0.18861542325E+02  0.71801826332E+01  0.47925051871E+01  0.20743213535E+02  0.51100000000E-03 0.  1.
         12    1    3    3    0    0  0.17238101693E+01  0.16680328322E+02  0.19507376704E+02  0.25724358501E+02  0.00000000000E+00 0. -1.
</event>
<event>
 7    1  0.5041278E-013  0.5052886E+02  0.7816164E-02  0.1300439E+00
        -11   -1    0    0    0    0  0.00000000000E+00  0.00000000000E+00  0.45593999997E+02  0.45594000000E+02  0.51100000000E-03 0.  1.
         11   -1    0    0    0    0 -0.00000000000E+00 -0.00000000000E+00 -0.45593999997E+02  0.45594000000E+02  0.51100000000E-03 0. -1.
    9900012    2    1    2    0    0 -0.24553791213E+02 -0.83088413912E+01 -0.31324751116E+02  0.50528861536E+02  0.30000005124E+02 0.  0.
        -12    1    1    2    0    0  0.24553791213E+02  0.83088413912E+01  0.31324751116E+02  0.40659138464E+02  0.00000000000E+00 0.  1.
         11    1    3    3    0    0 -0.59759163037E+01  0.34463868300E+01 -0.10539173837E+02  0.12596163831E+02  0.51100000000E-03 0. -1.
        -11    1    3    3    0    0 -0.13184952790E+02  0.50027800197E+01 -0.85082879936E+01  0.16470025891E+02  0.51100000000E-03 0.  1.
         12    1    3    3    0    0 -0.53929221192E+01 -0.16758008241E+02 -0.12277289286E+02  0.21462671814E+02  0.00000000000E+00 0. -1.
</event>
<event>
 7    1  0.5041278E-013  0.5052885E+02  0.7816164E-02  0.1300439E+00
        -11   -1    0    0    0    0  0.00000000000E+00  0.00000000000E+00  0.45593999997E+02  0.45594000000E+02  0.51100000000E-03 0.  1.
         11   -1    0    0    0    0 -0.00000000000E+00 -0.00000000000E+00 -0.45593999997E+02  0.45594000000E+02  0.51100000000E-03 0. -1.
    9900012    2    1    2    0    0 -0.16352606128E+02  0.31567568883E+02 -0.19729348282E+02  0.50528852001E+02  0.29999976142E+02 0.  0.
        -12    1    1    2    0    0  0.16352606128E+02 -0.31567568883E+02  0.19729348282E+02  0.40659147999E+02  0.00000000000E+00 0.  1.
         11    1    3    3    0    0 -0.26848284160E+01  0.14853228390E+02  0.26352109576E+01  0.15322239858E+02  0.51100000000E-03 0. -1.
        -11    1    3    3    0    0  0.24568644495E+01  0.32263593162E+01  0.56995682264E+00  0.40951713519E+01  0.51100000000E-03 0.  1.
         12    1    3    3    0    0 -0.16124642161E+02  0.13487981177E+02 -0.22934516062E+02  0.31111440791E+02  0.00000000000E+00 0. -1.
</event>
<event>
 7    1  0.5041278E-013  0.5052886E+02  0.7816164E-02  0.1300439E+00
        -11   -1    0    0    0    0  0.00000000000E+00  0.00000000000E+00  0.45593999997E+02  0.45594000000E+02  0.51100000000E-03 0.  1.
         11   -1    0    0    0    0 -0.00000000000E+00 -0.00000000000E+00 -0.45593999997E+02  0.45594000000E+02  0.51100000000E-03 0. -1.
    9900012    2    1    2    0    0  0.88853104549E+00 -0.39956374453E+02 -0.74742421851E+01  0.50528860276E+02  0.30000001295E+02 0.  0.
        -12    1    1    2    0    0 -0.88853104549E+00  0.39956374453E+02  0.74742421851E+01  0.40659139724E+02  0.00000000000E+00 0.  1.
         11    1    3    3    0    0  0.84642058557E+01 -0.30784358392E+02 -0.15286422236E+02  0.35397658219E+02  0.51100000000E-03 0. -1.
        -11    1    3    3    0    0 -0.32207429530E-01  0.34546684568E+00  0.13110521574E+01  0.13561868162E+01  0.51100000000E-03 0.  1.
        -12    1    3    3    0    0 -0.75434673807E+01 -0.95174829067E+01  0.65011278931E+01  0.13775015241E+02  0.00000000000E+00 0.  1.
</event>
<event>
 7    1  0.5041278E-013  0.5052886E+02  0.7816164E-02  0.1300439E+00
        -11   -1    0    0    0    0  0.00000000000E+00  0.00000000000E+00  0.45593999997E+02  0.45594000000E+02  0.51100000000E-03 0. -1.
         11   -1    0    0    0    0 -0.00000000000E+00 -0.00000000000E+00 -0.45593999997E+02  0.45594000000E+02  0.51100000000E-03 0.  1.
    9900012    2    1    2    0    0  0.40140452773E+02  0.27716591052E+01 -0.58504437876E+01  0.50528859139E+02  0.29999997839E+02 0.  0.
        -12    1    1    2    0    0 -0.40140452773E+02 -0.27716591052E+01  0.58504437876E+01  0.40659140861E+02  0.00000000000E+00 0.  1.
         11    1    3    3    0    0 -0.53511731383E+00  0.39862877527E+01  0.97114018761E+00  0.41376266279E+01  0.51100000000E-03 0.  1.
        -11    1    3    3    0    0  0.16702733591E+02  0.24170187838E+01  0.72381114533E+01  0.18363375150E+02  0.51100000000E-03 0. -1.
        -12    1    3    3    0    0  0.23972836496E+02 -0.36316474313E+01 -0.14059695429E+02  0.28027857361E+02  0.00000000000E+00 0.  1.
</event>
<event>
 7    1  0.5041278E-013  0.5052887E+02  0.7816164E-02  0.1300439E+00
        -11   -1    0    0    0    0  0.00000000000E+00  0.00000000000E+00  0.45593999997E+02  0.45594000000E+02  0.51100000000E-03 0.  1.
         11   -1    0    0    0    0 -0.00000000000E+00 -0.00000000000E+00 -0.45593999997E+02  0.45594000000E+02  0.51100000000E-03 0. -1.
    9900012    2    1    2    0    0 -0.20460131582E+02  0.24839900995E+02 -0.24850099300E+02  0.50528866943E+02  0.30000021559E+02 0.  0.
        -12    1    1    2    0    0  0.20460131582E+02 -0.24839900995E+02  0.24850099300E+02  0.40659133057E+02  0.00000000000E+00 0.  1.
         11    1    3    3    0    0 -0.13166190090E+02  0.18232033485E+02 -0.17249088726E+02  0.28342312338E+02  0.51100000000E-03 0. -1.
        -11    1    3    3    0    0 -0.69427365414E+00  0.14167624289E+01 -0.12410287448E+02  0.12510174519E+02  0.51100000000E-03 0.  1.
        -12    1    3    3    0    0 -0.65996678369E+01  0.51911050809E+01  0.48092768745E+01  0.96763800863E+01  0.00000000000E+00 0.  1.
</event>
<event>
 7    1  0.5041278E-013  0.5052887E+02  0.7816164E-02  0.1300439E+00
        -11   -1    0    0    0    0  0.00000000000E+00  0.00000000000E+00  0.45593999997E+02  0.45594000000E+02  0.51100000000E-03 0.  1.
         11   -1    0    0    0    0 -0.00000000000E+00 -0.00000000000E+00 -0.45593999997E+02  0.45594000000E+02  0.51100000000E-03 0. -1.
    9900012    2    1    2    0    0  0.69374770463E+01  0.11447858195E+02 -0.38392486097E+02  0.50528867770E+02  0.30000024073E+02 0.  0.
        -12    1    1    2    0    0 -0.69374770463E+01 -0.11447858195E+02  0.38392486097E+02  0.40659132230E+02  0.00000000000E+00 0.  1.
         11    1    3    3    0    0 -0.36091010032E+01  0.57833180022E+01 -0.12378347006E+00  0.68181888926E+01  0.51100000000E-03 0.  1.
        -11    1    3    3    0    0 -0.27597407958E+01 -0.31035809826E+01 -0.14586643485E+02  0.15166362537E+02  0.51100000000E-03 0. -1.
         12    1    3    3    0    0  0.13306318845E+02  0.87681211756E+01 -0.23682059142E+02  0.28544316341E+02  0.00000000000E+00 0. -1.
</event>
<event>
 7    1  0.5041278E-013  0.5052888E+02  0.7816164E-02  0.1300439E+00
        -11   -1    0    0    0    0  0.00000000000E+00  0.00000000000E+00  0.45593999997E+02  0.45594000000E+02  0.51100000000E-03 0.  1.
         11   -1    0    0    0    0 -0.00000000000E+00 -0.00000000000E+00 -0.45593999997E+02  0.45594000000E+02  0.51100000000E-03 0. -1.
    9900012    2    1    2    0    0  0.14581521519E+02 -0.36103089875E+02 -0.11709419722E+02  0.50528875827E+02  0.30000048563E+02 0.  0.
        -12    1    1    2    0    0 -0.14581521519E+02  0.36103089875E+02  0.11709419722E+02  0.40659124173E+02  0.00000000000E+00 0.  1.
         11    1    3    3    0    0  0.49170630854E+00 -0.10059269471E+02 -0.42132931810E+01  0.10917074566E+02  0.51100000000E-03 0. -1.
        -11    1    3    3    0    0 -0.53240675435E+01 -0.59725974288E+01  0.45453990628E+01  0.92020795560E+01  0.51100000000E-03 0.  1.
         12    1    3    3    0    0  0.19413882754E+02 -0.20071222975E+02 -0.12041525604E+02  0.30409721705E+02  0.00000000000E+00 0. -1.
</event>
<event>
 7    1  0.5041278E-013  0.5052885E+02  0.7816164E-02  0.1300439E+00
        -11   -1    0    0    0    0  0.00000000000E+00  0.00000000000E+00  0.45593999997E+02  0.45594000000E+02  0.51100000000E-03 0.  1.
         11   -1    0    0    0    0 -0.00000000000E+00 -0.00000000000E+00 -0.45593999997E+02  0.45594000000E+02  0.51100000000E-03 0. -1.
    9900012    2    1    2    0    0  0.22330894669E+02  0.31565580156E+02 -0.12574237529E+02  0.50528853960E+02  0.29999982098E+02 0.  0.
        -12    1    1    2    0    0 -0.22330894669E+02 -0.31565580156E+02  0.12574237529E+02  0.40659146040E+02  0.00000000000E+00 0.  1.
         11    1    3    3    0    0  0.61619662586E+01  0.13421336422E+02  0.66826116237E+01  0.16209854962E+02  0.51100000000E-03 0.  1.
        -11    1    3    3    0    0  0.13271290691E+02  0.17359510840E+02 -0.90005570792E+01  0.23632388817E+02  0.51100000000E-03 0. -1.
        -12    1    3    3    0    0  0.28976377191E+01  0.78473289334E+00 -0.10256292073E+02  0.10686610181E+02  0.00000000000E+00 0.  1.
</event>
<event>
 7    1  0.5041278E-013  0.5052886E+02  0.7816164E-02  0.1300439E+00
        -11   -1    0    0    0    0  0.00000000000E+00  0.00000000000E+00  0.45593999997E+02  0.45594000000E+02  0.51100000000E-03 0. -1.
         11   -1    0    0    0    0 -0.00000000000E+00 -0.00000000000E+00 -0.45593999997E+02  0.45594000000E+02  0.51100000000E-03 0.  1.
    9900012    2    1    2    0    0 -0.39239557218E+02  0.11291042640E+01  0.10590007980E+02  0.50528855934E+02  0.29999988098E+02 0.  0.
        -12    1    1    2    0    0  0.39239557218E+02 -0.11291042640E+01 -0.10590007980E+02  0.40659144066E+02  0.00000000000E+00 0.  1.
         11    1    3    3    0    0 -0.95118640161E+01 -0.11700461132E+00 -0.29221645147E+01  0.99512960388E+01  0.51100000000E-03 0. -1.
        -11    1    3    3    0    0  0.20212623313E+00 -0.70654487218E+01  0.38400964165E+01  0.80441134628E+01  0.51100000000E-03 0.  1.
         12    1    3    3    0    0 -0.29929819435E+02  0.83115575970E+01  0.96720760785E+01  0.32533446433E+02  0.00000000000E+00 0. -1.
</event>
<event>
 7    1  0.5041278E-013  0.5052886E+02  0.7816164E-02  0.1300439E+00
        -11   -1    0    0    0    0  0.00000000000E+00  0.00000000000E+00  0.45593999997E+02  0.45594000000E+02  0.51100000000E-03 0.  1.
         11   -1    0    0    0    0 -0.00000000000E+00 -0.00000000000E+00 -0.45593999997E+02  0.45594000000E+02  0.51100000000E-03 0. -1.
    9900012    2    1    2    0    0 -0.24214897768E+01  0.23192552744E+02 -0.33307772637E+02  0.50528857934E+02  0.29999994176E+02 0.  0.
        -12    1    1    2    0    0  0.24214897768E+01 -0.23192552744E+02  0.33307772637E+02  0.40659142066E+02  0.00000000000E+00 0.  1.
         11    1    3    3    0    0 -0.41620642420E+01  0.48410280857E+01 -0.77064244997E+01  0.10007362815E+02  0.51100000000E-03 0.  1.
        -11    1    3    3    0    0  0.41382229088E+01  0.23242081971E+02 -0.13366395766E+02  0.27128947624E+02  0.51100000000E-03 0. -1.
        -12    1    3    3    0    0 -0.23976484436E+01 -0.48905573120E+01 -0.12234952371E+02  0.13392547495E+02  0.00000000000E+00 0.  1.
</event>
<event>
 7    1  0.5041278E-013  0.5052888E+02  0.7816164E-02  0.1300439E+00
        -11   -1    0    0    0    0  0.00000000000E+00  0.00000000000E+00  0.45593999997E+02  0.45594000000E+02  0.51100000000E-03 0. -1.
         11   -1    0    0    0    0 -0.00000000000E+00 -0.00000000000E+00 -0.45593999997E+02  0.45594000000E+02  0.51100000000E-03 0.  1.
    9900012    2    1    2    0    0  0.56219156231E+01 -0.21874099693E+02  0.33809489466E+02  0.50528883549E+02  0.30000072036E+02 0.  0.
        -12    1    1    2    0    0 -0.56219156231E+01  0.21874099693E+02 -0.33809489466E+02  0.40659116451E+02  0.00000000000E+00 0.  1.
         11    1    3    3    0    0 -0.10111695738E+01 -0.12097410772E+02  0.59975618022E+01  0.13540330835E+02  0.51100000000E-03 0. -1.
        -11    1    3    3    0    0 -0.66626871204E+01 -0.25237318075E+01  0.26135855958E+01  0.75889032033E+01  0.51100000000E-03 0.  1.
         12    1    3    3    0    0  0.13295772317E+02 -0.72529571134E+01  0.25198342068E+02  0.29399649511E+02  0.00000000000E+00 0. -1.
</event>
<event>
 7    1  0.5041278E-013  0.5052886E+02  0.7816164E-02  0.1300439E+00
        -11   -1    0    0    0    0  0.00000000000E+00  0.00000000000E+00  0.45593999997E+02  0.45594000000E+02  0.51100000000E-03 0. -1.
         11   -1    0    0    0    0 -0.00000000000E+00 -0.00000000000E+00 -0.45593999997E+02  0.45594000000E+02  0.51100000000E-03 0.  1.
    9900012    2    1    2    0    0 -0.33760503825E+02 -0.12102933509E+02 -0.19154972902E+02  0.50528860745E+02  0.30000002721E+02 0.  0.
        -12    1    1    2    0    0  0.33760503825E+02  0.12102933509E+02  0.19154972902E+02  0.40659139255E+02  0.00000000000E+00 0.  1.
         11    1    3    3    0    0 -0.64216162689E+01 -0.93651414425E+01  0.52321190723E+00  0.11367355924E+02  0.51100000000E-03 0. -1.
        -11    1    3    3    0    0 -0.48112049383E+01 -0.68226414806E+01 -0.12752084448E+02  0.15241777710E+02  0.51100000000E-03 0.  1.
        -12    1    3    3    0    0 -0.22527682618E+02  0.40848494136E+01 -0.69261003617E+01  0.23919727111E+02  0.00000000000E+00 0.  1.
</event>
<event>
 7    1  0.5041278E-013  0.5052886E+02  0.7816164E-02  0.1300439E+00
        -11   -1    0    0    0    0  0.00000000000E+00  0.00000000000E+00  0.45593999997E+02  0.45594000000E+02  0.51100000000E-03 0.  1.
         11   -1    0    0    0    0 -0.00000000000E+00 -0.00000000000E+00 -0.45593999997E+02  0.45594000000E+02  0.51100000000E-03 0. -1.
    9900012    2    1    2    0    0  0.25353564565E+01  0.27868272114E+02 -0.29497401092E+02  0.50528864566E+02  0.30000014336E+02 0.  0.
        -12    1    1    2    0    0 -0.25353564565E+01 -0.27868272114E+02  0.29497401092E+02  0.40659135434E+02  0.00000000000E+00 0.  1.
         11    1    3    3    0    0  0.11510211455E+02  0.20672861578E+02 -0.13974849287E+02  0.27479967002E+02  0.51100000000E-03 0. -1.
        -11    1    3    3    0    0 -0.34189395464E+01 -0.34442628586E+01 -0.30132660819E+01  0.57124309188E+01  0.51100000000E-03 0.  1.
        -12    1    3    3    0    0 -0.55559154518E+01  0.10639673395E+02 -0.12509285723E+02  0.17336466646E+02  0.00000000000E+00 0.  1.
</event>
<event>
 7    1  0.5041278E-013  0.5052885E+02  0.7816164E-02  0.1300439E+00
        -11   -1    0    0    0    0  0.00000000000E+00  0.00000000000E+00  0.45593999997E+02  0.45594000000E+02  0.51100000000E-03 0.  1.
         11   -1    0    0    0    0 -0.00000000000E+00 -0.00000000000E+00 -0.45593999997E+02  0.45594000000E+02  0.51100000000E-03 0. -1.
    9900012    2    1    2    0    0 -0.27263772292E+02  0.29958652545E+02  0.35117100207E+01  0.50528852823E+02  0.29999978642E+02 0.  0.
        -12    1    1    2    0    0  0.27263772292E+02 -0.29958652545E+02 -0.35117100207E+01  0.40659147177E+02  0.00000000000E+00 0.  1.
         11    1    3    3    0    0 -0.16507009806E+02  0.12726057475E+02 -0.67588446911E+01  0.21911547034E+02  0.51100000000E-03 0. -1.
        -11    1    3    3    0    0  0.39398491563E+00 -0.24006306242E+01 -0.17890051070E+01  0.30197336045E+01  0.51100000000E-03 0.  1.
        -12    1    3    3    0    0 -0.11150747401E+02  0.19633225694E+02  0.12059559819E+02  0.25597572185E+02  0.00000000000E+00 0.  1.
</event>
<event>
 7    1  0.5041278E-013  0.5052877E+02  0.7816164E-02  0.1300439E+00
        -11   -1    0    0    0    0  0.00000000000E+00  0.00000000000E+00  0.45593999997E+02  0.45594000000E+02  0.51100000000E-03 0.  1.
         11   -1    0    0    0    0 -0.00000000000E+00 -0.00000000000E+00 -0.45593999997E+02  0.45594000000E+02  0.51100000000E-03 0. -1.
    9900012    2    1    2    0    0  0.57050568234E+01 -0.68391922828E+01 -0.39671789579E+02  0.50528768418E+02  0.29999722082E+02 0.  0.
        -12    1    1    2    0    0 -0.57050568234E+01  0.68391922828E+01  0.39671789579E+02  0.40659231582E+02  0.00000000000E+00 0.  1.
         11    1    3    3    0    0 -0.83750694040E+01  0.34008164544E+01 -0.17084088294E+02  0.19328047319E+02  0.51100000000E-03 0. -1.
        -11    1    3    3    0    0 -0.13811539145E+00  0.93844281127E+00 -0.77472366300E+01  0.78050897774E+01  0.51100000000E-03 0.  1.
        -12    1    3    3    0    0  0.14218241619E+02 -0.11178451549E+02 -0.14840464655E+02  0.23395631322E+02  0.00000000000E+00 0.  1.
</event>
<event>
 7    1  0.5041278E-013  0.5052886E+02  0.7816164E-02  0.1300439E+00
        -11   -1    0    0    0    0  0.00000000000E+00  0.00000000000E+00  0.45593999997E+02  0.45594000000E+02  0.51100000000E-03 0.  1.
         11   -1    0    0    0    0 -0.00000000000E+00 -0.00000000000E+00 -0.45593999997E+02  0.45594000000E+02  0.51100000000E-03 0. -1.
    9900012    2    1    2    0    0 -0.20037027185E+02  0.19934934153E+02 -0.29228095366E+02  0.50528860599E+02  0.30000002278E+02 0.  0.
        -12    1    1    2    0    0  0.20037027185E+02 -0.19934934153E+02  0.29228095366E+02  0.40659139401E+02  0.00000000000E+00 0.  1.
         11    1    3    3    0    0 -0.74754414632E+01  0.31903460854E+01 -0.69333151300E+01  0.10683229482E+02  0.51100000000E-03 0.  1.
        -11    1    3    3    0    0 -0.19035050646E+01  0.10593138615E+02  0.34572091633E+01  0.11304433321E+02  0.51100000000E-03 0. -1.
         12    1    3    3    0    0 -0.10658080657E+02  0.61514494529E+01 -0.25751989399E+02  0.28541197797E+02  0.00000000000E+00 0. -1.
</event>
<event>
 7    1  0.5041278E-013  0.5052888E+02  0.7816164E-02  0.1300439E+00
        -11   -1    0    0    0    0  0.00000000000E+00  0.00000000000E+00  0.45593999997E+02  0.45594000000E+02  0.51100000000E-03 0. -1.
         11   -1    0    0    0    0 -0.00000000000E+00 -0.00000000000E+00 -0.45593999997E+02  0.45594000000E+02  0.51100000000E-03 0.  1.
    9900012    2    1    2    0    0 -0.21440785842E+02  0.34178640784E+02  0.50276528362E+01  0.50528879543E+02  0.30000059857E+02 0.  0.
        -12    1    1    2    0    0  0.21440785842E+02 -0.34178640784E+02 -0.50276528362E+01  0.40659120457E+02  0.00000000000E+00 0.  1.
         11    1    3    3    0    0 -0.51346062505E+01  0.90816174898E+01  0.11144236117E+02  0.15265449763E+02  0.51100000000E-03 0. -1.
        -11    1    3    3    0    0 -0.73143311402E+00  0.35403727948E+01  0.52232548036E+01  0.63522928877E+01  0.51100000000E-03 0.  1.
        -12    1    3    3    0    0 -0.15574746477E+02  0.21556650499E+02 -0.11339838085E+02  0.28911136891E+02  0.00000000000E+00 0.  1.
</event>
<event>
 7    1  0.5041278E-013  0.5052885E+02  0.7816164E-02  0.1300439E+00
        -11   -1    0    0    0    0  0.00000000000E+00  0.00000000000E+00  0.45593999997E+02  0.45594000000E+02  0.51100000000E-03 0.  1.
         11   -1    0    0    0    0 -0.00000000000E+00 -0.00000000000E+00 -0.45593999997E+02  0.45594000000E+02  0.51100000000E-03 0. -1.
    9900012    2    1    2    0    0 -0.28088959457E+02  0.16792169575E+02 -0.24128810253E+02  0.50528854822E+02  0.29999984716E+02 0.  0.
        -12    1    1    2    0    0  0.28088959457E+02 -0.16792169575E+02  0.24128810253E+02  0.40659145178E+02  0.00000000000E+00 0.  1.
         11    1    3    3    0    0 -0.15335079543E+02 -0.50399953400E+01 -0.11352906725E+02  0.19734606887E+02  0.51100000000E-03 0. -1.
        -11    1    3    3    0    0 -0.11674432158E+02  0.88464991610E+01 -0.91426083299E+01  0.17266736836E+02  0.51100000000E-03 0.  1.
         12    1    3    3    0    0 -0.10794477557E+01  0.12985665754E+02 -0.36332951983E+01  0.13527511099E+02  0.00000000000E+00 0. -1.
</event>
<event>
 7    1  0.5041278E-013  0.5052887E+02  0.7816164E-02  0.1300439E+00
        -11   -1    0    0    0    0  0.00000000000E+00  0.00000000000E+00  0.45593999997E+02  0.45594000000E+02  0.51100000000E-03 0.  1.
         11   -1    0    0    0    0 -0.00000000000E+00 -0.00000000000E+00 -0.45593999997E+02  0.45594000000E+02  0.51100000000E-03 0. -1.
    9900012    2    1    2    0    0 -0.89976209428E+01 -0.26495949629E+02 -0.29498690034E+02  0.50528865195E+02  0.30000016246E+02 0.  0.
        -12    1    1    2    0    0  0.89976209428E+01  0.26495949629E+02  0.29498690034E+02  0.40659134805E+02  0.00000000000E+00 0.  1.
         11    1    3    3    0    0  0.13489849613E+01  0.19201401928E+01 -0.23855701625E+01  0.33462880999E+01  0.51100000000E-03 0. -1.
        -11    1    3    3    0    0 -0.14322734153E+02 -0.11700229419E+02 -0.23002862590E+02  0.29515551319E+02  0.51100000000E-03 0.  1.
         12    1    3    3    0    0  0.39761282485E+01 -0.16715860403E+02 -0.41102572823E+01  0.17667025776E+02  0.00000000000E+00 0. -1.
</event>
<event>
 7    1  0.5041278E-013  0.5052888E+02  0.7816164E-02  0.1300439E+00
        -11   -1    0    0    0    0  0.00000000000E+00  0.00000000000E+00  0.45593999997E+02  0.45594000000E+02  0.51100000000E-03 0.  1.
         11   -1    0    0    0    0 -0.00000000000E+00 -0.00000000000E+00 -0.45593999997E+02  0.45594000000E+02  0.51100000000E-03 0. -1.
    9900012    2    1    2    0    0 -0.27401090128E+02  0.17550776051E+02 -0.24378574341E+02  0.50528875967E+02  0.30000048991E+02 0.  0.
        -12    1    1    2    0    0  0.27401090128E+02 -0.17550776051E+02  0.24378574341E+02  0.40659124033E+02  0.00000000000E+00 0.  1.
         11    1    3    3    0    0 -0.11585383886E+02  0.75962839314E+01 -0.80753377665E+01  0.16035452275E+02  0.51100000000E-03 0. -1.
        -11    1    3    3    0    0 -0.18318230439E+02 -0.74236966469E+00 -0.56339810147E+01  0.19179427037E+02  0.51100000000E-03 0.  1.
        -12    1    3    3    0    0  0.25025241964E+01  0.10696861784E+02 -0.10669255560E+02  0.15313996656E+02  0.00000000000E+00 0.  1.
</event>
<event>
 7    1  0.5041278E-013  0.5052886E+02  0.7816164E-02  0.1300439E+00
        -11   -1    0    0    0    0  0.00000000000E+00  0.00000000000E+00  0.45593999997E+02  0.45594000000E+02  0.51100000000E-03 0.  1.
         11   -1    0    0    0    0 -0.00000000000E+00 -0.00000000000E+00 -0.45593999997E+02  0.45594000000E+02  0.51100000000E-03 0. -1.
    9900012    2    1    2    0    0  0.21223515040E+02 -0.12234653761E+02 -0.32450596356E+02  0.50528861456E+02  0.30000004881E+02 0.  0.
        -12    1    1    2    0    0 -0.21223515040E+02  0.12234653761E+02  0.32450596356E+02  0.40659138544E+02  0.00000000000E+00 0.  1.
         11    1    3    3    0    0  0.22876035962E+02 -0.33385404341E+01 -0.29980676836E+02  0.37858946860E+02  0.51100000000E-03 0. -1.
        -11    1    3    3    0    0  0.32274414936E+00  0.44992876097E+00 -0.30499687800E+01  0.30998241073E+01  0.51100000000E-03 0.  1.
        -12    1    3    3    0    0 -0.19752650708E+01 -0.93460420881E+01  0.58004926030E+00  0.95700904885E+01  0.00000000000E+00 0.  1.
</event>
<event>
 7    1  0.5041278E-013  0.5052887E+02  0.7816164E-02  0.1300439E+00
        -11   -1    0    0    0    0  0.00000000000E+00  0.00000000000E+00  0.45593999997E+02  0.45594000000E+02  0.51100000000E-03 0. -1.
         11   -1    0    0    0    0 -0.00000000000E+00 -0.00000000000E+00 -0.45593999997E+02  0.45594000000E+02  0.51100000000E-03 0.  1.
    9900012    2    1    2    0    0 -0.15065754056E+02 -0.37722751006E+02  0.17837994777E+01  0.50528870284E+02  0.30000031714E+02 0.  0.
        -12    1    1    2    0    0  0.15065754056E+02  0.37722751006E+02 -0.17837994777E+01  0.40659129716E+02  0.00000000000E+00 0.  1.
         11    1    3    3    0    0  0.19766923239E+01 -0.53911162547E+01 -0.11184850150E+01  0.58499962397E+01  0.51100000000E-03 0. -1.
        -11    1    3    3    0    0 -0.12678804520E+02 -0.64924655933E+01 -0.79532283296E+01  0.16314350574E+02  0.51100000000E-03 0.  1.
         12    1    3    3    0    0 -0.43636418607E+01 -0.25839169158E+02  0.10855512822E+02  0.28364523470E+02  0.00000000000E+00 0. -1.
</event>
<event>
 7    1  0.5041278E-013  0.5052886E+02  0.7816164E-02  0.1300439E+00
        -11   -1    0    0    0    0  0.00000000000E+00  0.00000000000E+00  0.45593999997E+02  0.45594000000E+02  0.51100000000E-03 0.  1.
         11   -1    0    0    0    0 -0.00000000000E+00 -0.00000000000E+00 -0.45593999997E+02  0.45594000000E+02  0.51100000000E-03 0. -1.
    9900012    2    1    2    0    0 -0.15666154171E+02  0.27627005063E+02 -0.25386733022E+02  0.50528855779E+02  0.29999987626E+02 0.  0.
        -12    1    1    2    0    0  0.15666154171E+02 -0.27627005063E+02  0.25386733022E+02  0.40659144221E+02  0.00000000000E+00 0.  1.
         11    1    3    3    0    0 -0.20905987345E+01  0.13106539596E+02 -0.17603204241E+02  0.22045969769E+02  0.51100000000E-03 0. -1.
        -11    1    3    3    0    0 -0.17517394991E+02  0.13029146263E+02 -0.96553486898E+01  0.23871395816E+02  0.51100000000E-03 0.  1.
        -12    1    3    3    0    0  0.39418395541E+01  0.14913192036E+01  0.18718199089E+01  0.46114901940E+01  0.00000000000E+00 0.  1.
</event>
<event>
 7    1  0.5041278E-013  0.5052886E+02  0.7816164E-02  0.1300439E+00
        -11   -1    0    0    0    0  0.00000000000E+00  0.00000000000E+00  0.45593999997E+02  0.45594000000E+02  0.51100000000E-03 0.  1.
         11   -1    0    0    0    0 -0.00000000000E+00 -0.00000000000E+00 -0.45593999997E+02  0.45594000000E+02  0.51100000000E-03 0. -1.
    9900012    2    1    2    0    0  0.34401174968E+02  0.20332567369E+02  0.75041033840E+01  0.50528859544E+02  0.29999999071E+02 0.  0.
        -12    1    1    2    0    0 -0.34401174968E+02 -0.20332567369E+02 -0.75041033840E+01  0.40659140456E+02  0.00000000000E+00 0.  1.
         11    1    3    3    0    0  0.17663816446E+02  0.20091623112E+02 -0.25868263135E+01  0.26877042273E+02  0.51100000000E-03 0. -1.
        -11    1    3    3    0    0  0.81523394089E+01  0.45181757502E+01  0.10514495665E+02  0.14050949053E+02  0.51100000000E-03 0.  1.
        -12    1    3    3    0    0  0.85850191127E+01 -0.42772314930E+01 -0.42356596731E+00  0.96008682180E+01  0.00000000000E+00 0.  1.
</event>
<event>
 7    1  0.5041278E-013  0.5052885E+02  0.7816164E-02  0.1300439E+00
        -11   -1    0    0    0    0  0.00000000000E+00  0.00000000000E+00  0.45593999997E+02  0.45594000000E+02  0.51100000000E-03 0.  1.
         11   -1    0    0    0    0 -0.00000000000E+00 -0.00000000000E+00 -0.45593999997E+02  0.45594000000E+02  0.51100000000E-03 0. -1.
    9900012    2    1    2    0    0 -0.71598091262E+01 -0.34496503706E+02 -0.20295191156E+02  0.50528850738E+02  0.29999972303E+02 0.  0.
        -12    1    1    2    0    0  0.71598091262E+01  0.34496503706E+02  0.20295191156E+02  0.40659149262E+02  0.00000000000E+00 0.  1.
         11    1    3    3    0    0  0.37952366125E+01  0.23580004465E+01 -0.31510691680E+01  0.54674696354E+01  0.51100000000E-03 0. -1.
        -11    1    3    3    0    0 -0.44705389356E+01 -0.13115145702E+02  0.18440578952E+01  0.13978315883E+02  0.51100000000E-03 0.  1.
         12    1    3    3    0    0 -0.64845068032E+01 -0.23739358451E+02 -0.18988179884E+02  0.31083065219E+02  0.00000000000E+00 0. -1.
</event>
<event>
 7    1  0.5041278E-013  0.5052888E+02  0.7816164E-02  0.1300439E+00
        -11   -1    0    0    0    0  0.00000000000E+00  0.00000000000E+00  0.45593999997E+02  0.45594000000E+02  0.51100000000E-03 0.  1.
         11   -1    0    0    0    0 -0.00000000000E+00 -0.00000000000E+00 -0.45593999997E+02  0.45594000000E+02  0.51100000000E-03 0. -1.
    9900012    2    1    2    0    0  0.97339210365E+01  0.28794337707E+02 -0.27005568810E+02  0.50528882332E+02  0.30000068337E+02 0.  0.
        -12    1    1    2    0    0 -0.97339210365E+01 -0.28794337707E+02  0.27005568810E+02  0.40659117668E+02  0.00000000000E+00 0.  1.
         11    1    3    3    0    0  0.83308219651E+01  0.51196229801E+00 -0.12493852102E+02  0.15025346605E+02  0.51100000000E-03 0. -1.
        -11    1    3    3    0    0 -0.17089520054E+01  0.24908308107E+01  0.29337036659E+01  0.42108636341E+01  0.51100000000E-03 0.  1.
        -12    1    3    3    0    0  0.31120510769E+01  0.25791544599E+02 -0.17445420374E+02  0.31292672093E+02  0.00000000000E+00 0.  1.
</event>
<event>
 7    1  0.5041278E-013  0.5052887E+02  0.7816164E-02  0.1300439E+00
        -11   -1    0    0    0    0  0.00000000000E+00  0.00000000000E+00  0.45593999997E+02  0.45594000000E+02  0.51100000000E-03 0.  1.
         11   -1    0    0    0    0 -0.00000000000E+00 -0.00000000000E+00 -0.45593999997E+02  0.45594000000E+02  0.51100000000E-03 0. -1.
    9900012    2    1    2    0    0 -0.24007295330E+02  0.32704185085E+02  0.26927774460E+01  0.50528868166E+02  0.30000025277E+02 0.  0.
        -12    1    1    2    0    0  0.24007295330E+02 -0.32704185085E+02 -0.26927774460E+01  0.40659131834E+02  0.00000000000E+00 0.  1.
         11    1    3    3    0    0 -0.13116700148E+02  0.25954547046E+02  0.72523484441E+01  0.29971367893E+02  0.51100000000E-03 0. -1.
        -11    1    3    3    0    0  0.38726166343E+01  0.15872335943E+00 -0.99576243059E+00  0.40017365955E+01  0.51100000000E-03 0.  1.
         12    1    3    3    0    0 -0.14763211816E+02  0.65909146794E+01 -0.35638085675E+01  0.16555763678E+02  0.00000000000E+00 0. -1.
</event>
<event>
 7    1  0.5041278E-013  0.5052886E+02  0.7816164E-02  0.1300439E+00
        -11   -1    0    0    0    0  0.00000000000E+00  0.00000000000E+00  0.45593999997E+02  0.45594000000E+02  0.51100000000E-03 0. -1.
         11   -1    0    0    0    0 -0.00000000000E+00 -0.00000000000E+00 -0.45593999997E+02  0.45594000000E+02  0.51100000000E-03 0.  1.
    9900012    2    1    2    0    0 -0.15912200297E+02  0.78209266168E+01  0.36589629954E+02  0.50528855498E+02  0.29999986771E+02 0.  0.
        -12    1    1    2    0    0  0.15912200297E+02 -0.78209266168E+01 -0.36589629954E+02  0.40659144502E+02  0.00000000000E+00 0.  1.
         11    1    3    3    0    0 -0.56719673370E+01  0.51321425355E+01  0.30431917916E+02  0.31378523368E+02  0.51100000000E-03 0. -1.
        -11    1    3    3    0    0 -0.11648079299E+02  0.45664533694E+00  0.93963923856E+01  0.14972590505E+02  0.51100000000E-03 0.  1.
         12    1    3    3    0    0  0.14078463387E+01  0.22321387443E+01 -0.32386803471E+01  0.41777416242E+01  0.00000000000E+00 0. -1.
</event>
<event>
 7    1  0.5041278E-013  0.5052886E+02  0.7816164E-02  0.1300439E+00
        -11   -1    0    0    0    0  0.00000000000E+00  0.00000000000E+00  0.45593999997E+02  0.45594000000E+02  0.51100000000E-03 0.  1.
         11   -1    0    0    0    0 -0.00000000000E+00 -0.00000000000E+00 -0.45593999997E+02  0.45594000000E+02  0.51100000000E-03 0. -1.
    9900012    2    1    2    0    0 -0.29252352199E+02  0.10528282037E+02 -0.26203451415E+02  0.50528859602E+02  0.29999999246E+02 0.  0.
        -12    1    1    2    0    0  0.29252352199E+02 -0.10528282037E+02  0.26203451415E+02  0.40659140398E+02  0.00000000000E+00 0.  1.
         11    1    3    3    0    0 -0.86610778350E+01  0.68252649855E+01  0.18705016694E+01  0.11184689899E+02  0.51100000000E-03 0. -1.
        -11    1    3    3    0    0 -0.20363611490E+00 -0.45541814500E+01 -0.95683266326E+01  0.10598816498E+02  0.51100000000E-03 0.  1.
         12    1    3    3    0    0 -0.20387638249E+02  0.82571985013E+01 -0.18505626452E+02  0.28745353205E+02  0.00000000000E+00 0. -1.
</event>
<event>
 7    1  0.5041278E-013  0.5052886E+02  0.7816164E-02  0.1300439E+00
        -11   -1    0    0    0    0  0.00000000000E+00  0.00000000000E+00  0.45593999997E+02  0.45594000000E+02  0.51100000000E-03 0.  1.
         11   -1    0    0    0    0 -0.00000000000E+00 -0.00000000000E+00 -0.45593999997E+02  0.45594000000E+02  0.51100000000E-03 0. -1.
    9900012    2    1    2    0    0  0.95556607951E+01 -0.13888558613E+02 -0.36999503889E+02  0.50528855868E+02  0.29999987895E+02 0.  0.
        -12    1    1    2    0    0 -0.95556607951E+01  0.13888558613E+02  0.36999503889E+02  0.40659144132E+02  0.00000000000E+00 0.  1.
         11    1    3    3    0    0  0.48271700186E+01 -0.82714769431E+01 -0.12306687061E+02  0.15594019619E+02  0.51100000000E-03 0. -1.
        -11    1    3    3    0    0 -0.44826481722E+01 -0.10625958692E+02 -0.48881533527E+01  0.12525940133E+02  0.51100000000E-03 0.  1.
         12    1    3    3    0    0  0.92111389487E+01  0.50088770217E+01 -0.19804663475E+02  0.22408896116E+02  0.00000000000E+00 0. -1.
</event>
<event>
 7    1  0.5041278E-013  0.5052886E+02  0.7816164E-02  0.1300439E+00
        -11   -1    0    0    0    0  0.00000000000E+00  0.00000000000E+00  0.45593999997E+02  0.45594000000E+02  0.51100000000E-03 0. -1.
         11   -1    0    0    0    0 -0.00000000000E+00 -0.00000000000E+00 -0.45593999997E+02  0.45594000000E+02  0.51100000000E-03 0.  1.
    9900012    2    1    2    0    0 -0.94994327937E+01  0.33749785951E+02  0.20588311387E+02  0.50528857844E+02  0.29999993902E+02 0.  0.
        -12    1    1    2    0    0  0.94994327937E+01 -0.33749785951E+02 -0.20588311387E+02  0.40659142156E+02  0.00000000000E+00 0.  1.
         11    1    3    3    0    0  0.53036746230E+01  0.20323013031E+02  0.14795340588E+02  0.25691553603E+02  0.51100000000E-03 0. -1.
        -11    1    3    3    0    0 -0.49835118014E+01  0.12033994944E+02 -0.59772277563E+00  0.13038776667E+02  0.51100000000E-03 0.  1.
        -12    1    3    3    0    0 -0.98195956153E+01  0.13927779752E+01  0.63906935746E+01  0.11798527573E+02  0.00000000000E+00 0.  1.
</event>
<event>
 7    1  0.5041278E-013  0.5052886E+02  0.7816164E-02  0.1300439E+00
        -11   -1    0    0    0    0  0.00000000000E+00  0.00000000000E+00  0.45593999997E+02  0.45594000000E+02  0.51100000000E-03 0. -1.
         11   -1    0    0    0    0 -0.00000000000E+00 -0.00000000000E+00 -0.45593999997E+02  0.45594000000E+02  0.51100000000E-03 0.  1.
    9900012    2    1    2    0    0  0.90120048734E+01 -0.19722871771E+02  0.34394154330E+02  0.50528858902E+02  0.29999997119E+02 0.  0.
        -12    1    1    2    0    0 -0.90120048734E+01  0.19722871771E+02 -0.34394154330E+02  0.40659141098E+02  0.00000000000E+00 0.  1.
         11    1    3    3    0    0  0.24193958499E+01 -0.81184022712E+01 -0.11718175118E+01  0.85519055337E+01  0.51100000000E-03 0. -1.
        -11    1    3    3    0    0 -0.24820664503E+01 -0.14934634834E+01 -0.92342384780E+00  0.30403616403E+01  0.51100000000E-03 0.  1.
        -12    1    3    3    0    0  0.90746754738E+01 -0.10111006017E+02  0.36489395689E+02  0.38936591728E+02  0.00000000000E+00 0.  1.
</event>
<event>
 7    1  0.5041278E-013  0.5052886E+02  0.7816164E-02  0.1300439E+00
        -11   -1    0    0    0    0  0.00000000000E+00  0.00000000000E+00  0.45593999997E+02  0.45594000000E+02  0.51100000000E-03 0. -1.
         11   -1    0    0    0    0 -0.00000000000E+00 -0.00000000000E+00 -0.45593999997E+02  0.45594000000E+02  0.51100000000E-03 0.  1.
    9900012    2    1    2    0    0  0.30486743226E+02 -0.12293485295E+02  0.23928941458E+02  0.50528861636E+02  0.30000005428E+02 0.  0.
        -12    1    1    2    0    0 -0.30486743226E+02  0.12293485295E+02 -0.23928941458E+02  0.40659138364E+02  0.00000000000E+00 0.  1.
         11    1    3    3    0    0  0.15587836509E+02 -0.18794068519E+02  0.93283949040E+01  0.26138412543E+02  0.51100000000E-03 0.  1.
        -11    1    3    3    0    0  0.35666062217E+01  0.18832258221E+00  0.10013810815E+02  0.10631676850E+02  0.51100000000E-03 0. -1.
        -12    1    3    3    0    0  0.11332300495E+02  0.63122606409E+01  0.45867357389E+01  0.13758772243E+02  0.00000000000E+00 0.  1.
</event>
<event>
 7    1  0.5041278E-013  0.5052886E+02  0.7816164E-02  0.1300439E+00
        -11   -1    0    0    0    0  0.00000000000E+00  0.00000000000E+00  0.45593999997E+02  0.45594000000E+02  0.51100000000E-03 0.  1.
         11   -1    0    0    0    0 -0.00000000000E+00 -0.00000000000E+00 -0.45593999997E+02  0.45594000000E+02  0.51100000000E-03 0. -1.
    9900012    2    1    2    0    0 -0.29724023711E+02 -0.17563167379E+02 -0.21475171233E+02  0.50528863100E+02  0.30000009879E+02 0.  0.
        -12    1    1    2    0    0  0.29724023711E+02  0.17563167379E+02  0.21475171233E+02  0.40659136900E+02  0.00000000000E+00 0.  1.
         11    1    3    3    0    0  0.42516177236E-01 -0.15064734649E+02 -0.11749085194E+02  0.19104686358E+02  0.51100000000E-03 0. -1.
        -11    1    3    3    0    0 -0.42171021208E+01 -0.14077875432E+00 -0.15465513783E+01  0.44939504205E+01  0.51100000000E-03 0.  1.
         12    1    3    3    0    0 -0.25549437767E+02 -0.23576539762E+01 -0.81795346612E+01  0.26930226322E+02  0.00000000000E+00 0. -1.
</event>
<event>
 7    1  0.5041278E-013  0.5052886E+02  0.7816164E-02  0.1300439E+00
        -11   -1    0    0    0    0  0.00000000000E+00  0.00000000000E+00  0.45593999997E+02  0.45594000000E+02  0.51100000000E-03 0. -1.
         11   -1    0    0    0    0 -0.00000000000E+00 -0.00000000000E+00 -0.45593999997E+02  0.45594000000E+02  0.51100000000E-03 0.  1.
    9900012    2    1    2    0    0 -0.21975297150E+02  0.10277214376E+02  0.32628684989E+02  0.50528857064E+02  0.29999991532E+02 0.  0.
        -12    1    1    2    0    0  0.21975297150E+02 -0.10277214376E+02 -0.32628684989E+02  0.40659142936E+02  0.00000000000E+00 0.  1.
         11    1    3    3    0    0 -0.36716769540E+01  0.22005395878E+01  0.73238672971E+01  0.84830783669E+01  0.51100000000E-03 0. -1.
        -11    1    3    3    0    0  0.61135735182E+01  0.55709402355E+01  0.27642746364E+01  0.87208010410E+01  0.51100000000E-03 0.  1.
         12    1    3    3    0    0 -0.24417193714E+02  0.25057345526E+01  0.22540543056E+02  0.33324977656E+02  0.00000000000E+00 0. -1.
</event>
<event>
 7    1  0.5041278E-013  0.5052885E+02  0.7816164E-02  0.1300439E+00
        -11   -1    0    0    0    0  0.00000000000E+00  0.00000000000E+00  0.45593999997E+02  0.45594000000E+02  0.51100000000E-03 0. -1.
         11   -1    0    0    0    0 -0.00000000000E+00 -0.00000000000E+00 -0.45593999997E+02  0.45594000000E+02  0.51100000000E-03 0.  1.
    9900012    2    1    2    0    0  0.12374606729E+02  0.37459176971E+02 -0.98410019526E+01  0.50528854037E+02  0.29999982330E+02 0.  0.
        -12    1    1    2    0    0 -0.12374606729E+02 -0.37459176971E+02  0.98410019526E+01  0.40659145963E+02  0.00000000000E+00 0.  1.
         11    1    3    3    0    0  0.17032677199E+01  0.15581081163E+02 -0.53203977610E+01  0.16552276089E+02  0.51100000000E-03 0. -1.
        -11    1    3    3    0    0 -0.61739247644E+01  0.14564374236E+00 -0.98195498747E+00  0.62532227655E+01  0.51100000000E-03 0.  1.
         12    1    3    3    0    0  0.16845263773E+02  0.21732452065E+02 -0.35386492041E+01  0.27723355182E+02  0.00000000000E+00 0. -1.
</event>
<event>
 7    1  0.5041278E-013  0.5052886E+02  0.7816164E-02  0.1300439E+00
        -11   -1    0    0    0    0  0.00000000000E+00  0.00000000000E+00  0.45593999997E+02  0.45594000000E+02  0.51100000000E-03 0.  1.
         11   -1    0    0    0    0 -0.00000000000E+00 -0.00000000000E+00 -0.45593999997E+02  0.45594000000E+02  0.51100000000E-03 0. -1.
    9900012    2    1    2    0    0 -0.13029495247E+02 -0.22557570203E+01 -0.38448785310E+02  0.50528864766E+02  0.30000014944E+02 0.  0.
        -12    1    1    2    0    0  0.13029495247E+02  0.22557570203E+01  0.38448785310E+02  0.40659135234E+02  0.00000000000E+00 0.  1.
         11    1    3    3    0    0 -0.10849850705E+01 -0.11061042829E+02 -0.14383109594E+02  0.18176845241E+02  0.51100000000E-03 0. -1.
        -11    1    3    3    0    0 -0.24208290625E+01  0.32478335244E+01 -0.20299901690E+02  0.20700117025E+02  0.51100000000E-03 0.  1.
         12    1    3    3    0    0 -0.95236811142E+01  0.55574522846E+01 -0.37657740261E+01  0.11651902500E+02  0.00000000000E+00 0. -1.
</event>
<event>
 7    1  0.5041278E-013  0.5052888E+02  0.7816164E-02  0.1300439E+00
        -11   -1    0    0    0    0  0.00000000000E+00  0.00000000000E+00  0.45593999997E+02  0.45594000000E+02  0.51100000000E-03 0.  1.
         11   -1    0    0    0    0 -0.00000000000E+00 -0.00000000000E+00 -0.45593999997E+02  0.45594000000E+02  0.51100000000E-03 0. -1.
    9900012    2    1    2    0    0 -0.17232476315E+02  0.34373340746E+02 -0.13216642325E+02  0.50528875215E+02  0.30000046703E+02 0.  0.
        -12    1    1    2    0    0  0.17232476315E+02 -0.34373340746E+02  0.13216642325E+02  0.40659124785E+02  0.00000000000E+00 0.  1.
         11    1    3    3    0    0 -0.42710699957E+01  0.16830545453E+02  0.46606917055E-01  0.17364085683E+02  0.51100000000E-03 0. -1.
        -11    1    3    3    0    0 -0.98009085067E+00  0.17167416517E+02 -0.31503740545E+01  0.17481579588E+02  0.51100000000E-03 0.  1.
        -12    1    3    3    0    0 -0.11981315468E+02  0.37537877558E+00 -0.10112875188E+02  0.15683209944E+02  0.00000000000E+00 0.  1.
</event>
<event>
 7    1  0.5041278E-013  0.5052886E+02  0.7816164E-02  0.1300439E+00
        -11   -1    0    0    0    0  0.00000000000E+00  0.00000000000E+00  0.45593999997E+02  0.45594000000E+02  0.51100000000E-03 0. -1.
         11   -1    0    0    0    0 -0.00000000000E+00 -0.00000000000E+00 -0.45593999997E+02  0.45594000000E+02  0.51100000000E-03 0.  1.
    9900012    2    1    2    0    0  0.31001950169E+02  0.15245469873E+02 -0.21438761458E+02  0.50528858853E+02  0.29999996970E+02 0.  0.
        -12    1    1    2    0    0 -0.31001950169E+02 -0.15245469873E+02  0.21438761458E+02  0.40659141147E+02  0.00000000000E+00 0.  1.
         11    1    3    3    0    0  0.55164600229E+01  0.15481012390E+01  0.34325478867E+01  0.66790967867E+01  0.51100000000E-03 0. -1.
        -11    1    3    3    0    0  0.25770728759E+02  0.71742687403E+01 -0.11798446680E+02  0.29237030237E+02  0.51100000000E-03 0.  1.
        -12    1    3    3    0    0 -0.28523861284E+00  0.65230998937E+01 -0.13072862665E+02  0.14612731830E+02  0.00000000000E+00 0.  1.
</event>
<event>
 7    1  0.5041278E-013  0.5052887E+02  0.7816164E-02  0.1300439E+00
        -11   -1    0    0    0    0  0.00000000000E+00  0.00000000000E+00  0.45593999997E+02  0.45594000000E+02  0.51100000000E-03 0.  1.
         11   -1    0    0    0    0 -0.00000000000E+00 -0.00000000000E+00 -0.45593999997E+02  0.45594000000E+02  0.51100000000E-03 0. -1.
    9900012    2    1    2    0    0 -0.67972598715E+01  0.32380249160E+02 -0.23632215034E+02  0.50528869847E+02  0.30000030386E+02 0.  0.
        -12    1    1    2    0    0  0.67972598715E+01 -0.32380249160E+02  0.23632215034E+02  0.40659130153E+02  0.00000000000E+00 0.  1.
         11    1    3    3    0    0  0.17239326719E+01  0.91455697030E+01 -0.15863989880E+00  0.93079834513E+01  0.51100000000E-03 0. -1.
        -11    1    3    3    0    0 -0.24866519806E+01 -0.20479506859E+01  0.27957739094E+01  0.42654298843E+01  0.51100000000E-03 0.  1.
         12    1    3    3    0    0 -0.60345405628E+01  0.25282630142E+02 -0.26269349045E+02  0.36955456511E+02  0.00000000000E+00 0. -1.
</event>
<event>
 7    1  0.5041278E-013  0.5052886E+02  0.7816164E-02  0.1300439E+00
        -11   -1    0    0    0    0  0.00000000000E+00  0.00000000000E+00  0.45593999997E+02  0.45594000000E+02  0.51100000000E-03 0.  1.
         11   -1    0    0    0    0 -0.00000000000E+00 -0.00000000000E+00 -0.45593999997E+02  0.45594000000E+02  0.51100000000E-03 0. -1.
    9900012    2    1    2    0    0  0.20602197271E+02  0.11095687671E+02 -0.33250575775E+02  0.50528860725E+02  0.30000002659E+02 0.  0.
        -12    1    1    2    0    0 -0.20602197271E+02 -0.11095687671E+02  0.33250575775E+02  0.40659139275E+02  0.00000000000E+00 0.  1.
         11    1    3    3    0    0  0.15472366870E+02  0.45644294015E+01 -0.23778060769E+02  0.28733679307E+02  0.51100000000E-03 0. -1.
        -11    1    3    3    0    0  0.85538150756E+01 -0.15468047095E+01  0.25389973686E+00  0.86962533596E+01  0.51100000000E-03 0.  1.
         12    1    3    3    0    0 -0.34239846744E+01  0.80780629786E+01 -0.97264147423E+01  0.13098928058E+02  0.00000000000E+00 0. -1.
</event>
<event>
 7    1  0.5041278E-013  0.5052882E+02  0.7816164E-02  0.1300439E+00
        -11   -1    0    0    0    0  0.00000000000E+00  0.00000000000E+00  0.45593999997E+02  0.45594000000E+02  0.51100000000E-03 0. -1.
         11   -1    0    0    0    0 -0.00000000000E+00 -0.00000000000E+00 -0.45593999997E+02  0.45594000000E+02  0.51100000000E-03 0.  1.
    9900012    2    1    2    0    0  0.37059003451E+02 -0.15711871355E+02 -0.57390352670E+01  0.50528816978E+02  0.29999869686E+02 0.  0.
        -12    1    1    2    0    0 -0.37059003451E+02  0.15711871355E+02  0.57390352670E+01  0.40659183022E+02  0.00000000000E+00 0.  1.
         11    1    3    3    0    0  0.56198859749E+01  0.37478355182E+01 -0.12794062617E+01  0.68750469152E+01  0.51100000000E-03 0. -1.
        -11    1    3    3    0    0 -0.36289238460E+01 -0.26324329685E+01  0.14713997077E+00  0.44855815728E+01  0.51100000000E-03 0.  1.
        -12    1    3    3    0    0  0.35068041322E+02 -0.16827273904E+02 -0.46067689760E+01  0.39168188490E+02  0.00000000000E+00 0.  1.
</event>
<event>
 7    1  0.5041278E-013  0.5052886E+02  0.7816164E-02  0.1300439E+00
        -11   -1    0    0    0    0  0.00000000000E+00  0.00000000000E+00  0.45593999997E+02  0.45594000000E+02  0.51100000000E-03 0.  1.
         11   -1    0    0    0    0 -0.00000000000E+00 -0.00000000000E+00 -0.45593999997E+02  0.45594000000E+02  0.51100000000E-03 0. -1.
    9900012    2    1    2    0    0 -0.29379838687E+02  0.17216311900E+02 -0.22216862009E+02  0.50528864812E+02  0.30000015084E+02 0.  0.
        -12    1    1    2    0    0  0.29379838687E+02 -0.17216311900E+02  0.22216862009E+02  0.40659135188E+02  0.00000000000E+00 0.  1.
         11    1    3    3    0    0 -0.48235982881E+01  0.50838510475E+01  0.31946766860E+00  0.70153190783E+01  0.51100000000E-03 0. -1.
        -11    1    3    3    0    0 -0.64075240708E+01  0.10620283417E+02  0.24014693504E+01  0.12633837100E+02  0.51100000000E-03 0.  1.
         12    1    3    3    0    0 -0.18148716328E+02  0.15121774349E+01 -0.24937799028E+02  0.30879708634E+02  0.00000000000E+00 0. -1.
</event>
<event>
 7    1  0.5041278E-013  0.5052888E+02  0.7816164E-02  0.1300439E+00
        -11   -1    0    0    0    0  0.00000000000E+00  0.00000000000E+00  0.45593999997E+02  0.45594000000E+02  0.51100000000E-03 0.  1.
         11   -1    0    0    0    0 -0.00000000000E+00 -0.00000000000E+00 -0.45593999997E+02  0.45594000000E+02  0.51100000000E-03 0. -1.
    9900012    2    1    2    0    0  0.39364886806E+02  0.31758489961E+01 -0.96687037011E+01  0.50528878498E+02  0.30000056681E+02 0.  0.
        -12    1    1    2    0    0 -0.39364886806E+02 -0.31758489961E+01  0.96687037011E+01  0.40659121502E+02  0.00000000000E+00 0.  1.
         11    1    3    3    0    0  0.26981011763E+02  0.64088007557E+01 -0.13467482977E+02  0.30828895875E+02  0.51100000000E-03 0. -1.
        -11    1    3    3    0    0  0.68202384802E+01  0.55677870299E+01  0.67756943742E+00  0.88303457430E+01  0.51100000000E-03 0.  1.
        -12    1    3    3    0    0  0.55636365628E+01 -0.88007387895E+01  0.31212098381E+01  0.10869636880E+02  0.00000000000E+00 0.  1.
</event>
<event>
 7    1  0.5041278E-013  0.5052887E+02  0.7816164E-02  0.1300439E+00
        -11   -1    0    0    0    0  0.00000000000E+00  0.00000000000E+00  0.45593999997E+02  0.45594000000E+02  0.51100000000E-03 0. -1.
         11   -1    0    0    0    0 -0.00000000000E+00 -0.00000000000E+00 -0.45593999997E+02  0.45594000000E+02  0.51100000000E-03 0.  1.
    9900012    2    1    2    0    0 -0.38783879789E+02  0.69973398322E+01  0.10000653276E+02  0.50528866190E+02  0.30000019271E+02 0.  0.
        -12    1    1    2    0    0  0.38783879789E+02 -0.69973398322E+01 -0.10000653276E+02  0.40659133810E+02  0.00000000000E+00 0.  1.
         11    1    3    3    0    0 -0.68795724426E+01 -0.87849632794E+00  0.87312314824E+01  0.11150546007E+02  0.51100000000E-03 0. -1.
        -11    1    3    3    0    0 -0.34054358639E+01 -0.61231981291E+01 -0.24212548944E+01  0.74130307079E+01  0.51100000000E-03 0.  1.
         12    1    3    3    0    0 -0.28498871483E+02  0.13999034289E+02  0.36906766884E+01  0.31965289475E+02  0.00000000000E+00 0. -1.
</event>
<event>
 7    1  0.5041278E-013  0.5052883E+02  0.7816164E-02  0.1300439E+00
        -11   -1    0    0    0    0  0.00000000000E+00  0.00000000000E+00  0.45593999997E+02  0.45594000000E+02  0.51100000000E-03 0.  1.
         11   -1    0    0    0    0 -0.00000000000E+00 -0.00000000000E+00 -0.45593999997E+02  0.45594000000E+02  0.51100000000E-03 0. -1.
    9900012    2    1    2    0    0  0.21046947778E+01  0.89264596840E+01 -0.39611322721E+02  0.50528827476E+02  0.29999901596E+02 0.  0.
        -12    1    1    2    0    0 -0.21046947778E+01 -0.89264596840E+01  0.39611322721E+02  0.40659172524E+02  0.00000000000E+00 0.  1.
         11    1    3    3    0    0 -0.13671309148E+01 -0.65341727690E+01 -0.21074156633E+02  0.22106210412E+02  0.51100000000E-03 0. -1.
        -11    1    3    3    0    0  0.23158414178E+01 -0.17461737394E+01  0.26110935515E+00  0.29121165082E+01  0.51100000000E-03 0.  1.
         12    1    3    3    0    0  0.11559842748E+01  0.17206806192E+02 -0.18798275443E+02  0.25510500556E+02  0.00000000000E+00 0. -1.
</event>
<event>
 7    1  0.5041278E-013  0.5052886E+02  0.7816164E-02  0.1300439E+00
        -11   -1    0    0    0    0  0.00000000000E+00  0.00000000000E+00  0.45593999997E+02  0.45594000000E+02  0.51100000000E-03 0.  1.
         11   -1    0    0    0    0 -0.00000000000E+00 -0.00000000000E+00 -0.45593999997E+02  0.45594000000E+02  0.51100000000E-03 0. -1.
    9900012    2    1    2    0    0  0.17167239850E+02  0.34665830323E+02 -0.12519255362E+02  0.50528859934E+02  0.30000000256E+02 0.  0.
        -12    1    1    2    0    0 -0.17167239850E+02 -0.34665830323E+02  0.12519255362E+02  0.40659140066E+02  0.00000000000E+00 0.  1.
         11    1    3    3    0    0 -0.71458532232E+01  0.56721272088E+01 -0.80431381194E+01  0.12162578527E+02  0.51100000000E-03 0. -1.
        -11    1    3    3    0    0  0.35549037148E+01  0.24593996197E+01  0.33248167466E+00  0.43354966539E+01  0.51100000000E-03 0.  1.
         12    1    3    3    0    0  0.20758189358E+02  0.26534303495E+02 -0.48085989172E+01  0.34030784753E+02  0.00000000000E+00 0. -1.
</event>
<event>
 7    1  0.5041278E-013  0.5052886E+02  0.7816164E-02  0.1300439E+00
        -11   -1    0    0    0    0  0.00000000000E+00  0.00000000000E+00  0.45593999997E+02  0.45594000000E+02  0.51100000000E-03 0.  1.
         11   -1    0    0    0    0 -0.00000000000E+00 -0.00000000000E+00 -0.45593999997E+02  0.45594000000E+02  0.51100000000E-03 0. -1.
    9900012    2    1    2    0    0 -0.10694933495E+02 -0.16494605706E+02 -0.35590898501E+02  0.50528859872E+02  0.30000000067E+02 0.  0.
        -12    1    1    2    0    0  0.10694933495E+02  0.16494605706E+02  0.35590898501E+02  0.40659140128E+02  0.00000000000E+00 0.  1.
         11    1    3    3    0    0 -0.11382110483E+02 -0.70795759947E+01 -0.72039014763E+01  0.15217392419E+02  0.51100000000E-03 0. -1.
        -11    1    3    3    0    0  0.16034183133E+01 -0.87048237509E+01 -0.22287608863E+01  0.91275561993E+01  0.51100000000E-03 0.  1.
         12    1    3    3    0    0 -0.91624132580E+00 -0.71020596013E+00 -0.26158236138E+02  0.26183911253E+02  0.00000000000E+00 0. -1.
</event>
<event>
 7    1  0.5041278E-013  0.5052888E+02  0.7816164E-02  0.1300439E+00
        -11   -1    0    0    0    0  0.00000000000E+00  0.00000000000E+00  0.45593999997E+02  0.45594000000E+02  0.51100000000E-03 0.  1.
         11   -1    0    0    0    0 -0.00000000000E+00 -0.00000000000E+00 -0.45593999997E+02  0.45594000000E+02  0.51100000000E-03 0. -1.
    9900012    2    1    2    0    0 -0.11185603223E+02 -0.21452598379E+02 -0.32677708360E+02  0.50528876543E+02  0.30000050740E+02 0.  0.
        -12    1    1    2    0    0  0.11185603223E+02  0.21452598379E+02  0.32677708360E+02  0.40659123457E+02  0.00000000000E+00 0.  1.
         11    1    3    3    0    0 -0.77202958121E+01 -0.11220875597E+02 -0.17203990672E+02  0.21942841928E+02  0.51100000000E-03 0. -1.
        -11    1    3    3    0    0 -0.79006646880E+01 -0.12720932657E+02 -0.32176414681E+01  0.15316522029E+02  0.51100000000E-03 0.  1.
        -12    1    3    3    0    0  0.44353572771E+01  0.24892098750E+01 -0.12256076219E+02  0.13269512586E+02  0.00000000000E+00 0.  1.
</event>
<event>
 7    1  0.5041278E-013  0.5052888E+02  0.7816164E-02  0.1300439E+00
        -11   -1    0    0    0    0  0.00000000000E+00  0.00000000000E+00  0.45593999997E+02  0.45594000000E+02  0.51100000000E-03 0.  1.
         11   -1    0    0    0    0 -0.00000000000E+00 -0.00000000000E+00 -0.45593999997E+02  0.45594000000E+02  0.51100000000E-03 0. -1.
    9900012    2    1    2    0    0 -0.86842090932E+01  0.22870072821E+02 -0.32476269374E+02  0.50528883053E+02  0.30000070528E+02 0.  0.
        -12    1    1    2    0    0  0.86842090932E+01 -0.22870072821E+02  0.32476269374E+02  0.40659116947E+02  0.00000000000E+00 0.  1.
         11    1    3    3    0    0  0.87181355562E+01  0.12923475431E+02 -0.16250569278E+02  0.22518949951E+02  0.51100000000E-03 0. -1.
        -11    1    3    3    0    0 -0.76314466604E+01 -0.14912651238E+01 -0.50887226633E+01  0.92928977399E+01  0.51100000000E-03 0.  1.
        -12    1    3    3    0    0 -0.97708979890E+01  0.11437862514E+02 -0.11136977434E+02  0.18717035362E+02  0.00000000000E+00 0.  1.
</event>
<event>
 7    1  0.5041278E-013  0.5052886E+02  0.7816164E-02  0.1300439E+00
        -11   -1    0    0    0    0  0.00000000000E+00  0.00000000000E+00  0.45593999997E+02  0.45594000000E+02  0.51100000000E-03 0. -1.
         11   -1    0    0    0    0 -0.00000000000E+00 -0.00000000000E+00 -0.45593999997E+02  0.45594000000E+02  0.51100000000E-03 0.  1.
    9900012    2    1    2    0    0  0.14398682619E+02 -0.31815403770E+00  0.38022915549E+02  0.50528863389E+02  0.30000010757E+02 0.  0.
        -12    1    1    2    0    0 -0.14398682619E+02  0.31815403770E+00 -0.38022915549E+02  0.40659136611E+02  0.00000000000E+00 0.  1.
         11    1    3    3    0    0 -0.15576110017E+01 -0.20316996552E+01  0.62371522084E+01  0.67421082350E+01  0.51100000000E-03 0. -1.
        -11    1    3    3    0    0  0.68380455016E+01  0.85113462408E+01  0.30434323349E+02  0.32333417993E+02  0.51100000000E-03 0.  1.
        -12    1    3    3    0    0  0.91182481188E+01 -0.67978006233E+01  0.13514399908E+01  0.11453337161E+02  0.00000000000E+00 0.  1.
</event>
<event>
 7    1  0.5041278E-013  0.5052886E+02  0.7816164E-02  0.1300439E+00
        -11   -1    0    0    0    0  0.00000000000E+00  0.00000000000E+00  0.45593999997E+02  0.45594000000E+02  0.51100000000E-03 0. -1.
         11   -1    0    0    0    0 -0.00000000000E+00 -0.00000000000E+00 -0.45593999997E+02  0.45594000000E+02  0.51100000000E-03 0.  1.
    9900012    2    1    2    0    0  0.28969426080E+02 -0.35410917533E+01  0.28308989805E+02  0.50528857338E+02  0.29999992365E+02 0.  0.
        -12    1    1    2    0    0 -0.28969426080E+02  0.35410917533E+01 -0.28308989805E+02  0.40659142662E+02  0.00000000000E+00 0.  1.
         11    1    3    3    0    0  0.10533977534E+02  0.85686294889E+00  0.17092511002E+02  0.20096089904E+02  0.51100000000E-03 0. -1.
        -11    1    3    3    0    0  0.92302456221E+01  0.81861409865E+01  0.73799995447E+01  0.14376186283E+02  0.51100000000E-03 0.  1.
        -12    1    3    3    0    0  0.92052029239E+01 -0.12584095689E+02  0.38364792577E+01  0.16056581151E+02  0.00000000000E+00 0.  1.
</event>
<event>
 7    1  0.5041278E-013  0.5052886E+02  0.7816164E-02  0.1300439E+00
        -11   -1    0    0    0    0  0.00000000000E+00  0.00000000000E+00  0.45593999997E+02  0.45594000000E+02  0.51100000000E-03 0.  1.
         11   -1    0    0    0    0 -0.00000000000E+00 -0.00000000000E+00 -0.45593999997E+02  0.45594000000E+02  0.51100000000E-03 0. -1.
    9900012    2    1    2    0    0 -0.42395706095E+01 -0.19591767859E+02 -0.35374484443E+02  0.50528862327E+02  0.30000007528E+02 0.  0.
        -12    1    1    2    0    0  0.42395706095E+01  0.19591767859E+02  0.35374484443E+02  0.40659137673E+02  0.00000000000E+00 0.  1.
         11    1    3    3    0    0 -0.23750904264E+01 -0.13656425881E+02 -0.79987779449E+01  0.16003733041E+02  0.51100000000E-03 0. -1.
        -11    1    3    3    0    0 -0.93658078173E+01 -0.35588491906E+01 -0.58401556562E+01  0.11597033327E+02  0.51100000000E-03 0.  1.
        -12    1    3    3    0    0  0.75013276342E+01 -0.23764927869E+01 -0.21535550841E+02  0.22928095959E+02  0.00000000000E+00 0.  1.
</event>
<event>
 7    1  0.5041278E-013  0.5052885E+02  0.7816164E-02  0.1300439E+00
        -11   -1    0    0    0    0  0.00000000000E+00  0.00000000000E+00  0.45593999997E+02  0.45594000000E+02  0.51100000000E-03 0. -1.
         11   -1    0    0    0    0 -0.00000000000E+00 -0.00000000000E+00 -0.45593999997E+02  0.45594000000E+02  0.51100000000E-03 0.  1.
    9900012    2    1    2    0    0  0.27139248746E+02 -0.10950101920E+02  0.28226282246E+02  0.50528848952E+02  0.29999966873E+02 0.  0.
        -12    1    1    2    0    0 -0.27139248746E+02  0.10950101920E+02 -0.28226282246E+02  0.40659151048E+02  0.00000000000E+00 0.  1.
         11    1    3    3    0    0  0.33594772241E+01  0.32230637841E+01 -0.27265335052E+01  0.53952027387E+01  0.51100000000E-03 0. -1.
        -11    1    3    3    0    0 -0.12229111557E+01  0.95091490266E+00  0.75186456078E+01  0.76765736422E+01  0.51100000000E-03 0.  1.
         12    1    3    3    0    0  0.25002682678E+02 -0.15124080606E+02  0.23434170143E+02  0.37457072571E+02  0.00000000000E+00 0. -1.
</event>
<event>
 7    1  0.5041278E-013  0.5052893E+02  0.7816164E-02  0.1300439E+00
        -11   -1    0    0    0    0  0.00000000000E+00  0.00000000000E+00  0.45593999997E+02  0.45594000000E+02  0.51100000000E-03 0. -1.
         11   -1    0    0    0    0 -0.00000000000E+00 -0.00000000000E+00 -0.45593999997E+02  0.45594000000E+02  0.51100000000E-03 0.  1.
    9900012    2    1    2    0    0  0.97476748685E+01  0.39431644793E+02 -0.18133399859E+01  0.50528929938E+02  0.30000213039E+02 0.  0.
        -12    1    1    2    0    0 -0.97476748685E+01 -0.39431644793E+02  0.18133399859E+01  0.40659070062E+02  0.00000000000E+00 0.  1.
         11    1    3    3    0    0 -0.41877504656E+01  0.82234874594E+01  0.53818290171E+01  0.10683027838E+02  0.51100000000E-03 0. -1.
        -11    1    3    3    0    0  0.10867884774E+01  0.42035914746E+01  0.57949429960E+01  0.72410396400E+01  0.51100000000E-03 0.  1.
         12    1    3    3    0    0  0.12848636857E+02  0.27004565859E+02 -0.12990111999E+02  0.32604862460E+02  0.00000000000E+00 0. -1.
</event>
<event>
 7    1  0.5041278E-013  0.5052886E+02  0.7816164E-02  0.1300439E+00
        -11   -1    0    0    0    0  0.00000000000E+00  0.00000000000E+00  0.45593999997E+02  0.45594000000E+02  0.51100000000E-03 0.  1.
         11   -1    0    0    0    0 -0.00000000000E+00 -0.00000000000E+00 -0.45593999997E+02  0.45594000000E+02  0.51100000000E-03 0. -1.
    9900012    2    1    2    0    0 -0.50839384982E+01  0.32624221110E+02 -0.23727185520E+02  0.50528861219E+02  0.30000004161E+02 0.  0.
        -12    1    1    2    0    0  0.50839384982E+01 -0.32624221110E+02  0.23727185520E+02  0.40659138781E+02  0.00000000000E+00 0.  1.
         11    1    3    3    0    0  0.60333110220E+00 -0.11269573857E+01  0.32361134210E+00  0.13186227398E+01  0.51100000000E-03 0.  1.
        -11    1    3    3    0    0  0.11968836444E+01  0.14683805812E+01  0.49320178061E+01  0.52833201579E+01  0.51100000000E-03 0. -1.
         12    1    3    3    0    0 -0.68841532448E+01  0.32282797915E+02 -0.28982814669E+02  0.43926918321E+02  0.00000000000E+00 0. -1.
</event>
<event>
 7    1  0.5041278E-013  0.5052885E+02  0.7816164E-02  0.1300439E+00
        -11   -1    0    0    0    0  0.00000000000E+00  0.00000000000E+00  0.45593999997E+02  0.45594000000E+02  0.51100000000E-03 0. -1.
         11   -1    0    0    0    0 -0.00000000000E+00 -0.00000000000E+00 -0.45593999997E+02  0.45594000000E+02  0.51100000000E-03 0.  1.
    9900012    2    1    2    0    0  0.14342128558E+02 -0.10245605078E+02  0.36640103186E+02  0.50528852979E+02  0.29999979116E+02 0.  0.
        -12    1    1    2    0    0 -0.14342128558E+02  0.10245605078E+02 -0.36640103186E+02  0.40659147021E+02  0.00000000000E+00 0.  1.
         11    1    3    3    0    0 -0.12249010687E+01  0.29289588135E+00 -0.44872647511E+00  0.13369840448E+01  0.51100000000E-03 0.  1.
        -11    1    3    3    0    0  0.12701135028E+02 -0.16337230986E+02  0.13441496702E+02  0.24675854213E+02  0.51100000000E-03 0. -1.
         12    1    3    3    0    0  0.28658945990E+01  0.57987300263E+01  0.23647332959E+02  0.24516014722E+02  0.00000000000E+00 0. -1.
</event>
<event>
 7    1  0.5041278E-013  0.5052886E+02  0.7816164E-02  0.1300439E+00
        -11   -1    0    0    0    0  0.00000000000E+00  0.00000000000E+00  0.45593999997E+02  0.45594000000E+02  0.51100000000E-03 0.  1.
         11   -1    0    0    0    0 -0.00000000000E+00 -0.00000000000E+00 -0.45593999997E+02  0.45594000000E+02  0.51100000000E-03 0. -1.
    9900012    2    1    2    0    0  0.40131637973E+01 -0.12004799488E+01 -0.40442786285E+02  0.50528860828E+02  0.30000002972E+02 0.  0.
        -12    1    1    2    0    0 -0.40131637973E+01  0.12004799488E+01  0.40442786285E+02  0.40659139172E+02  0.00000000000E+00 0.  1.
         11    1    3    3    0    0  0.15751750859E+01 -0.71789757146E+01 -0.20073968995E+02  0.21377163056E+02  0.51100000000E-03 0. -1.
        -11    1    3    3    0    0 -0.25944687606E+00 -0.72727564307E+01 -0.81484872997E+01  0.10925115300E+02  0.51100000000E-03 0.  1.
        -12    1    3    3    0    0  0.26974355874E+01  0.13251252196E+02 -0.12220329990E+02  0.18226582471E+02  0.00000000000E+00 0.  1.
</event>
<event>
 7    1  0.5041278E-013  0.5052886E+02  0.7816164E-02  0.1300439E+00
        -11   -1    0    0    0    0  0.00000000000E+00  0.00000000000E+00  0.45593999997E+02  0.45594000000E+02  0.51100000000E-03 0. -1.
         11   -1    0    0    0    0 -0.00000000000E+00 -0.00000000000E+00 -0.45593999997E+02  0.45594000000E+02  0.51100000000E-03 0.  1.
    9900012    2    1    2    0    0  0.11499629533E+02 -0.25484390901E+02  0.29520674971E+02  0.50528856997E+02  0.29999991329E+02 0.  0.
        -12    1    1    2    0    0 -0.11499629533E+02  0.25484390901E+02 -0.29520674971E+02  0.40659143003E+02  0.00000000000E+00 0.  1.
         11    1    3    3    0    0  0.93168056793E+01 -0.12544729519E+01  0.11497884796E+02  0.14851866061E+02  0.51100000000E-03 0. -1.
        -11    1    3    3    0    0  0.10046800375E+02 -0.16538158281E+02  0.14309940436E+02  0.24067057831E+02  0.51100000000E-03 0.  1.
        -12    1    3    3    0    0 -0.78639765214E+01 -0.76917596677E+01  0.37128497389E+01  0.11609933105E+02  0.00000000000E+00 0.  1.
</event>
<event>
 7    1  0.5041278E-013  0.5052886E+02  0.7816164E-02  0.1300439E+00
        -11   -1    0    0    0    0  0.00000000000E+00  0.00000000000E+00  0.45593999997E+02  0.45594000000E+02  0.51100000000E-03 0.  1.
         11   -1    0    0    0    0 -0.00000000000E+00 -0.00000000000E+00 -0.45593999997E+02  0.45594000000E+02  0.51100000000E-03 0. -1.
    9900012    2    1    2    0    0  0.34559773883E+02  0.16831534914E+02 -0.13247162313E+02  0.50528857759E+02  0.29999993645E+02 0.  0.
        -12    1    1    2    0    0 -0.34559773883E+02 -0.16831534914E+02  0.13247162313E+02  0.40659142241E+02  0.00000000000E+00 0.  1.
         11    1    3    3    0    0  0.68781840687E+01  0.13966081337E+02 -0.84388200709E+01  0.17708035703E+02  0.51100000000E-03 0. -1.
        -11    1    3    3    0    0  0.25158054826E+02  0.82831712207E+01 -0.41097446044E+01  0.26803519341E+02  0.51100000000E-03 0.  1.
        -12    1    3    3    0    0  0.25235349886E+01 -0.54177176439E+01 -0.69859763782E+00  0.60173027153E+01  0.00000000000E+00 0.  1.
</event>
<event>
 7    1  0.5041278E-013  0.5052886E+02  0.7816164E-02  0.1300439E+00
        -11   -1    0    0    0    0  0.00000000000E+00  0.00000000000E+00  0.45593999997E+02  0.45594000000E+02  0.51100000000E-03 0.  1.
         11   -1    0    0    0    0 -0.00000000000E+00 -0.00000000000E+00 -0.45593999997E+02  0.45594000000E+02  0.51100000000E-03 0. -1.
    9900012    2    1    2    0    0 -0.19599603118E+02 -0.67165540187E+00 -0.35616993616E+02  0.50528858376E+02  0.29999995518E+02 0.  0.
        -12    1    1    2    0    0  0.19599603118E+02  0.67165540187E+00  0.35616993616E+02  0.40659141624E+02  0.00000000000E+00 0.  1.
         11    1    3    3    0    0 -0.77467580616E+01 -0.55844467001E+01 -0.22346750458E+02  0.24301760465E+02  0.51100000000E-03 0. -1.
        -11    1    3    3    0    0 -0.80149251451E+01  0.51963008759E+01 -0.17850021136E+02  0.20245093793E+02  0.51100000000E-03 0.  1.
        -12    1    3    3    0    0 -0.38379199118E+01 -0.28350957770E+00  0.45797779780E+01  0.59820041172E+01  0.00000000000E+00 0.  1.
</event>
<event>
 7    1  0.5041278E-013  0.5052885E+02  0.7816164E-02  0.1300439E+00
        -11   -1    0    0    0    0  0.00000000000E+00  0.00000000000E+00  0.45593999997E+02  0.45594000000E+02  0.51100000000E-03 0.  1.
         11   -1    0    0    0    0 -0.00000000000E+00 -0.00000000000E+00 -0.45593999997E+02  0.45594000000E+02  0.51100000000E-03 0. -1.
    9900012    2    1    2    0    0  0.39622097852E+02  0.59403352580E+01  0.69259105906E+01  0.50528850246E+02  0.29999970808E+02 0.  0.
        -12    1    1    2    0    0 -0.39622097852E+02 -0.59403352580E+01 -0.69259105906E+01  0.40659149754E+02  0.00000000000E+00 0.  1.
         11    1    3    3    0    0  0.34719696746E+01 -0.73694058329E+00  0.76309682230E+01  0.84160163454E+01  0.51100000000E-03 0. -1.
        -11    1    3    3    0    0  0.21213288965E+02 -0.18690422591E+01  0.80977418419E+01  0.22783115917E+02  0.51100000000E-03 0.  1.
         12    1    3    3    0    0  0.14936839213E+02  0.85463181004E+01 -0.88027994743E+01  0.19329717984E+02  0.00000000000E+00 0. -1.
</event>
<event>
 7    1  0.5041278E-013  0.5052886E+02  0.7816164E-02  0.1300439E+00
        -11   -1    0    0    0    0  0.00000000000E+00  0.00000000000E+00  0.45593999997E+02  0.45594000000E+02  0.51100000000E-03 0.  1.
         11   -1    0    0    0    0 -0.00000000000E+00 -0.00000000000E+00 -0.45593999997E+02  0.45594000000E+02  0.51100000000E-03 0. -1.
    9900012    2    1    2    0    0 -0.22257348642E+02  0.15524317394E+02 -0.30278236867E+02  0.50528860475E+02  0.30000001901E+02 0.  0.
        -12    1    1    2    0    0  0.22257348642E+02 -0.15524317394E+02  0.30278236867E+02  0.40659139525E+02  0.00000000000E+00 0.  1.
         11    1    3    3    0    0 -0.10196194928E+02 -0.64507879051E+00 -0.28457308281E+02  0.30235689384E+02  0.51100000000E-03 0. -1.
        -11    1    3    3    0    0 -0.21288709857E+01  0.21093153056E+01 -0.26251093701E+00  0.30083575229E+01  0.51100000000E-03 0.  1.
         12    1    3    3    0    0 -0.99322827284E+01  0.14060080879E+02 -0.15584176486E+01  0.17284813568E+02  0.00000000000E+00 0. -1.
</event>
<event>
 7    1  0.5041278E-013  0.5052886E+02  0.7816164E-02  0.1300439E+00
        -11   -1    0    0    0    0  0.00000000000E+00  0.00000000000E+00  0.45593999997E+02  0.45594000000E+02  0.51100000000E-03 0. -1.
         11   -1    0    0    0    0 -0.00000000000E+00 -0.00000000000E+00 -0.45593999997E+02  0.45594000000E+02  0.51100000000E-03 0.  1.
    9900012    2    1    2    0    0  0.79417770455E+01 -0.19225869561E+02  0.34935078872E+02  0.50528860574E+02  0.30000002201E+02 0.  0.
        -12    1    1    2    0    0 -0.79417770455E+01  0.19225869561E+02 -0.34935078872E+02  0.40659139426E+02  0.00000000000E+00 0.  1.
         11    1    3    3    0    0  0.39488005993E+01 -0.52966546873E+01  0.26728236908E+01  0.71268200337E+01  0.51100000000E-03 0. -1.
        -11    1    3    3    0    0  0.70312626273E+01 -0.21895744766E+01 -0.15110224885E+01  0.75177177218E+01  0.51100000000E-03 0.  1.
         12    1    3    3    0    0 -0.30382861811E+01 -0.11739640397E+02  0.33773277670E+02  0.35884322819E+02  0.00000000000E+00 0. -1.
</event>
<event>
 7    1  0.5041278E-013  0.5052888E+02  0.7816164E-02  0.1300439E+00
        -11   -1    0    0    0    0  0.00000000000E+00  0.00000000000E+00  0.45593999997E+02  0.45594000000E+02  0.51100000000E-03 0. -1.
         11   -1    0    0    0    0 -0.00000000000E+00 -0.00000000000E+00 -0.45593999997E+02  0.45594000000E+02  0.51100000000E-03 0.  1.
    9900012    2    1    2    0    0 -0.16262940458E+01 -0.38970407822E+02  0.11481587010E+02  0.50528876074E+02  0.30000049316E+02 0.  0.
        -12    1    1    2    0    0  0.16262940458E+01  0.38970407822E+02 -0.11481587010E+02  0.40659123926E+02  0.00000000000E+00 0.  1.
         11    1    3    3    0    0  0.38264934193E+01 -0.83942724682E+01  0.13278301637E+02  0.16168461794E+02  0.51100000000E-03 0.  1.
        -11    1    3    3    0    0 -0.63945487111E+01 -0.85976792500E+01  0.42796617599E+01  0.11538017453E+02  0.51100000000E-03 0. -1.
         12    1    3    3    0    0  0.94176124599E+00 -0.21978456104E+02 -0.60763763870E+01  0.22822396827E+02  0.00000000000E+00 0. -1.
</event>
<event>
 7    1  0.5041278E-013  0.5052885E+02  0.7816164E-02  0.1300439E+00
        -11   -1    0    0    0    0  0.00000000000E+00  0.00000000000E+00  0.45593999997E+02  0.45594000000E+02  0.51100000000E-03 0. -1.
         11   -1    0    0    0    0 -0.00000000000E+00 -0.00000000000E+00 -0.45593999997E+02  0.45594000000E+02  0.51100000000E-03 0.  1.
    9900012    2    1    2    0    0 -0.70986752392E+01  0.38963029218E+02  0.92009761614E+01  0.50528846070E+02  0.29999958114E+02 0.  0.
        -12    1    1    2    0    0  0.70986752392E+01 -0.38963029218E+02 -0.92009761614E+01  0.40659153930E+02  0.00000000000E+00 0.  1.
         11    1    3    3    0    0  0.20432476950E+01 -0.76573658654E+00  0.41762727967E+00  0.22216269869E+01  0.51100000000E-03 0. -1.
        -11    1    3    3    0    0 -0.24262619349E+01  0.40504229133E+02  0.60951377020E+01  0.41032060983E+02  0.51100000000E-03 0.  1.
         12    1    3    3    0    0 -0.67156609994E+01 -0.77546332848E+00  0.26882111797E+01  0.72751581000E+01  0.00000000000E+00 0. -1.
</event>
<event>
 7    1  0.5041278E-013  0.5052886E+02  0.7816164E-02  0.1300439E+00
        -11   -1    0    0    0    0  0.00000000000E+00  0.00000000000E+00  0.45593999997E+02  0.45594000000E+02  0.51100000000E-03 0.  1.
         11   -1    0    0    0    0 -0.00000000000E+00 -0.00000000000E+00 -0.45593999997E+02  0.45594000000E+02  0.51100000000E-03 0. -1.
    9900012    2    1    2    0    0 -0.40412165475E+02  0.12485465269E+01 -0.42969286282E+01  0.50528861021E+02  0.30000003561E+02 0.  0.
        -12    1    1    2    0    0  0.40412165475E+02 -0.12485465269E+01  0.42969286282E+01  0.40659138979E+02  0.00000000000E+00 0.  1.
         11    1    3    3    0    0 -0.76662938164E+01  0.58948694819E+01 -0.36083483067E+01  0.10321905098E+02  0.51100000000E-03 0. -1.
        -11    1    3    3    0    0 -0.13842972004E+02  0.34721371444E+00  0.10772381478E+02  0.17544019900E+02  0.51100000000E-03 0.  1.
         12    1    3    3    0    0 -0.18902899655E+02 -0.49935366694E+01 -0.11460961800E+02  0.22662936024E+02  0.00000000000E+00 0. -1.
</event>
<event>
 7    1  0.5041278E-013  0.5052885E+02  0.7816164E-02  0.1300439E+00
        -11   -1    0    0    0    0  0.00000000000E+00  0.00000000000E+00  0.45593999997E+02  0.45594000000E+02  0.51100000000E-03 0.  1.
         11   -1    0    0    0    0 -0.00000000000E+00 -0.00000000000E+00 -0.45593999997E+02  0.45594000000E+02  0.51100000000E-03 0. -1.
    9900012    2    1    2    0    0 -0.34752986105E+02  0.13703233715E+02 -0.16050477483E+02  0.50528849924E+02  0.29999969830E+02 0.  0.
        -12    1    1    2    0    0  0.34752986105E+02 -0.13703233715E+02  0.16050477483E+02  0.40659150076E+02  0.00000000000E+00 0.  1.
         11    1    3    3    0    0 -0.19770602810E+02 -0.50740443064E+00 -0.14644701761E+02  0.24608971629E+02  0.51100000000E-03 0. -1.
        -11    1    3    3    0    0 -0.11182373497E+01 -0.31797632429E+01  0.10834105739E+01  0.35404982395E+01  0.51100000000E-03 0.  1.
        -12    1    3    3    0    0 -0.13864145945E+02  0.17390401388E+02 -0.24891862953E+01  0.22379380055E+02  0.00000000000E+00 0.  1.
</event>
<event>
 7    1  0.5041278E-013  0.5052886E+02  0.7816164E-02  0.1300439E+00
        -11   -1    0    0    0    0  0.00000000000E+00  0.00000000000E+00  0.45593999997E+02  0.45594000000E+02  0.51100000000E-03 0.  1.
         11   -1    0    0    0    0 -0.00000000000E+00 -0.00000000000E+00 -0.45593999997E+02  0.45594000000E+02  0.51100000000E-03 0. -1.
    9900012    2    1    2    0    0 -0.47746120988E+01 -0.34955639270E+02 -0.20210693067E+02  0.50528858940E+02  0.29999997234E+02 0.  0.
        -12    1    1    2    0    0  0.47746120988E+01  0.34955639270E+02  0.20210693067E+02  0.40659141060E+02  0.00000000000E+00 0.  1.
         11    1    3    3    0    0  0.22095936480E+01 -0.67854320896E+01 -0.13214909651E+02  0.15018596142E+02  0.51100000000E-03 0. -1.
        -11    1    3    3    0    0 -0.80266905705E+01 -0.30666067313E+02 -0.78812391972E+01  0.32664191059E+02  0.51100000000E-03 0.  1.
         12    1    3    3    0    0  0.10424848236E+01  0.24958601324E+01  0.88545578083E+00  0.28460717398E+01  0.00000000000E+00 0. -1.
</event>
<event>
 7    1  0.5041278E-013  0.5052884E+02  0.7816164E-02  0.1300439E+00
        -11   -1    0    0    0    0  0.00000000000E+00  0.00000000000E+00  0.45593999997E+02  0.45594000000E+02  0.51100000000E-03 0. -1.
         11   -1    0    0    0    0 -0.00000000000E+00 -0.00000000000E+00 -0.45593999997E+02  0.45594000000E+02  0.51100000000E-03 0.  1.
    9900012    2    1    2    0    0 -0.31442682829E+02  0.90371958973E+01  0.24142366958E+02  0.50528842415E+02  0.29999947005E+02 0.  0.
        -12    1    1    2    0    0  0.31442682829E+02 -0.90371958973E+01 -0.24142366958E+02  0.40659157585E+02  0.00000000000E+00 0.  1.
         11    1    3    3    0    0 -0.12254987253E+02  0.10835678823E+02  0.75919325067E+01  0.18034247630E+02  0.51100000000E-03 0. -1.
        -11    1    3    3    0    0  0.18240255138E+01 -0.15556307701E+01  0.10294567880E+02  0.10570013446E+02  0.51100000000E-03 0.  1.
         12    1    3    3    0    0 -0.21011721090E+02 -0.24285215578E+00  0.62558665716E+01  0.21924581339E+02  0.00000000000E+00 0. -1.
</event>
<event>
 7    1  0.5041278E-013  0.5052889E+02  0.7816164E-02  0.1300439E+00
        -11   -1    0    0    0    0  0.00000000000E+00  0.00000000000E+00  0.45593999997E+02  0.45594000000E+02  0.51100000000E-03 0.  1.
         11   -1    0    0    0    0 -0.00000000000E+00 -0.00000000000E+00 -0.45593999997E+02  0.45594000000E+02  0.51100000000E-03 0. -1.
    9900012    2    1    2    0    0 -0.34876508368E+02 -0.18015006268E+02 -0.10594893917E+02  0.50528891993E+02  0.30000097703E+02 0.  0.
        -12    1    1    2    0    0  0.34876508368E+02  0.18015006268E+02  0.10594893917E+02  0.40659108007E+02  0.00000000000E+00 0.  1.
         11    1    3    3    0    0 -0.10086775713E+02 -0.13054124712E+02 -0.82773044558E+01  0.18457166240E+02  0.51100000000E-03 0. -1.
        -11    1    3    3    0    0 -0.21201396373E+02 -0.76763035489E+01 -0.87796181248E+01  0.24197242385E+02  0.51100000000E-03 0.  1.
        -12    1    3    3    0    0 -0.35883362821E+01  0.27154219929E+01  0.64620286641E+01  0.78744833690E+01  0.00000000000E+00 0.  1.
</event>
<event>
 7    1  0.5041278E-013  0.5052886E+02  0.7816164E-02  0.1300439E+00
        -11   -1    0    0    0    0  0.00000000000E+00  0.00000000000E+00  0.45593999997E+02  0.45594000000E+02  0.51100000000E-03 0.  1.
         11   -1    0    0    0    0 -0.00000000000E+00 -0.00000000000E+00 -0.45593999997E+02  0.45594000000E+02  0.51100000000E-03 0. -1.
    9900012    2    1    2    0    0 -0.65702369064E+01  0.97070549616E+01 -0.38932901448E+02  0.50528859033E+02  0.29999997517E+02 0.  0.
        -12    1    1    2    0    0  0.65702369064E+01 -0.97070549616E+01  0.38932901448E+02  0.40659140967E+02  0.00000000000E+00 0.  1.
         11    1    3    3    0    0 -0.94413768735E+00  0.13169486393E+01 -0.16106011593E+02  0.16187320945E+02  0.51100000000E-03 0. -1.
        -11    1    3    3    0    0 -0.32370400480E+01  0.16469221940E+02 -0.18086277992E+02  0.24674423021E+02  0.51100000000E-03 0.  1.
         12    1    3    3    0    0 -0.23890591711E+01 -0.80791156173E+01 -0.47406118631E+01  0.96671150670E+01  0.00000000000E+00 0. -1.
</event>
<event>
 7    1  0.5041278E-013  0.5052886E+02  0.7816164E-02  0.1300439E+00
        -11   -1    0    0    0    0  0.00000000000E+00  0.00000000000E+00  0.45593999997E+02  0.45594000000E+02  0.51100000000E-03 0.  1.
         11   -1    0    0    0    0 -0.00000000000E+00 -0.00000000000E+00 -0.45593999997E+02  0.45594000000E+02  0.51100000000E-03 0. -1.
    9900012    2    1    2    0    0 -0.32082707265E+02  0.11052363899E+01  0.24952838294E+02  0.50528858447E+02  0.29999995736E+02 0.  0.
        -12    1    1    2    0    0  0.32082707265E+02 -0.11052363899E+01 -0.24952838294E+02  0.40659141553E+02  0.00000000000E+00 0.  1.
         11    1    3    3    0    0 -0.56023984048E+01  0.63577394344E+01  0.32169603237E+01  0.90640251868E+01  0.51100000000E-03 0. -1.
        -11    1    3    3    0    0 -0.15140850054E+02  0.24687126545E+01  0.23044728449E+02  0.27683919377E+02  0.51100000000E-03 0.  1.
        -12    1    3    3    0    0 -0.11339458806E+02 -0.77212156990E+01 -0.13088504790E+01  0.13780913883E+02  0.00000000000E+00 0.  1.
</event>
<event>
 7    1  0.5041278E-013  0.5052886E+02  0.7816164E-02  0.1300439E+00
        -11   -1    0    0    0    0  0.00000000000E+00  0.00000000000E+00  0.45593999997E+02  0.45594000000E+02  0.51100000000E-03 0.  1.
         11   -1    0    0    0    0 -0.00000000000E+00 -0.00000000000E+00 -0.45593999997E+02  0.45594000000E+02  0.51100000000E-03 0. -1.
    9900012    2    1    2    0    0 -0.16051730714E+02 -0.57251916458E+00 -0.37352102427E+02  0.50528863354E+02  0.30000010649E+02 0.  0.
        -12    1    1    2    0    0  0.16051730714E+02  0.57251916458E+00  0.37352102427E+02  0.40659136646E+02  0.00000000000E+00 0.  1.
         11    1    3    3    0    0  0.42453633563E+00 -0.24428968465E+01 -0.99445374435E+01  0.10248990259E+02  0.51100000000E-03 0. -1.
        -11    1    3    3    0    0 -0.64733808772E+01 -0.10268353762E+02 -0.18719916406E+02  0.22310961868E+02  0.51100000000E-03 0.  1.
         12    1    3    3    0    0 -0.10002886172E+02  0.12138731444E+02 -0.86876485773E+01  0.17968911226E+02  0.00000000000E+00 0. -1.
</event>
<event>
 7    1  0.5041278E-013  0.5052886E+02  0.7816164E-02  0.1300439E+00
        -11   -1    0    0    0    0  0.00000000000E+00  0.00000000000E+00  0.45593999997E+02  0.45594000000E+02  0.51100000000E-03 0. -1.
         11   -1    0    0    0    0 -0.00000000000E+00 -0.00000000000E+00 -0.45593999997E+02  0.45594000000E+02  0.51100000000E-03 0.  1.
    9900012    2    1    2    0    0 -0.15300216944E+02 -0.84736935738E+01  0.36705114374E+02  0.50528861513E+02  0.30000005054E+02 0.  0.
        -12    1    1    2    0    0  0.15300216944E+02  0.84736935738E+01 -0.36705114374E+02  0.40659138487E+02  0.00000000000E+00 0.  1.
         11    1    3    3    0    0 -0.70023358026E+01 -0.21648264223E+01  0.11845688151E+02  0.13929806465E+02  0.51100000000E-03 0. -1.
        -11    1    3    3    0    0 -0.87146487853E+01 -0.54904694549E+01 -0.13370929374E+01  0.10386441935E+02  0.51100000000E-03 0.  1.
         12    1    3    3    0    0  0.41676764352E+00 -0.81839769662E+00  0.26196519160E+02  0.26212613112E+02  0.00000000000E+00 0. -1.
</event>
<event>
 7    1  0.5041278E-013  0.5052889E+02  0.7816164E-02  0.1300439E+00
        -11   -1    0    0    0    0  0.00000000000E+00  0.00000000000E+00  0.45593999997E+02  0.45594000000E+02  0.51100000000E-03 0.  1.
         11   -1    0    0    0    0 -0.00000000000E+00 -0.00000000000E+00 -0.45593999997E+02  0.45594000000E+02  0.51100000000E-03 0. -1.
    9900012    2    1    2    0    0  0.37712301770E+02  0.48501928207E+01  0.14402109288E+02  0.50528894905E+02  0.30000106553E+02 0.  0.
        -12    1    1    2    0    0 -0.37712301770E+02 -0.48501928207E+01 -0.14402109288E+02  0.40659105095E+02  0.00000000000E+00 0.  1.
         11    1    3    3    0    0  0.31111271495E+02  0.73009598289E+01  0.36938897729E+01  0.32169240749E+02  0.51100000000E-03 0. -1.
        -11    1    3    3    0    0  0.16031847037E+01  0.37248013039E+01 -0.10316195248E+01  0.41843261170E+01  0.51100000000E-03 0.  1.
         12    1    3    3    0    0  0.49978455713E+01 -0.61755683121E+01  0.11739839040E+02  0.14175328039E+02  0.00000000000E+00 0. -1.
</event>
<event>
 7    1  0.5041278E-013  0.5052886E+02  0.7816164E-02  0.1300439E+00
        -11   -1    0    0    0    0  0.00000000000E+00  0.00000000000E+00  0.45593999997E+02  0.45594000000E+02  0.51100000000E-03 0. -1.
         11   -1    0    0    0    0 -0.00000000000E+00 -0.00000000000E+00 -0.45593999997E+02  0.45594000000E+02  0.51100000000E-03 0.  1.
    9900012    2    1    2    0    0 -0.27698967067E+02  0.24139785300E+02  0.17412745273E+02  0.50528859468E+02  0.29999998838E+02 0.  0.
        -12    1    1    2    0    0  0.27698967067E+02 -0.24139785300E+02 -0.17412745273E+02  0.40659140532E+02  0.00000000000E+00 0.  1.
         11    1    3    3    0    0 -0.68509698828E+01  0.10846351212E+02  0.10789110861E+01  0.12874128022E+02  0.51100000000E-03 0. -1.
        -11    1    3    3    0    0 -0.24793873186E+02  0.15599854924E+02  0.14898028586E+02  0.32864005800E+02  0.51100000000E-03 0.  1.
        -12    1    3    3    0    0  0.39458760018E+01 -0.23064208350E+01  0.14358056008E+01  0.47907256458E+01  0.00000000000E+00 0.  1.
</event>
<event>
 7    1  0.5041278E-013  0.5052886E+02  0.7816164E-02  0.1300439E+00
        -11   -1    0    0    0    0  0.00000000000E+00  0.00000000000E+00  0.45593999997E+02  0.45594000000E+02  0.51100000000E-03 0. -1.
         11   -1    0    0    0    0 -0.00000000000E+00 -0.00000000000E+00 -0.45593999997E+02  0.45594000000E+02  0.51100000000E-03 0.  1.
    9900012    2    1    2    0    0 -0.28338475523E+02  0.12389426694E+02  0.26393159380E+02  0.50528856492E+02  0.29999989792E+02 0.  0.
        -12    1    1    2    0    0  0.28338475523E+02 -0.12389426694E+02 -0.26393159380E+02  0.40659143508E+02  0.00000000000E+00 0.  1.
         11    1    3    3    0    0  0.18489522763E+01 -0.20808853873E+01 -0.35878722108E+01  0.45410941168E+01  0.51100000000E-03 0.  1.
        -11    1    3    3    0    0 -0.78863631236E+01 -0.22445260005E+00  0.45401384363E+01  0.91026347597E+01  0.51100000000E-03 0. -1.
         12    1    3    3    0    0 -0.22301064676E+02  0.14694764681E+02  0.25440893154E+02  0.36885127615E+02  0.00000000000E+00 0. -1.
</event>
<event>
 7    1  0.5041278E-013  0.5052885E+02  0.7816164E-02  0.1300439E+00
        -11   -1    0    0    0    0  0.00000000000E+00  0.00000000000E+00  0.45593999997E+02  0.45594000000E+02  0.51100000000E-03 0. -1.
         11   -1    0    0    0    0 -0.00000000000E+00 -0.00000000000E+00 -0.45593999997E+02  0.45594000000E+02  0.51100000000E-03 0.  1.
    9900012    2    1    2    0    0  0.96088290685E+01 -0.21487448056E+02  0.33153076113E+02  0.50528850036E+02  0.29999970170E+02 0.  0.
        -12    1    1    2    0    0 -0.96088290685E+01  0.21487448056E+02 -0.33153076113E+02  0.40659149964E+02  0.00000000000E+00 0.  1.
         11    1    3    3    0    0 -0.35282022909E+01 -0.10538225750E+02  0.79633914267E+01  0.13671796394E+02  0.51100000000E-03 0. -1.
        -11    1    3    3    0    0 -0.29681183830E+01 -0.29673475515E+01 -0.16873203946E+01  0.45234863327E+01  0.51100000000E-03 0.  1.
         12    1    3    3    0    0  0.16105149742E+02 -0.79818747545E+01  0.26877005081E+02  0.32333567309E+02  0.00000000000E+00 0. -1.
</event>
<event>
 7    1  0.5041278E-013  0.5052886E+02  0.7816164E-02  0.1300439E+00
        -11   -1    0    0    0    0  0.00000000000E+00  0.00000000000E+00  0.45593999997E+02  0.45594000000E+02  0.51100000000E-03 0. -1.
         11   -1    0    0    0    0 -0.00000000000E+00 -0.00000000000E+00 -0.45593999997E+02  0.45594000000E+02  0.51100000000E-03 0.  1.
    9900012    2    1    2    0    0  0.19677986184E+02  0.35358206471E+02  0.39673587329E+01  0.50528857850E+02  0.29999993920E+02 0.  0.
        -12    1    1    2    0    0 -0.19677986184E+02 -0.35358206471E+02 -0.39673587329E+01  0.40659142150E+02  0.00000000000E+00 0.  1.
         11    1    3    3    0    0  0.52113295953E+01 -0.43565709383E+00  0.30650720755E+01  0.60615526347E+01  0.51100000000E-03 0. -1.
        -11    1    3    3    0    0 -0.54455804161E+01  0.34600160578E+01 -0.47229975268E+00  0.64690899287E+01  0.51100000000E-03 0.  1.
         12    1    3    3    0    0  0.19912237005E+02  0.32333847507E+02  0.13745864101E+01  0.37998215286E+02  0.00000000000E+00 0. -1.
</event>
<event>
 7    1  0.5041278E-013  0.5052886E+02  0.7816164E-02  0.1300439E+00
        -11   -1    0    0    0    0  0.00000000000E+00  0.00000000000E+00  0.45593999997E+02  0.45594000000E+02  0.51100000000E-03 0. -1.
         11   -1    0    0    0    0 -0.00000000000E+00 -0.00000000000E+00 -0.45593999997E+02  0.45594000000E+02  0.51100000000E-03 0.  1.
    9900012    2    1    2    0    0  0.33842110987E+02  0.35530151900E+01  0.22254292917E+02  0.50528856548E+02  0.29999989965E+02 0.  0.
        -12    1    1    2    0    0 -0.33842110987E+02 -0.35530151900E+01 -0.22254292917E+02  0.40659143452E+02  0.00000000000E+00 0.  1.
         11    1    3    3    0    0  0.43809099257E+01  0.77487879064E+01  0.43310829606E+00  0.89119957840E+01  0.51100000000E-03 0. -1.
        -11    1    3    3    0    0 -0.38336685051E+00 -0.47662290349E+01  0.24964244367E+00  0.47881343930E+01  0.51100000000E-03 0.  1.
         12    1    3    3    0    0  0.29844567912E+02  0.57045631840E+00  0.21571542177E+02  0.36828726371E+02  0.00000000000E+00 0. -1.
</event>
<event>
 7    1  0.5041278E-013  0.5052886E+02  0.7816164E-02  0.1300439E+00
        -11   -1    0    0    0    0  0.00000000000E+00  0.00000000000E+00  0.45593999997E+02  0.45594000000E+02  0.51100000000E-03 0. -1.
         11   -1    0    0    0    0 -0.00000000000E+00 -0.00000000000E+00 -0.45593999997E+02  0.45594000000E+02  0.51100000000E-03 0.  1.
    9900012    2    1    2    0    0 -0.24840100831E+02 -0.26439396967E+02  0.18360101294E+02  0.50528860304E+02  0.30000001380E+02 0.  0.
        -12    1    1    2    0    0  0.24840100831E+02  0.26439396967E+02 -0.18360101294E+02  0.40659139696E+02  0.00000000000E+00 0.  1.
         11    1    3    3    0    0 -0.18048836211E+01  0.10346729709E+00 -0.24257665344E+01  0.30253353380E+01  0.51100000000E-03 0. -1.
        -11    1    3    3    0    0 -0.90364467113E+00 -0.19191111398E+02  0.72205902302E+01  0.20524430660E+02  0.51100000000E-03 0.  1.
         12    1    3    3    0    0 -0.22131572539E+02 -0.73517528667E+01  0.13565277598E+02  0.26979094306E+02  0.00000000000E+00 0. -1.
</event>
<event>
 7    1  0.5041278E-013  0.5052886E+02  0.7816164E-02  0.1300439E+00
        -11   -1    0    0    0    0  0.00000000000E+00  0.00000000000E+00  0.45593999997E+02  0.45594000000E+02  0.51100000000E-03 0.  1.
         11   -1    0    0    0    0 -0.00000000000E+00 -0.00000000000E+00 -0.45593999997E+02  0.45594000000E+02  0.51100000000E-03 0. -1.
    9900012    2    1    2    0    0 -0.63682738775E+01  0.37203496993E+02  0.15116562684E+02  0.50528861199E+02  0.30000004100E+02 0.  0.
        -12    1    1    2    0    0  0.63682738775E+01 -0.37203496993E+02 -0.15116562684E+02  0.40659138801E+02  0.00000000000E+00 0.  1.
         11    1    3    3    0    0 -0.10775269403E+02  0.14412056399E+02  0.66301047924E+01  0.19177384863E+02  0.51100000000E-03 0. -1.
        -11    1    3    3    0    0 -0.23507616362E+01 -0.28319680849E+01  0.95250962613E+00  0.38017625324E+01  0.51100000000E-03 0.  1.
        -12    1    3    3    0    0  0.67577571621E+01  0.25623408679E+02  0.75339482651E+01  0.27549713803E+02  0.00000000000E+00 0.  1.
</event>
<event>
 7    1  0.5041278E-013  0.5052885E+02  0.7816164E-02  0.1300439E+00
        -11   -1    0    0    0    0  0.00000000000E+00  0.00000000000E+00  0.45593999997E+02  0.45594000000E+02  0.51100000000E-03 0. -1.
         11   -1    0    0    0    0 -0.00000000000E+00 -0.00000000000E+00 -0.45593999997E+02  0.45594000000E+02  0.51100000000E-03 0.  1.
    9900012    2    1    2    0    0  0.93998819412E+01 -0.28425314614E+02  0.27510176179E+02  0.50528854844E+02  0.29999984783E+02 0.  0.
        -12    1    1    2    0    0 -0.93998819412E+01  0.28425314614E+02 -0.27510176179E+02  0.40659145156E+02  0.00000000000E+00 0.  1.
         11    1    3    3    0    0  0.87025909071E+01 -0.17257648722E+02  0.67643159477E+01  0.20477243428E+02  0.51100000000E-03 0. -1.
        -11    1    3    3    0    0  0.54877404248E+01  0.36983429205E+00 -0.37483535229E+00  0.55129460523E+01  0.51100000000E-03 0.  1.
         12    1    3    3    0    0 -0.47904493906E+01 -0.11537500184E+02  0.21120695584E+02  0.24538665363E+02  0.00000000000E+00 0. -1.
</event>
<event>
 7    1  0.5041278E-013  0.5052885E+02  0.7816164E-02  0.1300439E+00
        -11   -1    0    0    0    0  0.00000000000E+00  0.00000000000E+00  0.45593999997E+02  0.45594000000E+02  0.51100000000E-03 0.  1.
         11   -1    0    0    0    0 -0.00000000000E+00 -0.00000000000E+00 -0.45593999997E+02  0.45594000000E+02  0.51100000000E-03 0. -1.
    9900012    2    1    2    0    0  0.31645091276E+02 -0.12765079446E+02 -0.22108991227E+02  0.50528849146E+02  0.29999967463E+02 0.  0.
        -12    1    1    2    0    0 -0.31645091276E+02  0.12765079446E+02  0.22108991227E+02  0.40659150854E+02  0.00000000000E+00 0.  1.
         11    1    3    3    0    0 -0.52634337371E-01  0.51877454078E+01  0.48559492359E+00  0.52106885802E+01  0.51100000000E-03 0. -1.
        -11    1    3    3    0    0  0.14674059023E+02 -0.98533626882E+01 -0.26483851265E+01  0.17872624556E+02  0.51100000000E-03 0.  1.
         12    1    3    3    0    0  0.17023666590E+02 -0.80994621656E+01 -0.19946201024E+02  0.27445536009E+02  0.00000000000E+00 0. -1.
</event>
<event>
 7    1  0.5041278E-013  0.5052889E+02  0.7816164E-02  0.1300439E+00
        -11   -1    0    0    0    0  0.00000000000E+00  0.00000000000E+00  0.45593999997E+02  0.45594000000E+02  0.51100000000E-03 0.  1.
         11   -1    0    0    0    0 -0.00000000000E+00 -0.00000000000E+00 -0.45593999997E+02  0.45594000000E+02  0.51100000000E-03 0. -1.
    9900012    2    1    2    0    0  0.30100137788E+02 -0.16514109463E+02 -0.21781384840E+02  0.50528894848E+02  0.30000106380E+02 0.  0.
        -12    1    1    2    0    0 -0.30100137788E+02  0.16514109463E+02  0.21781384840E+02  0.40659105152E+02  0.00000000000E+00 0.  1.
         11    1    3    3    0    0  0.68135919760E+01 -0.97909390321E+01 -0.46191488872E+01  0.12791562041E+02  0.51100000000E-03 0.  1.
        -11    1    3    3    0    0  0.46583898729E+01 -0.37135889174E+01  0.55961801653E+01  0.81736510544E+01  0.51100000000E-03 0. -1.
         12    1    3    3    0    0  0.18628155939E+02 -0.30095815138E+01 -0.22758416118E+02  0.29563681753E+02  0.00000000000E+00 0. -1.
</event>
<event>
 7    1  0.5041278E-013  0.5052887E+02  0.7816164E-02  0.1300439E+00
        -11   -1    0    0    0    0  0.00000000000E+00  0.00000000000E+00  0.45593999997E+02  0.45594000000E+02  0.51100000000E-03 0. -1.
         11   -1    0    0    0    0 -0.00000000000E+00 -0.00000000000E+00 -0.45593999997E+02  0.45594000000E+02  0.51100000000E-03 0.  1.
    9900012    2    1    2    0    0  0.10087343392E+02 -0.28362648385E+02  0.27330763871E+02  0.50528868506E+02  0.30000026310E+02 0.  0.
        -12    1    1    2    0    0 -0.10087343392E+02  0.28362648385E+02 -0.27330763871E+02  0.40659131494E+02  0.00000000000E+00 0.  1.
         11    1    3    3    0    0  0.13884108396E+02 -0.16470321462E+02  0.15666618535E+02  0.26636120056E+02  0.51100000000E-03 0. -1.
        -11    1    3    3    0    0  0.24034057248E+01  0.23993724369E+01 -0.12889988362E+01  0.36324737342E+01  0.51100000000E-03 0.  1.
         12    1    3    3    0    0 -0.62001707281E+01 -0.14291699360E+02  0.12953144171E+02  0.20260274716E+02  0.00000000000E+00 0. -1.
</event>
<event>
 7    1  0.5041278E-013  0.5052885E+02  0.7816164E-02  0.1300439E+00
        -11   -1    0    0    0    0  0.00000000000E+00  0.00000000000E+00  0.45593999997E+02  0.45594000000E+02  0.51100000000E-03 0.  1.
         11   -1    0    0    0    0 -0.00000000000E+00 -0.00000000000E+00 -0.45593999997E+02  0.45594000000E+02  0.51100000000E-03 0. -1.
    9900012    2    1    2    0    0 -0.16604453425E+01  0.32846676149E+02 -0.23906168796E+02  0.50528854420E+02  0.29999983496E+02 0.  0.
        -12    1    1    2    0    0  0.16604453425E+01 -0.32846676149E+02  0.23906168796E+02  0.40659145580E+02  0.00000000000E+00 0.  1.
         11    1    3    3    0    0  0.88546659920E+00  0.20662636773E+02 -0.11058837991E+02  0.23452643934E+02  0.51100000000E-03 0. -1.
        -11    1    3    3    0    0 -0.45097851992E+01  0.66828635421E+01  0.41753498824E+01  0.90792276415E+01  0.51100000000E-03 0.  1.
        -12    1    3    3    0    0  0.19638732574E+01  0.55011758338E+01 -0.17022680688E+02  0.17996982845E+02  0.00000000000E+00 0.  1.
</event>
<event>
 7    1  0.5041278E-013  0.5052884E+02  0.7816164E-02  0.1300439E+00
        -11   -1    0    0    0    0  0.00000000000E+00  0.00000000000E+00  0.45593999997E+02  0.45594000000E+02  0.51100000000E-03 0. -1.
         11   -1    0    0    0    0 -0.00000000000E+00 -0.00000000000E+00 -0.45593999997E+02  0.45594000000E+02  0.51100000000E-03 0.  1.
    9900012    2    1    2    0    0  0.20138287537E+02 -0.35018721298E+02 -0.46158611079E+01  0.50528835719E+02  0.29999926650E+02 0.  0.
        -12    1    1    2    0    0 -0.20138287537E+02  0.35018721298E+02  0.46158611079E+01  0.40659164281E+02  0.00000000000E+00 0.  1.
         11    1    3    3    0    0  0.37395845977E+01 -0.26387257536E+01  0.62460348995E+01  0.77434048579E+01  0.51100000000E-03 0. -1.
        -11    1    3    3    0    0  0.24268803936E+01  0.78792904256E+00 -0.59336209753E+01  0.64589812479E+01  0.51100000000E-03 0.  1.
         12    1    3    3    0    0  0.13971822546E+02 -0.33167924587E+02 -0.49282750321E+01  0.36326449613E+02  0.00000000000E+00 0. -1.
</event>
<event>
 7    1  0.5041278E-013  0.5052889E+02  0.7816164E-02  0.1300439E+00
        -11   -1    0    0    0    0  0.00000000000E+00  0.00000000000E+00  0.45593999997E+02  0.45594000000E+02  0.51100000000E-03 0.  1.
         11   -1    0    0    0    0 -0.00000000000E+00 -0.00000000000E+00 -0.45593999997E+02  0.45594000000E+02  0.51100000000E-03 0. -1.
    9900012    2    1    2    0    0 -0.37445759684E+02 -0.12511500964E+02 -0.97180519608E+01  0.50528891443E+02  0.30000096031E+02 0.  0.
        -12    1    1    2    0    0  0.37445759684E+02  0.12511500964E+02  0.97180519608E+01  0.40659108557E+02  0.00000000000E+00 0.  1.
         11    1    3    3    0    0 -0.28711296637E+02 -0.10451406377E+02 -0.17697939715E+01  0.30605597867E+02  0.51100000000E-03 0. -1.
        -11    1    3    3    0    0 -0.87227037120E+01 -0.43513642803E+01 -0.11883239711E+02  0.15369818393E+02  0.51100000000E-03 0.  1.
        -12    1    3    3    0    0 -0.11759335059E-01  0.22912696935E+01  0.39349817218E+01  0.45534751829E+01  0.00000000000E+00 0.  1.
</event>
<event>
 7    1  0.5041278E-013  0.5052889E+02  0.7816164E-02  0.1300439E+00
        -11   -1    0    0    0    0  0.00000000000E+00  0.00000000000E+00  0.45593999997E+02  0.45594000000E+02  0.51100000000E-03 0.  1.
         11   -1    0    0    0    0 -0.00000000000E+00 -0.00000000000E+00 -0.45593999997E+02  0.45594000000E+02  0.51100000000E-03 0. -1.
    9900012    2    1    2    0    0  0.55638951043E+01 -0.37942318858E+02  0.13512453649E+02  0.50528894099E+02  0.30000104103E+02 0.  0.
        -12    1    1    2    0    0 -0.55638951043E+01  0.37942318858E+02 -0.13512453649E+02  0.40659105901E+02  0.00000000000E+00 0.  1.
         11    1    3    3    0    0 -0.40337429354E+01 -0.59339278881E+01  0.61188980429E+01  0.94299255443E+01  0.51100000000E-03 0. -1.
        -11    1    3    3    0    0  0.80107120555E+01 -0.10597216396E+02  0.13334397601E+02  0.18822291641E+02  0.51100000000E-03 0.  1.
         12    1    3    3    0    0  0.15869259842E+01 -0.21411174574E+02 -0.59408419944E+01  0.22276676913E+02  0.00000000000E+00 0. -1.
</event>
<event>
 7    1  0.5041278E-013  0.5052886E+02  0.7816164E-02  0.1300439E+00
        -11   -1    0    0    0    0  0.00000000000E+00  0.00000000000E+00  0.45593999997E+02  0.45594000000E+02  0.51100000000E-03 0.  1.
         11   -1    0    0    0    0 -0.00000000000E+00 -0.00000000000E+00 -0.45593999997E+02  0.45594000000E+02  0.51100000000E-03 0. -1.
    9900012    2    1    2    0    0 -0.34796039333E+02 -0.19301507833E+02 -0.83578383647E+01  0.50528855641E+02  0.29999987206E+02 0.  0.
        -12    1    1    2    0    0  0.34796039333E+02  0.19301507833E+02  0.83578383647E+01  0.40659144359E+02  0.00000000000E+00 0.  1.
         11    1    3    3    0    0 -0.97696348731E+01 -0.12527922343E+02 -0.13310129782E+02  0.20725688381E+02  0.51100000000E-03 0. -1.
        -11    1    3    3    0    0  0.17446554180E+01 -0.96126116851E+00  0.42623880611E+00  0.20370383754E+01  0.51100000000E-03 0.  1.
        -12    1    3    3    0    0 -0.26771059878E+02 -0.58123243217E+01  0.45260526111E+01  0.27766128885E+02  0.00000000000E+00 0.  1.
</event>
<event>
 7    1  0.5041278E-013  0.5052886E+02  0.7816164E-02  0.1300439E+00
        -11   -1    0    0    0    0  0.00000000000E+00  0.00000000000E+00  0.45593999997E+02  0.45594000000E+02  0.51100000000E-03 0. -1.
         11   -1    0    0    0    0 -0.00000000000E+00 -0.00000000000E+00 -0.45593999997E+02  0.45594000000E+02  0.51100000000E-03 0.  1.
    9900012    2    1    2    0    0  0.27779653426E+02  0.29675765597E+02 -0.89749733009E+00  0.50528859457E+02  0.29999998806E+02 0.  0.
        -12    1    1    2    0    0 -0.27779653426E+02 -0.29675765597E+02  0.89749733009E+00  0.40659140543E+02  0.00000000000E+00 0.  1.
         11    1    3    3    0    0  0.72208089786E+01 -0.60915411689E+00 -0.66838044428E+01  0.98582145003E+01  0.51100000000E-03 0. -1.
        -11    1    3    3    0    0  0.18659635773E+02  0.17376021406E+02 -0.18295417380E+01  0.25562772743E+02  0.51100000000E-03 0.  1.
         12    1    3    3    0    0  0.18992086740E+01  0.12908898308E+02  0.76158488507E+01  0.15107872214E+02  0.00000000000E+00 0. -1.
</event>
<event>
 7    1  0.5041278E-013  0.5052887E+02  0.7816164E-02  0.1300439E+00
        -11   -1    0    0    0    0  0.00000000000E+00  0.00000000000E+00  0.45593999997E+02  0.45594000000E+02  0.51100000000E-03 0.  1.
         11   -1    0    0    0    0 -0.00000000000E+00 -0.00000000000E+00 -0.45593999997E+02  0.45594000000E+02  0.51100000000E-03 0. -1.
    9900012    2    1    2    0    0 -0.34145262592E+02 -0.95969826801E+00 -0.22053232150E+02  0.50528867858E+02  0.30000024343E+02 0.  0.
        -12    1    1    2    0    0  0.34145262592E+02  0.95969826801E+00  0.22053232150E+02  0.40659132142E+02  0.00000000000E+00 0.  1.
         11    1    3    3    0    0 -0.11662933966E+02  0.36302881945E+01 -0.86997283003E+01  0.14996275999E+02  0.51100000000E-03 0. -1.
        -11    1    3    3    0    0 -0.26842489040E+01 -0.84720893915E+01 -0.12502830349E+02  0.15339565112E+02  0.51100000000E-03 0.  1.
         12    1    3    3    0    0 -0.19798079722E+02  0.38821029290E+01 -0.85067350112E+00  0.20193026748E+02  0.00000000000E+00 0. -1.
</event>
<event>
 7    1  0.5041278E-013  0.5052886E+02  0.7816164E-02  0.1300439E+00
        -11   -1    0    0    0    0  0.00000000000E+00  0.00000000000E+00  0.45593999997E+02  0.45594000000E+02  0.51100000000E-03 0.  1.
         11   -1    0    0    0    0 -0.00000000000E+00 -0.00000000000E+00 -0.45593999997E+02  0.45594000000E+02  0.51100000000E-03 0. -1.
    9900012    2    1    2    0    0  0.29639316993E+02 -0.59326786968E+01 -0.27193375177E+02  0.50528862751E+02  0.30000008817E+02 0.  0.
        -12    1    1    2    0    0 -0.29639316993E+02  0.59326786968E+01  0.27193375177E+02  0.40659137249E+02  0.00000000000E+00 0.  1.
         11    1    3    3    0    0  0.16715421937E+02  0.52178624275E+01 -0.32712686700E+01  0.17813832204E+02  0.51100000000E-03 0. -1.
        -11    1    3    3    0    0  0.11452562370E+01 -0.32372858497E+01  0.13837659251E+01  0.37022209439E+01  0.51100000000E-03 0.  1.
         12    1    3    3    0    0  0.11778638819E+02 -0.79132552745E+01 -0.25305872432E+02  0.29012809602E+02  0.00000000000E+00 0. -1.
</event>
<event>
 7    1  0.5041278E-013  0.5052886E+02  0.7816164E-02  0.1300439E+00
        -11   -1    0    0    0    0  0.00000000000E+00  0.00000000000E+00  0.45593999997E+02  0.45594000000E+02  0.51100000000E-03 0.  1.
         11   -1    0    0    0    0 -0.00000000000E+00 -0.00000000000E+00 -0.45593999997E+02  0.45594000000E+02  0.51100000000E-03 0. -1.
    9900012    2    1    2    0    0  0.51736252948E+01  0.38643775202E+02 -0.11535072474E+02  0.50528860098E+02  0.30000000755E+02 0.  0.
        -12    1    1    2    0    0 -0.51736252948E+01 -0.38643775202E+02  0.11535072474E+02  0.40659139902E+02  0.00000000000E+00 0.  1.
         11    1    3    3    0    0  0.13217460863E+01  0.12114803917E+02 -0.38228431375E+01  0.12772220503E+02  0.51100000000E-03 0. -1.
        -11    1    3    3    0    0 -0.98537088037E+01  0.17590225138E+02 -0.13734333188E+01  0.20208857388E+02  0.51100000000E-03 0.  1.
        -12    1    3    3    0    0  0.13705588012E+02  0.89387461470E+01 -0.63387960176E+01  0.17547782207E+02  0.00000000000E+00 0.  1.
</event>
<event>
 7    1  0.5041278E-013  0.5052886E+02  0.7816164E-02  0.1300439E+00
        -11   -1    0    0    0    0  0.00000000000E+00  0.00000000000E+00  0.45593999997E+02  0.45594000000E+02  0.51100000000E-03 0. -1.
         11   -1    0    0    0    0 -0.00000000000E+00 -0.00000000000E+00 -0.45593999997E+02  0.45594000000E+02  0.51100000000E-03 0.  1.
    9900012    2    1    2    0    0 -0.39537565854E+02  0.72383696093E+01  0.61280171220E+01  0.50528859550E+02  0.29999999088E+02 0.  0.
        -12    1    1    2    0    0  0.39537565854E+02 -0.72383696093E+01 -0.61280171220E+01  0.40659140450E+02  0.00000000000E+00 0.  1.
         11    1    3    3    0    0 -0.60605985221E+01 -0.69164429490E+01  0.36524673817E+01  0.98948752265E+01  0.51100000000E-03 0. -1.
        -11    1    3    3    0    0 -0.94620174312E-01  0.54691598530E+01  0.27864140190E+01  0.61387918862E+01  0.51100000000E-03 0.  1.
         12    1    3    3    0    0 -0.33382347158E+02  0.86856527053E+01 -0.31086427868E+00  0.34495192437E+02  0.00000000000E+00 0. -1.
</event>
<event>
 7    1  0.5041278E-013  0.5052885E+02  0.7816164E-02  0.1300439E+00
        -11   -1    0    0    0    0  0.00000000000E+00  0.00000000000E+00  0.45593999997E+02  0.45594000000E+02  0.51100000000E-03 0.  1.
         11   -1    0    0    0    0 -0.00000000000E+00 -0.00000000000E+00 -0.45593999997E+02  0.45594000000E+02  0.51100000000E-03 0. -1.
    9900012    2    1    2    0    0 -0.10077503538E+02 -0.24430140277E+02 -0.30899489485E+02  0.50528852420E+02  0.29999977417E+02 0.  0.
        -12    1    1    2    0    0  0.10077503538E+02  0.24430140277E+02  0.30899489485E+02  0.40659147580E+02  0.00000000000E+00 0.  1.
         11    1    3    3    0    0  0.40759911220E+01 -0.76537767494E+01 -0.19039340663E+01  0.88780046939E+01  0.51100000000E-03 0. -1.
        -11    1    3    3    0    0 -0.16681589459E+02 -0.16358200775E+02 -0.15790333719E+02  0.28199304933E+02  0.51100000000E-03 0.  1.
        -12    1    3    3    0    0  0.25280947989E+01 -0.41816275172E+00 -0.13205221699E+02  0.13451542794E+02  0.00000000000E+00 0.  1.
</event>
<event>
 7    1  0.5041278E-013  0.5052887E+02  0.7816164E-02  0.1300439E+00
        -11   -1    0    0    0    0  0.00000000000E+00  0.00000000000E+00  0.45593999997E+02  0.45594000000E+02  0.51100000000E-03 0. -1.
         11   -1    0    0    0    0 -0.00000000000E+00 -0.00000000000E+00 -0.45593999997E+02  0.45594000000E+02  0.51100000000E-03 0.  1.
    9900012    2    1    2    0    0 -0.12543400189E+02  0.24817909682E+00  0.38675138826E+02  0.50528870098E+02  0.30000031149E+02 0.  0.
        -12    1    1    2    0    0  0.12543400189E+02 -0.24817909682E+00 -0.38675138826E+02  0.40659129902E+02  0.00000000000E+00 0.  1.
         11    1    3    3    0    0  0.34505270023E+01  0.26307600880E+01 -0.11630848363E+01  0.44921934321E+01  0.51100000000E-03 0. -1.
        -11    1    3    3    0    0 -0.20470431953E+01 -0.78112189745E+01  0.12851870477E+02  0.15178145563E+02  0.51100000000E-03 0.  1.
         12    1    3    3    0    0 -0.13946883996E+02  0.54286379833E+01  0.26986353186E+02  0.30858531103E+02  0.00000000000E+00 0. -1.
</event>
<event>
 7    1  0.5041278E-013  0.5052886E+02  0.7816164E-02  0.1300439E+00
        -11   -1    0    0    0    0  0.00000000000E+00  0.00000000000E+00  0.45593999997E+02  0.45594000000E+02  0.51100000000E-03 0.  1.
         11   -1    0    0    0    0 -0.00000000000E+00 -0.00000000000E+00 -0.45593999997E+02  0.45594000000E+02  0.51100000000E-03 0. -1.
    9900012    2    1    2    0    0  0.12352724654E+02 -0.12064385287E+02 -0.36810679851E+02  0.50528863882E+02  0.30000012257E+02 0.  0.
        -12    1    1    2    0    0 -0.12352724654E+02  0.12064385287E+02  0.36810679851E+02  0.40659136118E+02  0.00000000000E+00 0.  1.
         11    1    3    3    0    0  0.11187306981E+02  0.71178366669E+00 -0.11866805052E+02  0.16324323443E+02  0.51100000000E-03 0. -1.
        -11    1    3    3    0    0  0.71818467019E+01 -0.15269617522E+02 -0.18577929659E+02  0.25097402494E+02  0.51100000000E-03 0.  1.
        -12    1    3    3    0    0 -0.60164290289E+01  0.24934485675E+01 -0.63659451405E+01  0.91071379451E+01  0.00000000000E+00 0.  1.
</event>
<event>
 7    1  0.5041278E-013  0.5052886E+02  0.7816164E-02  0.1300439E+00
        -11   -1    0    0    0    0  0.00000000000E+00  0.00000000000E+00  0.45593999997E+02  0.45594000000E+02  0.51100000000E-03 0.  1.
         11   -1    0    0    0    0 -0.00000000000E+00 -0.00000000000E+00 -0.45593999997E+02  0.45594000000E+02  0.51100000000E-03 0. -1.
    9900012    2    1    2    0    0  0.87676218348E+00  0.12017702048E+02 -0.38832612011E+02  0.50528860437E+02  0.30000001783E+02 0.  0.
        -12    1    1    2    0    0 -0.87676218348E+00 -0.12017702048E+02  0.38832612011E+02  0.40659139563E+02  0.00000000000E+00 0.  1.
         11    1    3    3    0    0 -0.29210309727E+01  0.15685345500E+02 -0.21545923733E+02  0.26810246459E+02  0.51100000000E-03 0. -1.
        -11    1    3    3    0    0  0.61215463157E+01  0.14832067490E+01 -0.16921853069E+02  0.18056088810E+02  0.51100000000E-03 0.  1.
         12    1    3    3    0    0 -0.23237531596E+01 -0.51508502018E+01 -0.36483520861E+00  0.56625251679E+01  0.00000000000E+00 0. -1.
</event>
<event>
 7    1  0.5041278E-013  0.5052884E+02  0.7816164E-02  0.1300439E+00
        -11   -1    0    0    0    0  0.00000000000E+00  0.00000000000E+00  0.45593999997E+02  0.45594000000E+02  0.51100000000E-03 0. -1.
         11   -1    0    0    0    0 -0.00000000000E+00 -0.00000000000E+00 -0.45593999997E+02  0.45594000000E+02  0.51100000000E-03 0.  1.
    9900012    2    1    2    0    0 -0.27008080386E+02 -0.10738091922E+02  0.28432796738E+02  0.50528844148E+02  0.29999952273E+02 0.  0.
        -12    1    1    2    0    0  0.27008080386E+02  0.10738091922E+02 -0.28432796738E+02  0.40659155852E+02  0.00000000000E+00 0.  1.
         11    1    3    3    0    0  0.17718735092E+01  0.30813232114E+01  0.94639766470E+01  0.10109448190E+02  0.51100000000E-03 0. -1.
        -11    1    3    3    0    0 -0.35816705066E+01 -0.54019691596E+00 -0.27933207869E+01  0.45741466532E+01  0.51100000000E-03 0.  1.
         12    1    3    3    0    0 -0.25198283388E+02 -0.13279218217E+02  0.21762140878E+02  0.35845249305E+02  0.00000000000E+00 0. -1.
</event>
<event>
 7    1  0.5041278E-013  0.5052887E+02  0.7816164E-02  0.1300439E+00
        -11   -1    0    0    0    0  0.00000000000E+00  0.00000000000E+00  0.45593999997E+02  0.45594000000E+02  0.51100000000E-03 0. -1.
         11   -1    0    0    0    0 -0.00000000000E+00 -0.00000000000E+00 -0.45593999997E+02  0.45594000000E+02  0.51100000000E-03 0.  1.
    9900012    2    1    2    0    0  0.40597596599E+02  0.17608134960E+01 -0.13781075059E+01  0.50528874405E+02  0.30000044243E+02 0.  0.
        -12    1    1    2    0    0 -0.40597596599E+02 -0.17608134960E+01  0.13781075059E+01  0.40659125595E+02  0.00000000000E+00 0.  1.
         11    1    3    3    0    0  0.29846388707E+02 -0.28424202151E+01  0.45663708981E+01  0.30327182773E+02  0.51100000000E-03 0. -1.
        -11    1    3    3    0    0  0.11228957275E+02  0.36325260407E+01 -0.10330309595E+02  0.15684387891E+02  0.51100000000E-03 0.  1.
         12    1    3    3    0    0 -0.47774938215E+00  0.97070767039E+00  0.43858311913E+01  0.45173037414E+01  0.00000000000E+00 0. -1.
</event>
<event>
 7    1  0.5041278E-013  0.5052886E+02  0.7816164E-02  0.1300439E+00
        -11   -1    0    0    0    0  0.00000000000E+00  0.00000000000E+00  0.45593999997E+02  0.45594000000E+02  0.51100000000E-03 0. -1.
         11   -1    0    0    0    0 -0.00000000000E+00 -0.00000000000E+00 -0.45593999997E+02  0.45594000000E+02  0.51100000000E-03 0.  1.
    9900012    2    1    2    0    0  0.32072289071E+02  0.23523780663E+02  0.84359982480E+01  0.50528855280E+02  0.29999986110E+02 0.  0.
        -12    1    1    2    0    0 -0.32072289071E+02 -0.23523780663E+02 -0.84359982480E+01  0.40659144720E+02  0.00000000000E+00 0.  1.
         11    1    3    3    0    0 -0.62127729022E+00  0.34609573716E+01  0.27097163055E+01  0.44392312529E+01  0.51100000000E-03 0. -1.
        -11    1    3    3    0    0  0.11114528064E+02  0.47258439438E+01 -0.96632010695E+01  0.15467507564E+02  0.51100000000E-03 0.  1.
         12    1    3    3    0    0  0.21579038297E+02  0.15336979347E+02  0.15389483012E+02  0.30622116463E+02  0.00000000000E+00 0. -1.
</event>
<event>
 7    1  0.5041278E-013  0.5052884E+02  0.7816164E-02  0.1300439E+00
        -11   -1    0    0    0    0  0.00000000000E+00  0.00000000000E+00  0.45593999997E+02  0.45594000000E+02  0.51100000000E-03 0.  1.
         11   -1    0    0    0    0 -0.00000000000E+00 -0.00000000000E+00 -0.45593999997E+02  0.45594000000E+02  0.51100000000E-03 0. -1.
    9900012    2    1    2    0    0  0.19041450421E+02  0.20713677268E+02 -0.29351894701E+02  0.50528843803E+02  0.29999951223E+02 0.  0.
        -12    1    1    2    0    0 -0.19041450421E+02 -0.20713677268E+02  0.29351894701E+02  0.40659156197E+02  0.00000000000E+00 0.  1.
         11    1    3    3    0    0 -0.32907618692E+01  0.80383081985E+01  0.56432308776E+00  0.87041354069E+01  0.51100000000E-03 0. -1.
        -11    1    3    3    0    0  0.32854714150E+01  0.64306516455E+01 -0.15607676318E+02  0.17197301047E+02  0.51100000000E-03 0.  1.
        -12    1    3    3    0    0  0.19046740876E+02  0.62447174238E+01 -0.14308541471E+02  0.24627407349E+02  0.00000000000E+00 0.  1.
</event>
<event>
 7    1  0.5041278E-013  0.5052882E+02  0.7816164E-02  0.1300439E+00
        -11   -1    0    0    0    0  0.00000000000E+00  0.00000000000E+00  0.45593999997E+02  0.45594000000E+02  0.51100000000E-03 0.  1.
         11   -1    0    0    0    0 -0.00000000000E+00 -0.00000000000E+00 -0.45593999997E+02  0.45594000000E+02  0.51100000000E-03 0. -1.
    9900012    2    1    2    0    0  0.10291724487E+02  0.39010126038E+02 -0.50457092313E+01  0.50528822585E+02  0.29999886729E+02 0.  0.
        -12    1    1    2    0    0 -0.10291724487E+02 -0.39010126038E+02  0.50457092313E+01  0.40659177415E+02  0.00000000000E+00 0.  1.
         11    1    3    3    0    0  0.67961370203E+01  0.43301323692E+00 -0.38660305795E+01  0.78307835856E+01  0.51100000000E-03 0. -1.
        -11    1    3    3    0    0  0.10699439713E+02  0.25365800173E+02 -0.21861726907E+01  0.27616682999E+02  0.51100000000E-03 0.  1.
        -12    1    3    3    0    0 -0.72038522463E+01  0.13211312628E+02  0.10064940390E+01  0.15081356000E+02  0.00000000000E+00 0.  1.
</event>
<event>
 7    1  0.5041278E-013  0.5052886E+02  0.7816164E-02  0.1300439E+00
        -11   -1    0    0    0    0  0.00000000000E+00  0.00000000000E+00  0.45593999997E+02  0.45594000000E+02  0.51100000000E-03 0.  1.
         11   -1    0    0    0    0 -0.00000000000E+00 -0.00000000000E+00 -0.45593999997E+02  0.45594000000E+02  0.51100000000E-03 0. -1.
    9900012    2    1    2    0    0 -0.73151484006E+01  0.37645720393E+02 -0.13507558181E+02  0.50528858494E+02  0.29999995878E+02 0.  0.
        -12    1    1    2    0    0  0.73151484006E+01 -0.37645720393E+02  0.13507558181E+02  0.40659141506E+02  0.00000000000E+00 0.  1.
         11    1    3    3    0    0  0.21934268174E+01  0.11227253724E+02 -0.39433533009E+01  0.12100098466E+02  0.51100000000E-03 0. -1.
        -11    1    3    3    0    0 -0.12531195414E+02  0.21703103367E+02 -0.16126404933E+02  0.29801283371E+02  0.51100000000E-03 0.  1.
        -12    1    3    3    0    0  0.30226201956E+01  0.47153633019E+01  0.65622000528E+01  0.86274766559E+01  0.00000000000E+00 0.  1.
</event>
<event>
 7    1  0.5041278E-013  0.5052885E+02  0.7816164E-02  0.1300439E+00
        -11   -1    0    0    0    0  0.00000000000E+00  0.00000000000E+00  0.45593999997E+02  0.45594000000E+02  0.51100000000E-03 0.  1.
         11   -1    0    0    0    0 -0.00000000000E+00 -0.00000000000E+00 -0.45593999997E+02  0.45594000000E+02  0.51100000000E-03 0. -1.
    9900012    2    1    2    0    0 -0.22255683795E+01 -0.20087494472E+02 -0.35280387631E+02  0.50528851704E+02  0.29999975239E+02 0.  0.
        -12    1    1    2    0    0  0.22255683795E+01  0.20087494472E+02  0.35280387631E+02  0.40659148296E+02  0.00000000000E+00 0.  1.
         11    1    3    3    0    0  0.22075991922E+01 -0.14942607807E+02 -0.70599008307E+01  0.16673248702E+02  0.51100000000E-03 0. -1.
        -11    1    3    3    0    0  0.46079135972E+01 -0.31711397759E+01 -0.22012706627E+02  0.22712292894E+02  0.51100000000E-03 0.  1.
        -12    1    3    3    0    0 -0.90410811689E+01 -0.19737468883E+01 -0.62077801735E+01  0.11143310108E+02  0.00000000000E+00 0.  1.
</event>
<event>
 7    1  0.5041278E-013  0.5052886E+02  0.7816164E-02  0.1300439E+00
        -11   -1    0    0    0    0  0.00000000000E+00  0.00000000000E+00  0.45593999997E+02  0.45594000000E+02  0.51100000000E-03 0.  1.
         11   -1    0    0    0    0 -0.00000000000E+00 -0.00000000000E+00 -0.45593999997E+02  0.45594000000E+02  0.51100000000E-03 0. -1.
    9900012    2    1    2    0    0 -0.30155888401E+00  0.86607082118E+01 -0.39724889871E+02  0.50528859825E+02  0.29999999924E+02 0.  0.
        -12    1    1    2    0    0  0.30155888401E+00 -0.86607082118E+01  0.39724889871E+02  0.40659140175E+02  0.00000000000E+00 0.  1.
         11    1    3    3    0    0  0.29958612782E+01 -0.41843561097E-01 -0.48219345091E+01  0.56769699976E+01  0.51100000000E-03 0. -1.
        -11    1    3    3    0    0 -0.66648080907E+01  0.26754153252E+01  0.18823226210E+01  0.74243284382E+01  0.51100000000E-03 0.  1.
        -12    1    3    3    0    0  0.33673879285E+01  0.60271364477E+01 -0.36785277983E+02  0.37427561389E+02  0.00000000000E+00 0.  1.
</event>
<event>
 7    1  0.5041278E-013  0.5052887E+02  0.7816164E-02  0.1300439E+00
        -11   -1    0    0    0    0  0.00000000000E+00  0.00000000000E+00  0.45593999997E+02  0.45594000000E+02  0.51100000000E-03 0. -1.
         11   -1    0    0    0    0 -0.00000000000E+00 -0.00000000000E+00 -0.45593999997E+02  0.45594000000E+02  0.51100000000E-03 0.  1.
    9900012    2    1    2    0    0  0.82976141618E+01  0.38146405092E+02 -0.11365124026E+02  0.50528872288E+02  0.30000037807E+02 0.  0.
        -12    1    1    2    0    0 -0.82976141618E+01 -0.38146405092E+02  0.11365124026E+02  0.40659127712E+02  0.00000000000E+00 0.  1.
         11    1    3    3    0    0 -0.46528704834E+01  0.18584268029E+02  0.98621125933E+00  0.19183243595E+02  0.51100000000E-03 0. -1.
        -11    1    3    3    0    0 -0.31190463523E+01  0.37454238240E+01 -0.63648997609E+01  0.80167698605E+01  0.51100000000E-03 0.  1.
        -12    1    3    3    0    0  0.16069530997E+02  0.15816713238E+02 -0.59864355241E+01  0.23328858832E+02  0.00000000000E+00 0.  1.
</event>
<event>
 7    1  0.5041278E-013  0.5052886E+02  0.7816164E-02  0.1300439E+00
        -11   -1    0    0    0    0  0.00000000000E+00  0.00000000000E+00  0.45593999997E+02  0.45594000000E+02  0.51100000000E-03 0.  1.
         11   -1    0    0    0    0 -0.00000000000E+00 -0.00000000000E+00 -0.45593999997E+02  0.45594000000E+02  0.51100000000E-03 0. -1.
    9900012    2    1    2    0    0 -0.25879366116E+02 -0.30515100460E+02 -0.72285826389E+01  0.50528863836E+02  0.30000012115E+02 0.  0.
        -12    1    1    2    0    0  0.25879366116E+02  0.30515100460E+02  0.72285826389E+01  0.40659136164E+02  0.00000000000E+00 0.  1.
         11    1    3    3    0    0 -0.91982848115E+01 -0.20216881848E+02 -0.91981869854E+01  0.24040328600E+02  0.51100000000E-03 0. -1.
        -11    1    3    3    0    0 -0.24012250437E+01 -0.15974773695E+01 -0.69585581917E+01  0.75325525571E+01  0.51100000000E-03 0.  1.
        -12    1    3    3    0    0 -0.14279856261E+02 -0.87007412427E+01  0.89281625383E+01  0.18955982679E+02  0.00000000000E+00 0.  1.
</event>
<event>
 7    1  0.5041278E-013  0.5052885E+02  0.7816164E-02  0.1300439E+00
        -11   -1    0    0    0    0  0.00000000000E+00  0.00000000000E+00  0.45593999997E+02  0.45594000000E+02  0.51100000000E-03 0. -1.
         11   -1    0    0    0    0 -0.00000000000E+00 -0.00000000000E+00 -0.45593999997E+02  0.45594000000E+02  0.51100000000E-03 0.  1.
    9900012    2    1    2    0    0  0.35737976418E+02 -0.15883019200E+02  0.11121756440E+02  0.50528846988E+02  0.29999960904E+02 0.  0.
        -12    1    1    2    0    0 -0.35737976418E+02  0.15883019200E+02 -0.11121756440E+02  0.40659153012E+02  0.00000000000E+00 0.  1.
         11    1    3    3    0    0  0.20290980749E+02 -0.21750164214E+01  0.50825809748E+01  0.21030625902E+02  0.51100000000E-03 0. -1.
        -11    1    3    3    0    0  0.87100804178E+01 -0.12494088081E+00  0.10548064665E+02  0.13680013873E+02  0.51100000000E-03 0.  1.
        -12    1    3    3    0    0  0.67369152507E+01 -0.13583061898E+02 -0.45088892001E+01  0.15818207213E+02  0.00000000000E+00 0.  1.
</event>
<event>
 7    1  0.5041278E-013  0.5052886E+02  0.7816164E-02  0.1300439E+00
        -11   -1    0    0    0    0  0.00000000000E+00  0.00000000000E+00  0.45593999997E+02  0.45594000000E+02  0.51100000000E-03 0. -1.
         11   -1    0    0    0    0 -0.00000000000E+00 -0.00000000000E+00 -0.45593999997E+02  0.45594000000E+02  0.51100000000E-03 0.  1.
    9900012    2    1    2    0    0  0.38132638779E+02 -0.13808413953E+02 -0.28974780160E+01  0.50528858162E+02  0.29999994870E+02 0.  0.
        -12    1    1    2    0    0 -0.38132638779E+02  0.13808413953E+02  0.28974780160E+01  0.40659141838E+02  0.00000000000E+00 0.  1.
         11    1    3    3    0    0  0.18225129997E+02 -0.50255574248E+01 -0.38851141764E+01  0.19300406816E+02  0.51100000000E-03 0.  1.
        -11    1    3    3    0    0  0.28497191408E+01 -0.57293352290E+01  0.98645197779E+01  0.11758185747E+02  0.51100000000E-03 0. -1.
         12    1    3    3    0    0  0.17057789641E+02 -0.30535212990E+01 -0.88768836175E+01  0.19470265599E+02  0.00000000000E+00 0. -1.
</event>
<event>
 7    1  0.5041278E-013  0.5052886E+02  0.7816164E-02  0.1300439E+00
        -11   -1    0    0    0    0  0.00000000000E+00  0.00000000000E+00  0.45593999997E+02  0.45594000000E+02  0.51100000000E-03 0.  1.
         11   -1    0    0    0    0 -0.00000000000E+00 -0.00000000000E+00 -0.45593999997E+02  0.45594000000E+02  0.51100000000E-03 0. -1.
    9900012    2    1    2    0    0 -0.18563536620E+02  0.35879778185E+02  0.46045701725E+01  0.50528862762E+02  0.30000008850E+02 0.  0.
        -12    1    1    2    0    0  0.18563536620E+02 -0.35879778185E+02 -0.46045701725E+01  0.40659137238E+02  0.00000000000E+00 0.  1.
         11    1    3    3    0    0  0.32626822964E+01  0.15277307259E+02 -0.29150730922E+01  0.15891471432E+02  0.51100000000E-03 0. -1.
        -11    1    3    3    0    0 -0.99453089276E+00  0.23535245740E+01  0.64327682419E+01  0.69216094322E+01  0.51100000000E-03 0.  1.
         12    1    3    3    0    0 -0.20831688024E+02  0.18248946352E+02  0.10868750228E+01  0.27715781898E+02  0.00000000000E+00 0. -1.
</event>
<event>
 7    1  0.5041278E-013  0.5052885E+02  0.7816164E-02  0.1300439E+00
        -11   -1    0    0    0    0  0.00000000000E+00  0.00000000000E+00  0.45593999997E+02  0.45594000000E+02  0.51100000000E-03 0. -1.
         11   -1    0    0    0    0 -0.00000000000E+00 -0.00000000000E+00 -0.45593999997E+02  0.45594000000E+02  0.51100000000E-03 0.  1.
    9900012    2    1    2    0    0 -0.13241270706E+01 -0.39636190665E+02  0.89658209894E+01  0.50528845201E+02  0.29999955474E+02 0.  0.
        -12    1    1    2    0    0  0.13241270706E+01  0.39636190665E+02 -0.89658209894E+01  0.40659154799E+02  0.00000000000E+00 0.  1.
         11    1    3    3    0    0  0.11471695435E+00 -0.48739726425E+00  0.67157382374E+01  0.67343786949E+01  0.51100000000E-03 0. -1.
        -11    1    3    3    0    0 -0.37172421961E+01 -0.17828466287E+01 -0.41114942177E+01  0.58224407777E+01  0.51100000000E-03 0.  1.
         12    1    3    3    0    0  0.22783981712E+01 -0.37365946772E+02  0.63615769697E+01  0.37972025729E+02  0.00000000000E+00 0. -1.
</event>
<event>
 7    1  0.5041278E-013  0.5052886E+02  0.7816164E-02  0.1300439E+00
        -11   -1    0    0    0    0  0.00000000000E+00  0.00000000000E+00  0.45593999997E+02  0.45594000000E+02  0.51100000000E-03 0.  1.
         11   -1    0    0    0    0 -0.00000000000E+00 -0.00000000000E+00 -0.45593999997E+02  0.45594000000E+02  0.51100000000E-03 0. -1.
    9900012    2    1    2    0    0  0.30545395568E+02  0.26607045343E+02  0.34942587936E+01  0.50528857156E+02  0.29999991812E+02 0.  0.
        -12    1    1    2    0    0 -0.30545395568E+02 -0.26607045343E+02 -0.34942587936E+01  0.40659142844E+02  0.00000000000E+00 0.  1.
         11    1    3    3    0    0  0.23242581225E+02  0.20794693166E+02  0.96390309291E+01  0.32642729105E+02  0.51100000000E-03 0. -1.
        -11    1    3    3    0    0  0.53020231203E+01  0.33189642035E+01  0.38821294319E+01  0.73619224215E+01  0.51100000000E-03 0.  1.
        -12    1    3    3    0    0  0.20007912220E+01  0.24933879733E+01 -0.10026901567E+02  0.10524205630E+02  0.00000000000E+00 0.  1.
</event>
<event>
 7    1  0.5041278E-013  0.5052878E+02  0.7816164E-02  0.1300439E+00
        -11   -1    0    0    0    0  0.00000000000E+00  0.00000000000E+00  0.45593999997E+02  0.45594000000E+02  0.51100000000E-03 0.  1.
         11   -1    0    0    0    0 -0.00000000000E+00 -0.00000000000E+00 -0.45593999997E+02  0.45594000000E+02  0.51100000000E-03 0. -1.
    9900012    2    1    2    0    0  0.34717754758E+02  0.38425566574E+00 -0.21158967252E+02  0.50528781574E+02  0.29999762071E+02 0.  0.
        -12    1    1    2    0    0 -0.34717754758E+02 -0.38425566574E+00  0.21158967252E+02  0.40659218426E+02  0.00000000000E+00 0.  1.
         11    1    3    3    0    0  0.13010608420E+02  0.85117891162E+01 -0.70382177250E+01  0.17066428872E+02  0.51100000000E-03 0. -1.
        -11    1    3    3    0    0  0.11115737086E+02 -0.16473545068E+01 -0.17314765933E+02  0.20641572310E+02  0.51100000000E-03 0.  1.
        -12    1    3    3    0    0  0.10591409251E+02 -0.64801789437E+01  0.31940164059E+01  0.12820780392E+02  0.00000000000E+00 0.  1.
</event>
<event>
 7    1  0.5041278E-013  0.5052885E+02  0.7816164E-02  0.1300439E+00
        -11   -1    0    0    0    0  0.00000000000E+00  0.00000000000E+00  0.45593999997E+02  0.45594000000E+02  0.51100000000E-03 0. -1.
         11   -1    0    0    0    0 -0.00000000000E+00 -0.00000000000E+00 -0.45593999997E+02  0.45594000000E+02  0.51100000000E-03 0.  1.
    9900012    2    1    2    0    0  0.22667476709E+02  0.28212408184E+02  0.18531374298E+02  0.50528852084E+02  0.29999976394E+02 0.  0.
        -12    1    1    2    0    0 -0.22667476709E+02 -0.28212408184E+02 -0.18531374298E+02  0.40659147916E+02  0.00000000000E+00 0.  1.
         11    1    3    3    0    0  0.81239054575E+01  0.84001254231E+00 -0.47096814636E+01  0.94278608763E+01  0.51100000000E-03 0. -1.
        -11    1    3    3    0    0  0.12499180430E+02  0.14619683053E+02  0.72732934425E+01  0.20563692318E+02  0.51100000000E-03 0.  1.
        -12    1    3    3    0    0  0.20443908212E+01  0.12752712589E+02  0.15967762319E+02  0.20537298890E+02  0.00000000000E+00 0.  1.
</event>
<event>
 7    1  0.5041278E-013  0.5052886E+02  0.7816164E-02  0.1300439E+00
        -11   -1    0    0    0    0  0.00000000000E+00  0.00000000000E+00  0.45593999997E+02  0.45594000000E+02  0.51100000000E-03 0.  1.
         11   -1    0    0    0    0 -0.00000000000E+00 -0.00000000000E+00 -0.45593999997E+02  0.45594000000E+02  0.51100000000E-03 0. -1.
    9900012    2    1    2    0    0 -0.19476010293E+01  0.29020365822E+02 -0.28411108074E+02  0.50528857803E+02  0.29999993778E+02 0.  0.
        -12    1    1    2    0    0  0.19476010293E+01 -0.29020365822E+02  0.28411108074E+02  0.40659142197E+02  0.00000000000E+00 0.  1.
         11    1    3    3    0    0 -0.86266187018E+01  0.14995298485E+02 -0.81504844390E+01  0.19123491411E+02  0.51100000000E-03 0. -1.
        -11    1    3    3    0    0 -0.28041627687E+01 -0.31962621703E+01 -0.46560641055E+01  0.63054225798E+01  0.51100000000E-03 0.  1.
         12    1    3    3    0    0  0.94831804411E+01  0.17221329507E+02 -0.15604559529E+02  0.25099943812E+02  0.00000000000E+00 0. -1.
</event>
<event>
 7    1  0.5041278E-013  0.5052887E+02  0.7816164E-02  0.1300439E+00
        -11   -1    0    0    0    0  0.00000000000E+00  0.00000000000E+00  0.45593999997E+02  0.45594000000E+02  0.51100000000E-03 0.  1.
         11   -1    0    0    0    0 -0.00000000000E+00 -0.00000000000E+00 -0.45593999997E+02  0.45594000000E+02  0.51100000000E-03 0. -1.
    9900012    2    1    2    0    0  0.29063189215E+02 -0.35476682819E+00 -0.28431854254E+02  0.50528866178E+02  0.30000019234E+02 0.  0.
        -12    1    1    2    0    0 -0.29063189215E+02  0.35476682819E+00  0.28431854254E+02  0.40659133822E+02  0.00000000000E+00 0.  1.
         11    1    3    3    0    0  0.26910096192E+01  0.10537684573E+01 -0.82148018607E+01  0.87083253616E+01  0.51100000000E-03 0. -1.
        -11    1    3    3    0    0 -0.23674464848E-01  0.81935546980E+01 -0.70068395469E+01  0.10781034262E+02  0.51100000000E-03 0.  1.
        -12    1    3    3    0    0  0.26395854061E+02 -0.96020899835E+01 -0.13210212846E+02  0.31039506554E+02  0.00000000000E+00 0.  1.
</event>
<event>
 7    1  0.5158992E-013  0.5052876E+02  0.7816164E-02  0.1300439E+00
        -11   -1    0    0    0    0  0.00000000000E+00  0.00000000000E+00  0.45593999997E+02  0.45594000000E+02  0.51100000000E-03 0.  1.
         11   -1    0    0    0    0 -0.00000000000E+00 -0.00000000000E+00 -0.45593999997E+02  0.45594000000E+02  0.51100000000E-03 0. -1.
    9900012    2    1    2    0    0  0.32746123650E+02  0.71312487359E+01 -0.23021961144E+02  0.50528757293E+02  0.29999688266E+02 0.  0.
        -12    1    1    2    0    0 -0.32746123650E+02 -0.71312487359E+01  0.23021961144E+02  0.40659242707E+02  0.00000000000E+00 0.  1.
         11    1    3    3    0    0 -0.30461307741E+01 -0.23032818977E+01 -0.32414261511E+01  0.50090781534E+01  0.51100000000E-03 0. -1.
        -11    1    3    3    0    0  0.47161328695E+01  0.16318655630E-01  0.32344300194E+01  0.57187160581E+01  0.51100000000E-03 0.  1.
         12    1    3    3    0    0  0.31076121554E+02  0.94182119780E+01 -0.23014965012E+02  0.39800963081E+02  0.00000000000E+00 0. -1.
</event>
<event>
 7    1  0.5041278E-013  0.5052886E+02  0.7816164E-02  0.1300439E+00
        -11   -1    0    0    0    0  0.00000000000E+00  0.00000000000E+00  0.45593999997E+02  0.45594000000E+02  0.51100000000E-03 0.  1.
         11   -1    0    0    0    0 -0.00000000000E+00 -0.00000000000E+00 -0.45593999997E+02  0.45594000000E+02  0.51100000000E-03 0. -1.
    9900012    2    1    2    0    0 -0.16206680805E+02 -0.37109080035E+02 -0.36640776675E+01  0.50528858483E+02  0.29999995843E+02 0.  0.
        -12    1    1    2    0    0  0.16206680805E+02  0.37109080035E+02  0.36640776675E+01  0.40659141517E+02  0.00000000000E+00 0.  1.
         11    1    3    3    0    0 -0.65480247975E+01 -0.59418846245E+01 -0.92545381467E+01  0.12799574142E+02  0.51100000000E-03 0. -1.
        -11    1    3    3    0    0  0.41757938860E+01 -0.16777349447E+02  0.15098454863E+01  0.17355009153E+02  0.51100000000E-03 0.  1.
        -12    1    3    3    0    0 -0.13834449893E+02 -0.14389845964E+02  0.40806149929E+01  0.20374275188E+02  0.00000000000E+00 0.  1.
</event>
<event>
 7    1  0.5041278E-013  0.5052886E+02  0.7816164E-02  0.1300439E+00
        -11   -1    0    0    0    0  0.00000000000E+00  0.00000000000E+00  0.45593999997E+02  0.45594000000E+02  0.51100000000E-03 0.  1.
         11   -1    0    0    0    0 -0.00000000000E+00 -0.00000000000E+00 -0.45593999997E+02  0.45594000000E+02  0.51100000000E-03 0. -1.
    9900012    2    1    2    0    0 -0.14997011400E+01 -0.22740767122E+02 -0.33671561336E+02  0.50528860368E+02  0.30000001574E+02 0.  0.
        -12    1    1    2    0    0  0.14997011400E+01  0.22740767122E+02  0.33671561336E+02  0.40659139632E+02  0.00000000000E+00 0.  1.
         11    1    3    3    0    0  0.70759726800E+01 -0.22634874717E+02 -0.20064338741E+02  0.31064201779E+02  0.51100000000E-03 0. -1.
        -11    1    3    3    0    0  0.86602117388E-01 -0.41081904024E+01 -0.24523449407E+01  0.47852611505E+01  0.51100000000E-03 0.  1.
        -12    1    3    3    0    0 -0.86622759374E+01  0.40022979966E+01 -0.11154877655E+02  0.14679397438E+02  0.00000000000E+00 0.  1.
</event>
<event>
 7    1  0.5041278E-013  0.5052886E+02  0.7816164E-02  0.1300439E+00
        -11   -1    0    0    0    0  0.00000000000E+00  0.00000000000E+00  0.45593999997E+02  0.45594000000E+02  0.51100000000E-03 0. -1.
         11   -1    0    0    0    0 -0.00000000000E+00 -0.00000000000E+00 -0.45593999997E+02  0.45594000000E+02  0.51100000000E-03 0.  1.
    9900012    2    1    2    0    0 -0.15417064151E+01 -0.11054593048E+02  0.39097121142E+02  0.50528858744E+02  0.29999996637E+02 0.  0.
        -12    1    1    2    0    0  0.15417064151E+01  0.11054593048E+02 -0.39097121142E+02  0.40659141256E+02  0.00000000000E+00 0.  1.
         11    1    3    3    0    0 -0.10387663251E+01 -0.11188949159E+02  0.18643082553E+02  0.21767777702E+02  0.51100000000E-03 0. -1.
        -11    1    3    3    0    0  0.84616013308E+01 -0.27427254700E+01  0.16087561036E+02  0.18382895866E+02  0.51100000000E-03 0.  1.
         12    1    3    3    0    0 -0.89645414208E+01  0.28770815808E+01  0.43664775532E+01  0.10378185175E+02  0.00000000000E+00 0. -1.
</event>
<event>
 7    1  0.5041278E-013  0.5052887E+02  0.7816164E-02  0.1300439E+00
        -11   -1    0    0    0    0  0.00000000000E+00  0.00000000000E+00  0.45593999997E+02  0.45594000000E+02  0.51100000000E-03 0.  1.
         11   -1    0    0    0    0 -0.00000000000E+00 -0.00000000000E+00 -0.45593999997E+02  0.45594000000E+02  0.51100000000E-03 0. -1.
    9900012    2    1    2    0    0  0.31012548256E+02 -0.32314938174E+01 -0.26094899869E+02  0.50528874323E+02  0.30000043991E+02 0.  0.
        -12    1    1    2    0    0 -0.31012548256E+02  0.32314938174E+01  0.26094899869E+02  0.40659125677E+02  0.00000000000E+00 0.  1.
         11    1    3    3    0    0  0.22113885478E+02 -0.68238900482E+01 -0.54462989401E+01  0.23775020058E+02  0.51100000000E-03 0. -1.
        -11    1    3    3    0    0 -0.20678005706E+01 -0.32444915001E+01 -0.29953308611E+01  0.48759134039E+01  0.51100000000E-03 0.  1.
        -12    1    3    3    0    0  0.10966463349E+02  0.68368877309E+01 -0.17653270068E+02  0.21877940861E+02  0.00000000000E+00 0.  1.
</event>
<event>
 7    1  0.5041278E-013  0.5052885E+02  0.7816164E-02  0.1300439E+00
        -11   -1    0    0    0    0  0.00000000000E+00  0.00000000000E+00  0.45593999997E+02  0.45594000000E+02  0.51100000000E-03 0. -1.
         11   -1    0    0    0    0 -0.00000000000E+00 -0.00000000000E+00 -0.45593999997E+02  0.45594000000E+02  0.51100000000E-03 0.  1.
    9900012    2    1    2    0    0  0.29591472277E+02 -0.36387099361E+01  0.27645453857E+02  0.50528848995E+02  0.29999967004E+02 0.  0.
        -12    1    1    2    0    0 -0.29591472277E+02  0.36387099361E+01 -0.27645453857E+02  0.40659151005E+02  0.00000000000E+00 0.  1.
         11    1    3    3    0    0  0.20793749663E+02 -0.42718326872E+01  0.22482806765E+02  0.30920950501E+02  0.51100000000E-03 0. -1.
        -11    1    3    3    0    0  0.90723787432E+01  0.60582286543E+01  0.79536605229E+01  0.13500774291E+02  0.51100000000E-03 0.  1.
        -12    1    3    3    0    0 -0.27465613002E+00 -0.54251059032E+01 -0.27910134309E+01  0.61071242023E+01  0.00000000000E+00 0.  1.
</event>
<event>
 7    1  0.5041278E-013  0.5052890E+02  0.7816164E-02  0.1300439E+00
        -11   -1    0    0    0    0  0.00000000000E+00  0.00000000000E+00  0.45593999997E+02  0.45594000000E+02  0.51100000000E-03 0. -1.
         11   -1    0    0    0    0 -0.00000000000E+00 -0.00000000000E+00 -0.45593999997E+02  0.45594000000E+02  0.51100000000E-03 0.  1.
    9900012    2    1    2    0    0  0.30366938673E+02  0.78647780484E+01  0.25868071210E+02  0.50528895162E+02  0.30000107333E+02 0.  0.
        -12    1    1    2    0    0 -0.30366938673E+02 -0.78647780484E+01 -0.25868071210E+02  0.40659104838E+02  0.00000000000E+00 0.  1.
         11    1    3    3    0    0 -0.10335852387E+01  0.13775319861E+01  0.53639063309E+00  0.18037760368E+01  0.51100000000E-03 0. -1.
        -11    1    3    3    0    0 -0.47193502417E+01  0.19739276523E+01  0.20221184642E+01  0.55006927222E+01  0.51100000000E-03 0.  1.
         12    1    3    3    0    0  0.36119874154E+02  0.45133184099E+01  0.23309562113E+02  0.43224426403E+02  0.00000000000E+00 0. -1.
</event>
<event>
 7    1  0.5041278E-013  0.5052890E+02  0.7816164E-02  0.1300439E+00
        -11   -1    0    0    0    0  0.00000000000E+00  0.00000000000E+00  0.45593999997E+02  0.45594000000E+02  0.51100000000E-03 0.  1.
         11   -1    0    0    0    0 -0.00000000000E+00 -0.00000000000E+00 -0.45593999997E+02  0.45594000000E+02  0.51100000000E-03 0. -1.
    9900012    2    1    2    0    0 -0.63230437672E+01  0.27121667325E+02 -0.29624252921E+02  0.50528904067E+02  0.30000134401E+02 0.  0.
        -12    1    1    2    0    0  0.63230437672E+01 -0.27121667325E+02  0.29624252921E+02  0.40659095933E+02  0.00000000000E+00 0.  1.
         11    1    3    3    0    0 -0.58502748938E+01  0.18285222805E+02 -0.13687383932E+02  0.23577946656E+02  0.51100000000E-03 0. -1.
        -11    1    3    3    0    0  0.38780930878E+01  0.82976256481E+01 -0.19341209772E+02  0.21400294230E+02  0.51100000000E-03 0.  1.
        -12    1    3    3    0    0 -0.43508619612E+01  0.53881887223E+00  0.34043407834E+01  0.55506631813E+01  0.00000000000E+00 0.  1.
</event>
<event>
 7    1  0.5041278E-013  0.5052888E+02  0.7816164E-02  0.1300439E+00
        -11   -1    0    0    0    0  0.00000000000E+00  0.00000000000E+00  0.45593999997E+02  0.45594000000E+02  0.51100000000E-03 0.  1.
         11   -1    0    0    0    0 -0.00000000000E+00 -0.00000000000E+00 -0.45593999997E+02  0.45594000000E+02  0.51100000000E-03 0. -1.
    9900012    2    1    2    0    0 -0.23705059726E+02 -0.79907651072E+01 -0.32052794001E+02  0.50528883103E+02  0.30000070680E+02 0.  0.
        -12    1    1    2    0    0  0.23705059726E+02  0.79907651072E+01  0.32052794001E+02  0.40659116897E+02  0.00000000000E+00 0.  1.
         11    1    3    3    0    0 -0.16705398213E+02 -0.12902663706E+02 -0.14557606371E+02  0.25641235611E+02  0.51100000000E-03 0. -1.
        -11    1    3    3    0    0 -0.39140602665E+01 -0.55130573438E+01 -0.77794985790E+01  0.10307000895E+02  0.51100000000E-03 0.  1.
        -12    1    3    3    0    0 -0.30856012464E+01  0.10424955943E+02 -0.97156890506E+01  0.14580646597E+02  0.00000000000E+00 0.  1.
</event>
<event>
 7    1  0.5041278E-013  0.5052886E+02  0.7816164E-02  0.1300439E+00
        -11   -1    0    0    0    0  0.00000000000E+00  0.00000000000E+00  0.45593999997E+02  0.45594000000E+02  0.51100000000E-03 0.  1.
         11   -1    0    0    0    0 -0.00000000000E+00 -0.00000000000E+00 -0.45593999997E+02  0.45594000000E+02  0.51100000000E-03 0. -1.
    9900012    2    1    2    0    0  0.17842592094E+02  0.34670150981E+02 -0.11523381145E+02  0.50528858658E+02  0.29999996376E+02 0.  0.
        -12    1    1    2    0    0 -0.17842592094E+02 -0.34670150981E+02  0.11523381145E+02  0.40659141342E+02  0.00000000000E+00 0.  1.
         11    1    3    3    0    0  0.12644436528E+02  0.20200276265E+02 -0.81065853832E+01  0.25172398835E+02  0.51100000000E-03 0. -1.
        -11    1    3    3    0    0  0.65486541498E+01  0.26558248553E+00 -0.80260553568E+01  0.10362092939E+02  0.51100000000E-03 0.  1.
        -12    1    3    3    0    0 -0.13504985842E+01  0.14204292231E+02  0.46092595951E+01  0.14994366883E+02  0.00000000000E+00 0.  1.
</event>
<event>
 7    1  0.5041278E-013  0.5052886E+02  0.7816164E-02  0.1300439E+00
        -11   -1    0    0    0    0  0.00000000000E+00  0.00000000000E+00  0.45593999997E+02  0.45594000000E+02  0.51100000000E-03 0. -1.
         11   -1    0    0    0    0 -0.00000000000E+00 -0.00000000000E+00 -0.45593999997E+02  0.45594000000E+02  0.51100000000E-03 0.  1.
    9900012    2    1    2    0    0 -0.12883091405E+02 -0.33013838383E+01  0.38422552286E+02  0.50528859533E+02  0.29999999035E+02 0.  0.
        -12    1    1    2    0    0  0.12883091405E+02  0.33013838383E+01 -0.38422552286E+02  0.40659140467E+02  0.00000000000E+00 0.  1.
         11    1    3    3    0    0 -0.81349922397E+01  0.25706188431E+01  0.21324179412E+02  0.22967516362E+02  0.51100000000E-03 0. -1.
        -11    1    3    3    0    0  0.41669110718E+01  0.44772539324E+01  0.11034605140E+02  0.12616317272E+02  0.51100000000E-03 0.  1.
         12    1    3    3    0    0 -0.89150102369E+01 -0.10349256614E+02  0.60637677342E+01  0.14945025899E+02  0.00000000000E+00 0. -1.
</event>
<event>
 7    1  0.5041278E-013  0.5052887E+02  0.7816164E-02  0.1300439E+00
        -11   -1    0    0    0    0  0.00000000000E+00  0.00000000000E+00  0.45593999997E+02  0.45594000000E+02  0.51100000000E-03 0.  1.
         11   -1    0    0    0    0 -0.00000000000E+00 -0.00000000000E+00 -0.45593999997E+02  0.45594000000E+02  0.51100000000E-03 0. -1.
    9900012    2    1    2    0    0 -0.35675908854E+02  0.19497953438E+02 -0.47391618283E+00  0.50528865019E+02  0.30000015712E+02 0.  0.
        -12    1    1    2    0    0  0.35675908854E+02 -0.19497953438E+02  0.47391618283E+00  0.40659134981E+02  0.00000000000E+00 0.  1.
         11    1    3    3    0    0 -0.21097340598E+02 -0.40407102018E+01  0.80245834588E+00  0.21495791656E+02  0.51100000000E-03 0.  1.
        -11    1    3    3    0    0 -0.90920415861E+01  0.14040735625E+02 -0.49848635742E+01  0.17454407530E+02  0.51100000000E-03 0. -1.
        -12    1    3    3    0    0 -0.54865266698E+01  0.94979280154E+01  0.37084890455E+01  0.11578665834E+02  0.00000000000E+00 0.  1.
</event>
<event>
 7    1  0.5041278E-013  0.5052888E+02  0.7816164E-02  0.1300439E+00
        -11   -1    0    0    0    0  0.00000000000E+00  0.00000000000E+00  0.45593999997E+02  0.45594000000E+02  0.51100000000E-03 0. -1.
         11   -1    0    0    0    0 -0.00000000000E+00 -0.00000000000E+00 -0.45593999997E+02  0.45594000000E+02  0.51100000000E-03 0.  1.
    9900012    2    1    2    0    0  0.99140176009E+01 -0.37782434408E+02  0.11285571295E+02  0.50528877847E+02  0.30000054703E+02 0.  0.
        -12    1    1    2    0    0 -0.99140176009E+01  0.37782434408E+02 -0.11285571295E+02  0.40659122153E+02  0.00000000000E+00 0.  1.
         11    1    3    3    0    0  0.68246651633E+01 -0.14931941544E+02  0.65242427929E+01  0.17666484572E+02  0.51100000000E-03 0. -1.
        -11    1    3    3    0    0  0.49969275870E+01  0.30018476003E+01  0.37275286599E+01  0.69191650144E+01  0.51100000000E-03 0.  1.
         12    1    3    3    0    0 -0.19075751494E+01 -0.25852340465E+02  0.10337998426E+01  0.25943228260E+02  0.00000000000E+00 0. -1.
</event>
<event>
 7    1  0.5041278E-013  0.5052885E+02  0.7816164E-02  0.1300439E+00
        -11   -1    0    0    0    0  0.00000000000E+00  0.00000000000E+00  0.45593999997E+02  0.45594000000E+02  0.51100000000E-03 0. -1.
         11   -1    0    0    0    0 -0.00000000000E+00 -0.00000000000E+00 -0.45593999997E+02  0.45594000000E+02  0.51100000000E-03 0.  1.
    9900012    2    1    2    0    0 -0.40091235712E+02 -0.67700128756E+01  0.16274953828E+00  0.50528846755E+02  0.29999960195E+02 0.  0.
        -12    1    1    2    0    0  0.40091235712E+02  0.67700128756E+01 -0.16274953828E+00  0.40659153245E+02  0.00000000000E+00 0.  1.
         11    1    3    3    0    0 -0.17026324611E+02 -0.15706786367E+01  0.76471092758E+01  0.18730751231E+02  0.51100000000E-03 0. -1.
        -11    1    3    3    0    0 -0.19513671008E+02 -0.12061606389E+02 -0.38576307566E+01  0.23262566931E+02  0.51100000000E-03 0.  1.
         12    1    3    3    0    0 -0.35512400926E+01  0.68622721501E+01 -0.36267289810E+01  0.85355285928E+01  0.00000000000E+00 0. -1.
</event>
<event>
 7    1  0.5041278E-013  0.5052887E+02  0.7816164E-02  0.1300439E+00
        -11   -1    0    0    0    0  0.00000000000E+00  0.00000000000E+00  0.45593999997E+02  0.45594000000E+02  0.51100000000E-03 0.  1.
         11   -1    0    0    0    0 -0.00000000000E+00 -0.00000000000E+00 -0.45593999997E+02  0.45594000000E+02  0.51100000000E-03 0. -1.
    9900012    2    1    2    0    0 -0.18486997831E+02  0.27223974072E+02  0.23879935398E+02  0.50528866122E+02  0.30000019065E+02 0.  0.
        -12    1    1    2    0    0  0.18486997831E+02 -0.27223974072E+02 -0.23879935398E+02  0.40659133878E+02  0.00000000000E+00 0.  1.
         11    1    3    3    0    0 -0.17149186239E+02  0.15712923370E+02  0.21073334851E+01  0.23354472894E+02  0.51100000000E-03 0. -1.
        -11    1    3    3    0    0  0.31441281826E+00 -0.12492083410E+01  0.88330562501E+01  0.89264920253E+01  0.51100000000E-03 0.  1.
        -12    1    3    3    0    0 -0.16522244106E+01  0.12760259044E+02  0.12939545662E+02  0.18247901203E+02  0.00000000000E+00 0.  1.
</event>
<event>
 7    1  0.5041278E-013  0.5052887E+02  0.7816164E-02  0.1300439E+00
        -11   -1    0    0    0    0  0.00000000000E+00  0.00000000000E+00  0.45593999997E+02  0.45594000000E+02  0.51100000000E-03 0. -1.
         11   -1    0    0    0    0 -0.00000000000E+00 -0.00000000000E+00 -0.45593999997E+02  0.45594000000E+02  0.51100000000E-03 0.  1.
    9900012    2    1    2    0    0  0.41641942527E+01 -0.32391608354E+02  0.24219993473E+02  0.50528869545E+02  0.30000029469E+02 0.  0.
        -12    1    1    2    0    0 -0.41641942527E+01  0.32391608354E+02 -0.24219993473E+02  0.40659130455E+02  0.00000000000E+00 0.  1.
         11    1    3    3    0    0 -0.26071559980E+01 -0.13518866064E+02  0.15640221248E+02  0.20836830926E+02  0.51100000000E-03 0. -1.
        -11    1    3    3    0    0  0.79289369552E+01 -0.17132401568E+02  0.14247499977E+02  0.23651183492E+02  0.51100000000E-03 0.  1.
         12    1    3    3    0    0 -0.11575867045E+01 -0.17403407217E+01 -0.56677277518E+01  0.60408551278E+01  0.00000000000E+00 0. -1.
</event>
<event>
 7    1  0.5041278E-013  0.5052886E+02  0.7816164E-02  0.1300439E+00
        -11   -1    0    0    0    0  0.00000000000E+00  0.00000000000E+00  0.45593999997E+02  0.45594000000E+02  0.51100000000E-03 0.  1.
         11   -1    0    0    0    0 -0.00000000000E+00 -0.00000000000E+00 -0.45593999997E+02  0.45594000000E+02  0.51100000000E-03 0. -1.
    9900012    2    1    2    0    0  0.13298528037E+01 -0.18412282389E+02 -0.36226859957E+02  0.50528855473E+02  0.29999986697E+02 0.  0.
        -12    1    1    2    0    0 -0.13298528037E+01  0.18412282389E+02  0.36226859957E+02  0.40659144527E+02  0.00000000000E+00 0.  1.
         11    1    3    3    0    0  0.14565135478E+01 -0.14766791003E+02 -0.43671665950E+01  0.15467763011E+02  0.51100000000E-03 0. -1.
        -11    1    3    3    0    0 -0.43414715772E+01 -0.74488861523E+01 -0.15391318014E+02  0.17641625516E+02  0.51100000000E-03 0.  1.
        -12    1    3    3    0    0  0.42148108331E+01  0.38033947657E+01 -0.16468375349E+02  0.17419466947E+02  0.00000000000E+00 0.  1.
</event>
<event>
 7    1  0.5041278E-013  0.5052887E+02  0.7816164E-02  0.1300439E+00
        -11   -1    0    0    0    0  0.00000000000E+00  0.00000000000E+00  0.45593999997E+02  0.45594000000E+02  0.51100000000E-03 0.  1.
         11   -1    0    0    0    0 -0.00000000000E+00 -0.00000000000E+00 -0.45593999997E+02  0.45594000000E+02  0.51100000000E-03 0. -1.
    9900012    2    1    2    0    0 -0.40589180823E+02 -0.21919710798E+01  0.93743996545E+00  0.50528866576E+02  0.30000020445E+02 0.  0.
        -12    1    1    2    0    0  0.40589180823E+02  0.21919710798E+01 -0.93743996545E+00  0.40659133424E+02  0.00000000000E+00 0.  1.
         11    1    3    3    0    0 -0.37163413810E+02 -0.26152881121E+01  0.61260072086E+01  0.37755622396E+02  0.51100000000E-03 0. -1.
        -11    1    3    3    0    0 -0.37567887768E+01 -0.48687075376E+01 -0.15482283219E+01  0.63415129266E+01  0.51100000000E-03 0.  1.
        -12    1    3    3    0    0  0.33102176412E+00  0.52920245699E+01 -0.36403389212E+01  0.64317312535E+01  0.00000000000E+00 0.  1.
</event>
<event>
 7    1  0.5041278E-013  0.5052885E+02  0.7816164E-02  0.1300439E+00
        -11   -1    0    0    0    0  0.00000000000E+00  0.00000000000E+00  0.45593999997E+02  0.45594000000E+02  0.51100000000E-03 0. -1.
         11   -1    0    0    0    0 -0.00000000000E+00 -0.00000000000E+00 -0.45593999997E+02  0.45594000000E+02  0.51100000000E-03 0.  1.
    9900012    2    1    2    0    0 -0.43859137924E+01 -0.40359184444E+02  0.22508617749E+01  0.50528851122E+02  0.29999973471E+02 0.  0.
        -12    1    1    2    0    0  0.43859137924E+01  0.40359184444E+02 -0.22508617749E+01  0.40659148878E+02  0.00000000000E+00 0.  1.
         11    1    3    3    0    0 -0.10998737795E+02 -0.20853125486E+02 -0.63389454003E+01  0.24413260836E+02  0.51100000000E-03 0. -1.
        -11    1    3    3    0    0  0.27043671192E+01  0.15756998743E+01  0.36480902366E+00  0.31511136911E+01  0.51100000000E-03 0.  1.
         12    1    3    3    0    0  0.39084568836E+01 -0.21081758832E+02  0.82249981516E+01  0.22964476595E+02  0.00000000000E+00 0. -1.
</event>
<event>
 7    1  0.5041278E-013  0.5052885E+02  0.7816164E-02  0.1300439E+00
        -11   -1    0    0    0    0  0.00000000000E+00  0.00000000000E+00  0.45593999997E+02  0.45594000000E+02  0.51100000000E-03 0. -1.
         11   -1    0    0    0    0 -0.00000000000E+00 -0.00000000000E+00 -0.45593999997E+02  0.45594000000E+02  0.51100000000E-03 0.  1.
    9900012    2    1    2    0    0 -0.26914622054E+02 -0.23316512683E+02  0.19624207097E+02  0.50528854065E+02  0.29999982415E+02 0.  0.
        -12    1    1    2    0    0  0.26914622054E+02  0.23316512683E+02 -0.19624207097E+02  0.40659145935E+02  0.00000000000E+00 0.  1.
         11    1    3    3    0    0 -0.12133752014E+02 -0.72760973320E+00 -0.12071118542E+01  0.12215337619E+02  0.51100000000E-03 0. -1.
        -11    1    3    3    0    0 -0.80494434709E+01 -0.75380259737E+01 -0.86676967349E+00  0.11061946741E+02  0.51100000000E-03 0.  1.
         12    1    3    3    0    0 -0.67314265694E+01 -0.15050876976E+02  0.21698088625E+02  0.27251569705E+02  0.00000000000E+00 0. -1.
</event>
<event>
 7    1  0.5269774E-013  0.5052883E+02  0.7816164E-02  0.1300439E+00
        -11   -1    0    0    0    0  0.00000000000E+00  0.00000000000E+00  0.45593999997E+02  0.45594000000E+02  0.51100000000E-03 0. -1.
         11   -1    0    0    0    0 -0.00000000000E+00 -0.00000000000E+00 -0.45593999997E+02  0.45594000000E+02  0.51100000000E-03 0.  1.
    9900012    2    1    2    0    0 -0.36709331288E+00 -0.10687874839E+02  0.39227576686E+02  0.50528828848E+02  0.29999905767E+02 0.  0.
        -12    1    1    2    0    0  0.36709331288E+00  0.10687874839E+02 -0.39227576686E+02  0.40659171152E+02  0.00000000000E+00 0.  1.
         11    1    3    3    0    0 -0.39257899992E+01 -0.41709777549E+01 -0.62441355590E+00  0.57618378231E+01  0.51100000000E-03 0. -1.
        -11    1    3    3    0    0  0.49413403757E+01  0.16314041643E+01  0.13335315958E+01  0.53718368398E+01  0.51100000000E-03 0.  1.
         12    1    3    3    0    0 -0.13826436893E+01 -0.81483012480E+01  0.38518458646E+02  0.39395154185E+02  0.00000000000E+00 0. -1.
</event>
<event>
 7    1  0.5041278E-013  0.5052887E+02  0.7816164E-02  0.1300439E+00
        -11   -1    0    0    0    0  0.00000000000E+00  0.00000000000E+00  0.45593999997E+02  0.45594000000E+02  0.51100000000E-03 0. -1.
         11   -1    0    0    0    0 -0.00000000000E+00 -0.00000000000E+00 -0.45593999997E+02  0.45594000000E+02  0.51100000000E-03 0.  1.
    9900012    2    1    2    0    0  0.11104348238E+02  0.10423082020E+02  0.37699042561E+02  0.50528868201E+02  0.30000025384E+02 0.  0.
        -12    1    1    2    0    0 -0.11104348238E+02 -0.10423082020E+02 -0.37699042561E+02  0.40659131799E+02  0.00000000000E+00 0.  1.
         11    1    3    3    0    0 -0.39909184137E+00  0.58617585195E+01  0.25442884005E+02  0.26112445960E+02  0.51100000000E-03 0. -1.
        -11    1    3    3    0    0  0.13721263436E+02 -0.28826584373E+00  0.13152377478E+02  0.19008976855E+02  0.51100000000E-03 0.  1.
         12    1    3    3    0    0 -0.22178233572E+01  0.48495893442E+01 -0.89621892187E+00  0.54074453864E+01  0.00000000000E+00 0. -1.
</event>
<event>
 7    1  0.5041278E-013  0.5052882E+02  0.7816164E-02  0.1300439E+00
        -11   -1    0    0    0    0  0.00000000000E+00  0.00000000000E+00  0.45593999997E+02  0.45594000000E+02  0.51100000000E-03 0. -1.
         11   -1    0    0    0    0 -0.00000000000E+00 -0.00000000000E+00 -0.45593999997E+02  0.45594000000E+02  0.51100000000E-03 0.  1.
    9900012    2    1    2    0    0 -0.43964546707E+01  0.22092861924E+02  0.33848860617E+02  0.50528822355E+02  0.29999886031E+02 0.  0.
        -12    1    1    2    0    0  0.43964546707E+01 -0.22092861924E+02 -0.33848860617E+02  0.40659177645E+02  0.00000000000E+00 0.  1.
         11    1    3    3    0    0  0.85989982443E+01  0.86855148559E+01  0.24052984731E+02  0.26980122569E+02  0.51100000000E-03 0. -1.
        -11    1    3    3    0    0 -0.27856768261E+00 -0.15666837613E+01 -0.11604661916E-01  0.15912991205E+01  0.51100000000E-03 0.  1.
         12    1    3    3    0    0 -0.12716885232E+02  0.14974030829E+02  0.98074805477E+01  0.21957400665E+02  0.00000000000E+00 0. -1.
</event>
<event>
 7    1  0.5041278E-013  0.5052886E+02  0.7816164E-02  0.1300439E+00
        -11   -1    0    0    0    0  0.00000000000E+00  0.00000000000E+00  0.45593999997E+02  0.45594000000E+02  0.51100000000E-03 0.  1.
         11   -1    0    0    0    0 -0.00000000000E+00 -0.00000000000E+00 -0.45593999997E+02  0.45594000000E+02  0.51100000000E-03 0. -1.
    9900012    2    1    2    0    0 -0.20673028494E+02 -0.14268447626E+02 -0.31971910820E+02  0.50528858516E+02  0.29999995944E+02 0.  0.
        -12    1    1    2    0    0  0.20673028494E+02  0.14268447626E+02  0.31971910820E+02  0.40659141484E+02  0.00000000000E+00 0.  1.
         11    1    3    3    0    0 -0.13666530294E+02  0.29741957771E+00 -0.53954581267E+01  0.14696036110E+02  0.51100000000E-03 0. -1.
        -11    1    3    3    0    0 -0.67622877615E+01 -0.92279461082E+01 -0.32371008698E+01  0.11889589877E+02  0.51100000000E-03 0.  1.
         12    1    3    3    0    0 -0.24421043786E+00 -0.53379210959E+01 -0.23339351823E+02  0.23943232528E+02  0.00000000000E+00 0. -1.
</event>
<event>
 7    1  0.5041278E-013  0.5052886E+02  0.7816164E-02  0.1300439E+00
        -11   -1    0    0    0    0  0.00000000000E+00  0.00000000000E+00  0.45593999997E+02  0.45594000000E+02  0.51100000000E-03 0.  1.
         11   -1    0    0    0    0 -0.00000000000E+00 -0.00000000000E+00 -0.45593999997E+02  0.45594000000E+02  0.51100000000E-03 0. -1.
    9900012    2    1    2    0    0  0.17508529949E+02  0.31799057319E+02 -0.18314934829E+02  0.50528861972E+02  0.30000006451E+02 0.  0.
        -12    1    1    2    0    0 -0.17508529949E+02 -0.31799057319E+02  0.18314934829E+02  0.40659138028E+02  0.00000000000E+00 0.  1.
         11    1    3    3    0    0  0.61022908821E+01  0.11724633826E+02 -0.13926760631E+02  0.19200511824E+02  0.51100000000E-03 0. -1.
        -11    1    3    3    0    0 -0.31358113704E-01 -0.30614848257E+01  0.31985225175E+01  0.44276652115E+01  0.51100000000E-03 0.  1.
         12    1    3    3    0    0  0.11437597180E+02  0.23135908319E+02 -0.75866967152E+01  0.26900684936E+02  0.00000000000E+00 0. -1.
</event>
<event>
 7    1  0.5041278E-013  0.5052885E+02  0.7816164E-02  0.1300439E+00
        -11   -1    0    0    0    0  0.00000000000E+00  0.00000000000E+00  0.45593999997E+02  0.45594000000E+02  0.51100000000E-03 0.  1.
         11   -1    0    0    0    0 -0.00000000000E+00 -0.00000000000E+00 -0.45593999997E+02  0.45594000000E+02  0.51100000000E-03 0. -1.
    9900012    2    1    2    0    0  0.57631968977E+01  0.40101561053E+02  0.34375658562E+01  0.50528849783E+02  0.29999969401E+02 0.  0.
        -12    1    1    2    0    0 -0.57631968977E+01 -0.40101561053E+02 -0.34375658562E+01  0.40659150217E+02  0.00000000000E+00 0.  1.
         11    1    3    3    0    0 -0.60946744297E+01  0.14488620442E+02  0.48297333775E+01  0.16443585481E+02  0.51100000000E-03 0. -1.
        -11    1    3    3    0    0 -0.39021415087E-01 -0.16787040414E+01 -0.38617793672E+01  0.42110461968E+01  0.51100000000E-03 0.  1.
         12    1    3    3    0    0  0.11896892742E+02  0.27291644652E+02  0.24696118459E+01  0.29874218105E+02  0.00000000000E+00 0. -1.
</event>
<event>
 7    1  0.5041278E-013  0.5052885E+02  0.7816164E-02  0.1300439E+00
        -11   -1    0    0    0    0  0.00000000000E+00  0.00000000000E+00  0.45593999997E+02  0.45594000000E+02  0.51100000000E-03 0.  1.
         11   -1    0    0    0    0 -0.00000000000E+00 -0.00000000000E+00 -0.45593999997E+02  0.45594000000E+02  0.51100000000E-03 0. -1.
    9900012    2    1    2    0    0 -0.34014838976E+02 -0.86515287891E+01 -0.20525790204E+02  0.50528852389E+02  0.29999977322E+02 0.  0.
        -12    1    1    2    0    0  0.34014838976E+02  0.86515287891E+01  0.20525790204E+02  0.40659147611E+02  0.00000000000E+00 0.  1.
         11    1    3    3    0    0 -0.11912331480E+02 -0.42889599065E+01 -0.43155997343E+01  0.13376218438E+02  0.51100000000E-03 0. -1.
        -11    1    3    3    0    0 -0.75100406904E+01  0.10063126787E+02 -0.35766767141E+01  0.13056027285E+02  0.51100000000E-03 0.  1.
         12    1    3    3    0    0 -0.14592466805E+02 -0.14425695669E+02 -0.12633513756E+02  0.24096606666E+02  0.00000000000E+00 0. -1.
</event>
<event>
 7    1  0.5041278E-013  0.5052885E+02  0.7816164E-02  0.1300439E+00
        -11   -1    0    0    0    0  0.00000000000E+00  0.00000000000E+00  0.45593999997E+02  0.45594000000E+02  0.51100000000E-03 0.  1.
         11   -1    0    0    0    0 -0.00000000000E+00 -0.00000000000E+00 -0.45593999997E+02  0.45594000000E+02  0.51100000000E-03 0. -1.
    9900012    2    1    2    0    0  0.24829797332E+02  0.20128653508E+02 -0.25129369656E+02  0.50528846702E+02  0.29999960036E+02 0.  0.
        -12    1    1    2    0    0 -0.24829797332E+02 -0.20128653508E+02  0.25129369656E+02  0.40659153298E+02  0.00000000000E+00 0.  1.
         11    1    3    3    0    0  0.76986502551E+01  0.11908126429E+02 -0.17945878619E+02  0.22871975220E+02  0.51100000000E-03 0. -1.
        -11    1    3    3    0    0  0.14092275261E+01 -0.54449062679E+01 -0.31257086760E+01  0.64345148593E+01  0.51100000000E-03 0.  1.
        -12    1    3    3    0    0  0.15721919551E+02  0.13665433347E+02 -0.40577823608E+01  0.21222356623E+02  0.00000000000E+00 0.  1.
</event>
<event>
 7    1  0.5041278E-013  0.5052886E+02  0.7816164E-02  0.1300439E+00
        -11   -1    0    0    0    0  0.00000000000E+00  0.00000000000E+00  0.45593999997E+02  0.45594000000E+02  0.51100000000E-03 0.  1.
         11   -1    0    0    0    0 -0.00000000000E+00 -0.00000000000E+00 -0.45593999997E+02  0.45594000000E+02  0.51100000000E-03 0. -1.
    9900012    2    1    2    0    0  0.39178075380E+02  0.21271136594E+01  0.10663940045E+02  0.50528858097E+02  0.29999994672E+02 0.  0.
        -12    1    1    2    0    0 -0.39178075380E+02 -0.21271136594E+01 -0.10663940045E+02  0.40659141903E+02  0.00000000000E+00 0.  1.
         11    1    3    3    0    0  0.72386540460E+01  0.88261749715E+00 -0.21524059723E+01  0.76032873006E+01  0.51100000000E-03 0. -1.
        -11    1    3    3    0    0  0.12152378327E+02 -0.97116962252E+00 -0.76335007672E+01  0.14383803518E+02  0.51100000000E-03 0.  1.
        -12    1    3    3    0    0  0.19787043007E+02  0.22156657847E+01  0.20449846784E+02  0.28541767278E+02  0.00000000000E+00 0.  1.
</event>
<event>
 7    1  0.5041278E-013  0.5052886E+02  0.7816164E-02  0.1300439E+00
        -11   -1    0    0    0    0  0.00000000000E+00  0.00000000000E+00  0.45593999997E+02  0.45594000000E+02  0.51100000000E-03 0.  1.
         11   -1    0    0    0    0 -0.00000000000E+00 -0.00000000000E+00 -0.45593999997E+02  0.45594000000E+02  0.51100000000E-03 0. -1.
    9900012    2    1    2    0    0  0.24976047086E+02  0.10645517335E+02 -0.30266084306E+02  0.50528858020E+02  0.29999994436E+02 0.  0.
        -12    1    1    2    0    0 -0.24976047086E+02 -0.10645517335E+02  0.30266084306E+02  0.40659141980E+02  0.00000000000E+00 0.  1.
         11    1    3    3    0    0 -0.14662234647E+01  0.54291750401E+01  0.17861181904E+01  0.59005060220E+01  0.51100000000E-03 0. -1.
        -11    1    3    3    0    0  0.93805150567E+01 -0.63833473452E+00 -0.20532203557E+01  0.96237855365E+01  0.51100000000E-03 0.  1.
         12    1    3    3    0    0  0.17061755494E+02  0.58546770299E+01 -0.29998982141E+02  0.35004566461E+02  0.00000000000E+00 0. -1.
</event>
<event>
 7    1  0.5041278E-013  0.5052885E+02  0.7816164E-02  0.1300439E+00
        -11   -1    0    0    0    0  0.00000000000E+00  0.00000000000E+00  0.45593999997E+02  0.45594000000E+02  0.51100000000E-03 0.  1.
         11   -1    0    0    0    0 -0.00000000000E+00 -0.00000000000E+00 -0.45593999997E+02  0.45594000000E+02  0.51100000000E-03 0. -1.
    9900012    2    1    2    0    0 -0.70784041942E+01 -0.36269501000E+01 -0.39873646587E+02  0.50528852627E+02  0.29999978044E+02 0.  0.
        -12    1    1    2    0    0  0.70784041942E+01  0.36269501000E+01  0.39873646587E+02  0.40659147373E+02  0.00000000000E+00 0.  1.
         11    1    3    3    0    0 -0.32819955812E+01 -0.82981938255E+01 -0.97933319256E+01  0.13249183606E+02  0.51100000000E-03 0.  1.
        -11    1    3    3    0    0 -0.90985359068E+01  0.47692938082E+01 -0.30277727447E+02  0.31972961994E+02  0.51100000000E-03 0. -1.
         12    1    3    3    0    0  0.53021272938E+01 -0.98050082757E-01  0.19741278496E+00  0.53067070266E+01  0.00000000000E+00 0. -1.
</event>
<event>
 7    1  0.5041278E-013  0.5052885E+02  0.7816164E-02  0.1300439E+00
        -11   -1    0    0    0    0  0.00000000000E+00  0.00000000000E+00  0.45593999997E+02  0.45594000000E+02  0.51100000000E-03 0. -1.
         11   -1    0    0    0    0 -0.00000000000E+00 -0.00000000000E+00 -0.45593999997E+02  0.45594000000E+02  0.51100000000E-03 0.  1.
    9900012    2    1    2    0    0 -0.22410970604E+02  0.16846681162E+01  0.33883281513E+02  0.50528850032E+02  0.29999970156E+02 0.  0.
        -12    1    1    2    0    0  0.22410970604E+02 -0.16846681162E+01 -0.33883281513E+02  0.40659149968E+02  0.00000000000E+00 0.  1.
         11    1    3    3    0    0 -0.12937729268E+02  0.17391518599E+01  0.19290094151E+02  0.23291999064E+02  0.51100000000E-03 0. -1.
        -11    1    3    3    0    0 -0.15852983034E+01  0.96043893506E+01  0.29389681905E+01  0.10168333187E+02  0.51100000000E-03 0.  1.
         12    1    3    3    0    0 -0.78879430323E+01 -0.96588730943E+01  0.11654219172E+02  0.17068517781E+02  0.00000000000E+00 0. -1.
</event>
<event>
 7    1  0.5041278E-013  0.5052887E+02  0.7816164E-02  0.1300439E+00
        -11   -1    0    0    0    0  0.00000000000E+00  0.00000000000E+00  0.45593999997E+02  0.45594000000E+02  0.51100000000E-03 0.  1.
         11   -1    0    0    0    0 -0.00000000000E+00 -0.00000000000E+00 -0.45593999997E+02  0.45594000000E+02  0.51100000000E-03 0. -1.
    9900012    2    1    2    0    0 -0.16695039684E+02 -0.25002325130E+02 -0.27373793377E+02  0.50528866022E+02  0.30000018761E+02 0.  0.
        -12    1    1    2    0    0  0.16695039684E+02  0.25002325130E+02  0.27373793377E+02  0.40659133978E+02  0.00000000000E+00 0.  1.
         11    1    3    3    0    0  0.39043591285E+01 -0.10956315411E+02 -0.46191586467E+01  0.12514850956E+02  0.51100000000E-03 0. -1.
        -11    1    3    3    0    0 -0.14960013085E+01 -0.87626192816E+01 -0.16134368622E+01  0.90346386402E+01  0.51100000000E-03 0.  1.
         12    1    3    3    0    0 -0.19103397504E+02 -0.52833904376E+01 -0.21141197868E+02  0.28979376426E+02  0.00000000000E+00 0. -1.
</event>
<event>
 7    1  0.5041278E-013  0.5052895E+02  0.7816164E-02  0.1300438E+00
        -11   -1    0    0    0    0  0.00000000000E+00  0.00000000000E+00  0.45593999997E+02  0.45594000000E+02  0.51100000000E-03 0.  1.
         11   -1    0    0    0    0 -0.00000000000E+00 -0.00000000000E+00 -0.45593999997E+02  0.45594000000E+02  0.51100000000E-03 0. -1.
    9900012    2    1    2    0    0  0.38750563397E+02  0.10245699260E+02 -0.68247792680E+01  0.50528952680E+02  0.30000282164E+02 0.  0.
        -12    1    1    2    0    0 -0.38750563397E+02 -0.10245699260E+02  0.68247792680E+01  0.40659047320E+02  0.00000000000E+00 0.  1.
         11    1    3    3    0    0  0.18950851470E+01  0.49523428543E+01 -0.23082086754E+01  0.57831544171E+01  0.51100000000E-03 0. -1.
        -11    1    3    3    0    0  0.17339688732E+02  0.28364285719E+01  0.10075790012E+02  0.20254176779E+02  0.51100000000E-03 0.  1.
         12    1    3    3    0    0  0.19515789518E+02  0.24569278336E+01 -0.14592360604E+02  0.24491621484E+02  0.00000000000E+00 0. -1.
</event>
<event>
 7    1  0.5041278E-013  0.5052886E+02  0.7816164E-02  0.1300439E+00
        -11   -1    0    0    0    0  0.00000000000E+00  0.00000000000E+00  0.45593999997E+02  0.45594000000E+02  0.51100000000E-03 0. -1.
         11   -1    0    0    0    0 -0.00000000000E+00 -0.00000000000E+00 -0.45593999997E+02  0.45594000000E+02  0.51100000000E-03 0.  1.
    9900012    2    1    2    0    0  0.52923517341E+01  0.31788912459E+02  0.24791559950E+02  0.50528863426E+02  0.30000010869E+02 0.  0.
        -12    1    1    2    0    0 -0.52923517341E+01 -0.31788912459E+02 -0.24791559950E+02  0.40659136574E+02  0.00000000000E+00 0.  1.
         11    1    3    3    0    0  0.66521687111E+01  0.13904165264E+01  0.47940029313E+01  0.83166742779E+01  0.51100000000E-03 0. -1.
        -11    1    3    3    0    0 -0.99999112335E+01  0.16770241089E+02  0.49376408268E+01  0.20139997718E+02  0.51100000000E-03 0.  1.
         12    1    3    3    0    0  0.86400942565E+01  0.13628254843E+02  0.15059916192E+02  0.22072191430E+02  0.00000000000E+00 0. -1.
</event>
<event>
 7    1  0.5041278E-013  0.5052888E+02  0.7816164E-02  0.1300439E+00
        -11   -1    0    0    0    0  0.00000000000E+00  0.00000000000E+00  0.45593999997E+02  0.45594000000E+02  0.51100000000E-03 0.  1.
         11   -1    0    0    0    0 -0.00000000000E+00 -0.00000000000E+00 -0.45593999997E+02  0.45594000000E+02  0.51100000000E-03 0. -1.
    9900012    2    1    2    0    0  0.44063014703E+01  0.35290642338E+02 -0.19705823986E+02  0.50528875216E+02  0.30000046706E+02 0.  0.
        -12    1    1    2    0    0 -0.44063014703E+01 -0.35290642338E+02  0.19705823986E+02  0.40659124784E+02  0.00000000000E+00 0.  1.
         11    1    3    3    0    0 -0.70425475077E+01  0.17156723220E+02 -0.14661497927E+02  0.23641280608E+02  0.51100000000E-03 0. -1.
        -11    1    3    3    0    0  0.96918461590E+01  0.19160036076E+02 -0.83233249238E+01  0.23028604005E+02  0.51100000000E-03 0.  1.
        -12    1    3    3    0    0  0.17570028191E+01 -0.10261169578E+01  0.32789988648E+01  0.38589906028E+01  0.00000000000E+00 0.  1.
</event>
<event>
 7    1  0.5041278E-013  0.5052886E+02  0.7816164E-02  0.1300439E+00
        -11   -1    0    0    0    0  0.00000000000E+00  0.00000000000E+00  0.45593999997E+02  0.45594000000E+02  0.51100000000E-03 0.  1.
         11   -1    0    0    0    0 -0.00000000000E+00 -0.00000000000E+00 -0.45593999997E+02  0.45594000000E+02  0.51100000000E-03 0. -1.
    9900012    2    1    2    0    0 -0.28557688498E+02 -0.66936871190E+01 -0.28157029169E+02  0.50528864358E+02  0.30000013701E+02 0.  0.
        -12    1    1    2    0    0  0.28557688498E+02  0.66936871190E+01  0.28157029169E+02  0.40659135642E+02  0.00000000000E+00 0.  1.
         11    1    3    3    0    0 -0.11200683048E+02 -0.57305428757E+01 -0.30241084918E+01  0.12939847558E+02  0.51100000000E-03 0. -1.
        -11    1    3    3    0    0 -0.65499423377E+01 -0.67828598368E+01 -0.23354854459E+02  0.25186467780E+02  0.51100000000E-03 0.  1.
        -12    1    3    3    0    0 -0.10807063112E+02  0.58197155935E+01 -0.17780662180E+01  0.12402549019E+02  0.00000000000E+00 0.  1.
</event>
<event>
 7    1  0.5041278E-013  0.5052885E+02  0.7816164E-02  0.1300439E+00
        -11   -1    0    0    0    0  0.00000000000E+00  0.00000000000E+00  0.45593999997E+02  0.45594000000E+02  0.51100000000E-03 0.  1.
         11   -1    0    0    0    0 -0.00000000000E+00 -0.00000000000E+00 -0.45593999997E+02  0.45594000000E+02  0.51100000000E-03 0. -1.
    9900012    2    1    2    0    0  0.15769944296E+02  0.23515097016E+02 -0.29180736582E+02  0.50528851974E+02  0.29999976060E+02 0.  0.
        -12    1    1    2    0    0 -0.15769944296E+02 -0.23515097016E+02  0.29180736582E+02  0.40659148026E+02  0.00000000000E+00 0.  1.
         11    1    3    3    0    0  0.15501739648E+02  0.18439952184E+02 -0.12056478487E+02  0.26938716421E+02  0.51100000000E-03 0. -1.
        -11    1    3    3    0    0 -0.31626997397E+01  0.25877576360E+01  0.16028325661E+01  0.43895593996E+01  0.51100000000E-03 0.  1.
         12    1    3    3    0    0  0.34309043876E+01  0.24873871961E+01 -0.18727090662E+02  0.19200576154E+02  0.00000000000E+00 0. -1.
</event>
<event>
 7    1  0.5041278E-013  0.5052885E+02  0.7816164E-02  0.1300439E+00
        -11   -1    0    0    0    0  0.00000000000E+00  0.00000000000E+00  0.45593999997E+02  0.45594000000E+02  0.51100000000E-03 0.  1.
         11   -1    0    0    0    0 -0.00000000000E+00 -0.00000000000E+00 -0.45593999997E+02  0.45594000000E+02  0.51100000000E-03 0. -1.
    9900012    2    1    2    0    0  0.76292886765E+01  0.22501535103E+02 -0.32994561258E+02  0.50528853424E+02  0.29999980466E+02 0.  0.
        -12    1    1    2    0    0 -0.76292886765E+01 -0.22501535103E+02  0.32994561258E+02  0.40659146576E+02  0.00000000000E+00 0.  1.
         11    1    3    3    0    0  0.58890606171E+00  0.40904747184E+00 -0.65645130133E+01  0.66035567346E+01  0.51100000000E-03 0. -1.
        -11    1    3    3    0    0 -0.86851449308E+01  0.91588838291E+01 -0.31730429328E+01  0.13014803002E+02  0.51100000000E-03 0.  1.
         12    1    3    3    0    0  0.15725527546E+02  0.12933603803E+02 -0.23257005312E+02  0.30910493687E+02  0.00000000000E+00 0. -1.
</event>
<event>
 7    1  0.5041278E-013  0.5052887E+02  0.7816164E-02  0.1300439E+00
        -11   -1    0    0    0    0  0.00000000000E+00  0.00000000000E+00  0.45593999997E+02  0.45594000000E+02  0.51100000000E-03 0. -1.
         11   -1    0    0    0    0 -0.00000000000E+00 -0.00000000000E+00 -0.45593999997E+02  0.45594000000E+02  0.51100000000E-03 0.  1.
    9900012    2    1    2    0    0 -0.18476592167E+02 -0.35327259710E+02  0.79852959224E+01  0.50528872025E+02  0.30000037006E+02 0.  0.
        -12    1    1    2    0    0  0.18476592167E+02  0.35327259710E+02 -0.79852959224E+01  0.40659127975E+02  0.00000000000E+00 0.  1.
         11    1    3    3    0    0 -0.23085565465E+01  0.29814006893E+01 -0.68053043539E+00  0.38316191529E+01  0.51100000000E-03 0. -1.
        -11    1    3    3    0    0 -0.89604983242E+01 -0.14496259233E+02 -0.56978102488E+01  0.17969337881E+02  0.51100000000E-03 0.  1.
         12    1    3    3    0    0 -0.72075372964E+01 -0.23812401166E+02  0.14363636607E+02  0.28727914991E+02  0.00000000000E+00 0. -1.
</event>
<event>
 7    1  0.5230613E-013  0.5052886E+02  0.7816164E-02  0.1300439E+00
        -11   -1    0    0    0    0  0.00000000000E+00  0.00000000000E+00  0.45593999997E+02  0.45594000000E+02  0.51100000000E-03 0.  1.
         11   -1    0    0    0    0 -0.00000000000E+00 -0.00000000000E+00 -0.45593999997E+02  0.45594000000E+02  0.51100000000E-03 0. -1.
    9900012    2    1    2    0    0 -0.34751027870E+02 -0.21068844868E+02 -0.12787839411E+01  0.50528862645E+02  0.30000008497E+02 0.  0.
        -12    1    1    2    0    0  0.34751027870E+02  0.21068844868E+02  0.12787839411E+01  0.40659137355E+02  0.00000000000E+00 0.  1.
         11    1    3    3    0    0 -0.23295972476E+02 -0.17431893011E+02  0.32712844433E+01  0.29279250840E+02  0.51100000000E-03 0. -1.
        -11    1    3    3    0    0  0.21938633767E+01 -0.30546937755E+01  0.37119868739E+01  0.52842253350E+01  0.51100000000E-03 0.  1.
         12    1    3    3    0    0 -0.13648918770E+02 -0.58225808127E+00 -0.82620552583E+01  0.15965386471E+02  0.00000000000E+00 0. -1.
</event>
<event>
 7    1  0.5041278E-013  0.5052886E+02  0.7816164E-02  0.1300439E+00
        -11   -1    0    0    0    0  0.00000000000E+00  0.00000000000E+00  0.45593999997E+02  0.45594000000E+02  0.51100000000E-03 0. -1.
         11   -1    0    0    0    0 -0.00000000000E+00 -0.00000000000E+00 -0.45593999997E+02  0.45594000000E+02  0.51100000000E-03 0.  1.
    9900012    2    1    2    0    0  0.30427368689E+02  0.67838801054E+01  0.26102103699E+02  0.50528860657E+02  0.30000002452E+02 0.  0.
        -12    1    1    2    0    0 -0.30427368689E+02 -0.67838801054E+01 -0.26102103699E+02  0.40659139343E+02  0.00000000000E+00 0.  1.
         11    1    3    3    0    0  0.50320189741E+01  0.42536150703E+01  0.63204985208E+00  0.66192101794E+01  0.51100000000E-03 0. -1.
        -11    1    3    3    0    0  0.10219909278E+02  0.81687120673E+01  0.24398644315E+02  0.27685162942E+02  0.51100000000E-03 0.  1.
         12    1    3    3    0    0  0.15175440437E+02 -0.56384470323E+01  0.10714095322E+01  0.16224487535E+02  0.00000000000E+00 0. -1.
</event>
<event>
 7    1  0.5041278E-013  0.5052886E+02  0.7816164E-02  0.1300439E+00
        -11   -1    0    0    0    0  0.00000000000E+00  0.00000000000E+00  0.45593999997E+02  0.45594000000E+02  0.51100000000E-03 0.  1.
         11   -1    0    0    0    0 -0.00000000000E+00 -0.00000000000E+00 -0.45593999997E+02  0.45594000000E+02  0.51100000000E-03 0. -1.
    9900012    2    1    2    0    0  0.29676389270E+02  0.10497678029E+02 -0.25734727950E+02  0.50528861461E+02  0.30000004897E+02 0.  0.
        -12    1    1    2    0    0 -0.29676389270E+02 -0.10497678029E+02  0.25734727950E+02  0.40659138539E+02  0.00000000000E+00 0.  1.
         11    1    3    3    0    0 -0.34845153353E+01  0.43731442998E+01 -0.30209911172E+01  0.63555193163E+01  0.51100000000E-03 0. -1.
        -11    1    3    3    0    0  0.17822116826E+02  0.29328624840E+01 -0.19571495029E+01  0.18167552531E+02  0.51100000000E-03 0.  1.
        -12    1    3    3    0    0  0.15338787779E+02  0.31916712450E+01 -0.20756587330E+02  0.26005789614E+02  0.00000000000E+00 0.  1.
</event>
<event>
 7    1  0.5041278E-013  0.5052887E+02  0.7816164E-02  0.1300439E+00
        -11   -1    0    0    0    0  0.00000000000E+00  0.00000000000E+00  0.45593999997E+02  0.45594000000E+02  0.51100000000E-03 0.  1.
         11   -1    0    0    0    0 -0.00000000000E+00 -0.00000000000E+00 -0.45593999997E+02  0.45594000000E+02  0.51100000000E-03 0. -1.
    9900012    2    1    2    0    0 -0.33931927432E+02 -0.19322619856E+02 -0.11332513975E+02  0.50528865598E+02  0.30000017470E+02 0.  0.
        -12    1    1    2    0    0  0.33931927432E+02  0.19322619856E+02  0.11332513975E+02  0.40659134402E+02  0.00000000000E+00 0.  1.
         11    1    3    3    0    0 -0.26053408683E+02 -0.13296855962E+02  0.10538817551E+01  0.29269389291E+02  0.51100000000E-03 0. -1.
        -11    1    3    3    0    0  0.18518508761E+01 -0.13295986524E+01  0.21593586404E+01  0.31400659615E+01  0.51100000000E-03 0.  1.
         12    1    3    3    0    0 -0.97303696252E+01 -0.46961652414E+01 -0.14545754371E+02  0.18119410345E+02  0.00000000000E+00 0. -1.
</event>
<event>
 7    1  0.5041278E-013  0.5052885E+02  0.7816164E-02  0.1300439E+00
        -11   -1    0    0    0    0  0.00000000000E+00  0.00000000000E+00  0.45593999997E+02  0.45594000000E+02  0.51100000000E-03 0.  1.
         11   -1    0    0    0    0 -0.00000000000E+00 -0.00000000000E+00 -0.45593999997E+02  0.45594000000E+02  0.51100000000E-03 0. -1.
    9900012    2    1    2    0    0 -0.38701025239E+02  0.70882532702E+01 -0.10254449632E+02  0.50528850646E+02  0.29999972024E+02 0.  0.
        -12    1    1    2    0    0  0.38701025239E+02 -0.70882532702E+01  0.10254449632E+02  0.40659149354E+02  0.00000000000E+00 0.  1.
         11    1    3    3    0    0 -0.12478738989E+02  0.44570848669E+01  0.22526879913E+01  0.13440949955E+02  0.51100000000E-03 0. -1.
        -11    1    3    3    0    0  0.27445519776E+01 -0.17519041607E+01  0.25618526160E+01  0.41430451160E+01  0.51100000000E-03 0.  1.
         12    1    3    3    0    0 -0.28966838227E+02  0.43830725640E+01 -0.15068990239E+02  0.32944855575E+02  0.00000000000E+00 0. -1.
</event>
<event>
 7    1  0.5041278E-013  0.5052887E+02  0.7816164E-02  0.1300439E+00
        -11   -1    0    0    0    0  0.00000000000E+00  0.00000000000E+00  0.45593999997E+02  0.45594000000E+02  0.51100000000E-03 0. -1.
         11   -1    0    0    0    0 -0.00000000000E+00 -0.00000000000E+00 -0.45593999997E+02  0.45594000000E+02  0.51100000000E-03 0.  1.
    9900012    2    1    2    0    0  0.22159166083E+02  0.26131716882E+02  0.21892217294E+02  0.50528874988E+02  0.30000046014E+02 0.  0.
        -12    1    1    2    0    0 -0.22159166083E+02 -0.26131716882E+02 -0.21892217294E+02  0.40659125012E+02  0.00000000000E+00 0.  1.
         11    1    3    3    0    0  0.45235637725E+01  0.19544852701E+02  0.45868432269E+01  0.20579189181E+02  0.51100000000E-03 0. -1.
        -11    1    3    3    0    0  0.96312967301E+00  0.27143611399E+01 -0.24710077091E+01  0.37948984867E+01  0.51100000000E-03 0.  1.
         12    1    3    3    0    0  0.16672472637E+02  0.38725030417E+01  0.19776381776E+02  0.26154787321E+02  0.00000000000E+00 0. -1.
</event>
<event>
 7    1  0.5041278E-013  0.5052887E+02  0.7816164E-02  0.1300439E+00
        -11   -1    0    0    0    0  0.00000000000E+00  0.00000000000E+00  0.45593999997E+02  0.45594000000E+02  0.51100000000E-03 0.  1.
         11   -1    0    0    0    0 -0.00000000000E+00 -0.00000000000E+00 -0.45593999997E+02  0.45594000000E+02  0.51100000000E-03 0. -1.
    9900012    2    1    2    0    0 -0.10191345981E+00 -0.37688803624E+02 -0.15254799047E+02  0.50528865738E+02  0.30000017897E+02 0.  0.
        -12    1    1    2    0    0  0.10191345981E+00  0.37688803624E+02  0.15254799047E+02  0.40659134262E+02  0.00000000000E+00 0.  1.
         11    1    3    3    0    0 -0.25599673019E+01 -0.20742023527E+01 -0.78912208813E+01  0.85514393669E+01  0.51100000000E-03 0. -1.
        -11    1    3    3    0    0 -0.51393336126E+01 -0.28899148128E+02 -0.10791949787E+02  0.31273626156E+02  0.51100000000E-03 0.  1.
        -12    1    3    3    0    0  0.75973874547E+01 -0.67154531438E+01  0.34283716212E+01  0.10703800215E+02  0.00000000000E+00 0.  1.
</event>
<event>
 7    1  0.5041278E-013  0.5052886E+02  0.7816164E-02  0.1300439E+00
        -11   -1    0    0    0    0  0.00000000000E+00  0.00000000000E+00  0.45593999997E+02  0.45594000000E+02  0.51100000000E-03 0. -1.
         11   -1    0    0    0    0 -0.00000000000E+00 -0.00000000000E+00 -0.45593999997E+02  0.45594000000E+02  0.51100000000E-03 0.  1.
    9900012    2    1    2    0    0  0.23653410423E+02 -0.32920393120E+02  0.31511375600E+01  0.50528858644E+02  0.29999996335E+02 0.  0.
        -12    1    1    2    0    0 -0.23653410423E+02  0.32920393120E+02 -0.31511375600E+01  0.40659141356E+02  0.00000000000E+00 0.  1.
         11    1    3    3    0    0 -0.20010080742E+01 -0.60488505176E+01 -0.12275472096E+01  0.64884126187E+01  0.51100000000E-03 0. -1.
        -11    1    3    3    0    0  0.64231831759E+01 -0.15901696020E+02 -0.77233107726E+01  0.18808794432E+02  0.51100000000E-03 0.  1.
         12    1    3    3    0    0  0.19231235322E+02 -0.10969846583E+02  0.12101995542E+02  0.25231651594E+02  0.00000000000E+00 0. -1.
</event>
<event>
 7    1  0.5041278E-013  0.5052886E+02  0.7816164E-02  0.1300439E+00
        -11   -1    0    0    0    0  0.00000000000E+00  0.00000000000E+00  0.45593999997E+02  0.45594000000E+02  0.51100000000E-03 0.  1.
         11   -1    0    0    0    0 -0.00000000000E+00 -0.00000000000E+00 -0.45593999997E+02  0.45594000000E+02  0.51100000000E-03 0. -1.
    9900012    2    1    2    0    0 -0.11619800431E+01  0.14226902723E+01 -0.40617629398E+02  0.50528855111E+02  0.29999985595E+02 0.  0.
        -12    1    1    2    0    0  0.11619800431E+01 -0.14226902723E+01  0.40617629398E+02  0.40659144889E+02  0.00000000000E+00 0.  1.
         11    1    3    3    0    0 -0.19507775533E+01 -0.26286185181E+00 -0.37787260323E+02  0.37838494585E+02  0.51100000000E-03 0. -1.
        -11    1    3    3    0    0 -0.33529415555E+01 -0.29120624240E+01 -0.44572559304E+01  0.62920152038E+01  0.51100000000E-03 0.  1.
         12    1    3    3    0    0  0.41417390657E+01  0.45976145481E+01  0.16268868561E+01  0.63983453224E+01  0.00000000000E+00 0. -1.
</event>
<event>
 7    1  0.5041278E-013  0.5052885E+02  0.7816164E-02  0.1300439E+00
        -11   -1    0    0    0    0  0.00000000000E+00  0.00000000000E+00  0.45593999997E+02  0.45594000000E+02  0.51100000000E-03 0.  1.
         11   -1    0    0    0    0 -0.00000000000E+00 -0.00000000000E+00 -0.45593999997E+02  0.45594000000E+02  0.51100000000E-03 0. -1.
    9900012    2    1    2    0    0  0.13802988428E+02  0.11213378812E+02 -0.36563695438E+02  0.50528853698E+02  0.29999981300E+02 0.  0.
        -12    1    1    2    0    0 -0.13802988428E+02 -0.11213378812E+02  0.36563695438E+02  0.40659146302E+02  0.00000000000E+00 0.  1.
         11    1    3    3    0    0  0.51106567178E+01 -0.18647998897E+01 -0.16905447627E+02  0.17759235638E+02  0.51100000000E-03 0. -1.
        -11    1    3    3    0    0  0.12413913906E+02  0.10733333030E+02 -0.22262853830E+02  0.27657627471E+02  0.51100000000E-03 0.  1.
        -12    1    3    3    0    0 -0.37215821958E+01  0.23448456710E+01  0.26046060191E+01  0.51119905884E+01  0.00000000000E+00 0.  1.
</event>
<event>
 7    1  0.5041278E-013  0.5052886E+02  0.7816164E-02  0.1300439E+00
        -11   -1    0    0    0    0  0.00000000000E+00  0.00000000000E+00  0.45593999997E+02  0.45594000000E+02  0.51100000000E-03 0. -1.
         11   -1    0    0    0    0 -0.00000000000E+00 -0.00000000000E+00 -0.45593999997E+02  0.45594000000E+02  0.51100000000E-03 0.  1.
    9900012    2    1    2    0    0  0.20769367078E+01  0.28942710610E+02  0.28481074040E+02  0.50528859060E+02  0.29999997598E+02 0.  0.
        -12    1    1    2    0    0 -0.20769367078E+01 -0.28942710610E+02 -0.28481074040E+02  0.40659140940E+02  0.00000000000E+00 0.  1.
         11    1    3    3    0    0  0.45878609383E+01  0.29089999496E+00  0.45112843181E+01  0.64408677409E+01  0.51100000000E-03 0. -1.
        -11    1    3    3    0    0  0.35280672078E+01  0.60014463562E+00  0.12808994079E+02  0.13299539893E+02  0.51100000000E-03 0.  1.
         12    1    3    3    0    0 -0.60389914383E+01  0.28051665979E+02  0.11160795643E+02  0.30788451426E+02  0.00000000000E+00 0. -1.
</event>
<event>
 7    1  0.5100145E-013  0.5052886E+02  0.7816164E-02  0.1300439E+00
        -11   -1    0    0    0    0  0.00000000000E+00  0.00000000000E+00  0.45593999997E+02  0.45594000000E+02  0.51100000000E-03 0. -1.
         11   -1    0    0    0    0 -0.00000000000E+00 -0.00000000000E+00 -0.45593999997E+02  0.45594000000E+02  0.51100000000E-03 0.  1.
    9900012    2    1    2    0    0  0.36718341422E+02 -0.14284172758E+02  0.10044481164E+02  0.50528858469E+02  0.29999995803E+02 0.  0.
        -12    1    1    2    0    0 -0.36718341422E+02  0.14284172758E+02 -0.10044481164E+02  0.40659141531E+02  0.00000000000E+00 0.  1.
         11    1    3    3    0    0  0.19862727684E+02 -0.83461056042E+01  0.49683062701E+01  0.22110393422E+02  0.51100000000E-03 0. -1.
        -11    1    3    3    0    0  0.73604011352E+01 -0.12653325277E+02 -0.20465700450E+01  0.14780750815E+02  0.51100000000E-03 0.  1.
        -12    1    3    3    0    0  0.94952126029E+01  0.67152581233E+01  0.71227449388E+01  0.13637714233E+02  0.00000000000E+00 0.  1.
</event>
<event>
 7    1  0.5041278E-013  0.5052885E+02  0.7816164E-02  0.1300439E+00
        -11   -1    0    0    0    0  0.00000000000E+00  0.00000000000E+00  0.45593999997E+02  0.45594000000E+02  0.51100000000E-03 0. -1.
         11   -1    0    0    0    0 -0.00000000000E+00 -0.00000000000E+00 -0.45593999997E+02  0.45594000000E+02  0.51100000000E-03 0.  1.
    9900012    2    1    2    0    0 -0.15309003049E+01  0.93292147403E+01  0.39544761816E+02  0.50528854774E+02  0.29999984571E+02 0.  0.
        -12    1    1    2    0    0  0.15309003049E+01 -0.93292147403E+01 -0.39544761816E+02  0.40659145226E+02  0.00000000000E+00 0.  1.
         11    1    3    3    0    0  0.39290370977E+01  0.11881099490E+02  0.30108455426E+02  0.32605474173E+02  0.51100000000E-03 0. -1.
        -11    1    3    3    0    0 -0.86666059873E+01 -0.34443189497E+01  0.10849890560E+02  0.14307114237E+02  0.51100000000E-03 0.  1.
        -12    1    3    3    0    0  0.32066685847E+01  0.89243419995E+00 -0.14135841699E+01  0.36162663645E+01  0.00000000000E+00 0.  1.
</event>
<event>
 7    1  0.5041278E-013  0.5052885E+02  0.7816164E-02  0.1300439E+00
        -11   -1    0    0    0    0  0.00000000000E+00  0.00000000000E+00  0.45593999997E+02  0.45594000000E+02  0.51100000000E-03 0.  1.
         11   -1    0    0    0    0 -0.00000000000E+00 -0.00000000000E+00 -0.45593999997E+02  0.45594000000E+02  0.51100000000E-03 0. -1.
    9900012    2    1    2    0    0  0.37156907327E+02 -0.76917925846E+01 -0.14607095568E+02  0.50528847572E+02  0.29999962679E+02 0.  0.
        -12    1    1    2    0    0 -0.37156907327E+02  0.76917925846E+01  0.14607095568E+02  0.40659152428E+02  0.00000000000E+00 0.  1.
         11    1    3    3    0    0  0.57044045518E+01 -0.83283373639E+01  0.15144915669E+01  0.10207601065E+02  0.51100000000E-03 0. -1.
        -11    1    3    3    0    0 -0.16800162617E+01  0.31005134555E+01 -0.28901518137E+01  0.45594534864E+01  0.51100000000E-03 0.  1.
         12    1    3    3    0    0  0.33132519037E+02 -0.24639686762E+01 -0.13231435321E+02  0.35761793020E+02  0.00000000000E+00 0. -1.
</event>
<event>
 7    1  0.5041278E-013  0.5052887E+02  0.7816164E-02  0.1300439E+00
        -11   -1    0    0    0    0  0.00000000000E+00  0.00000000000E+00  0.45593999997E+02  0.45594000000E+02  0.51100000000E-03 0.  1.
         11   -1    0    0    0    0 -0.00000000000E+00 -0.00000000000E+00 -0.45593999997E+02  0.45594000000E+02  0.51100000000E-03 0. -1.
    9900012    2    1    2    0    0 -0.89039062174E+01 -0.27960592332E+02 -0.28144110029E+02  0.50528865740E+02  0.30000017902E+02 0.  0.
        -12    1    1    2    0    0  0.89039062174E+01  0.27960592332E+02  0.28144110029E+02  0.40659134260E+02  0.00000000000E+00 0.  1.
         11    1    3    3    0    0  0.26168607621E+01 -0.66637936640E+00 -0.97408663048E+00  0.28706909853E+01  0.51100000000E-03 0. -1.
        -11    1    3    3    0    0 -0.93855415803E+01 -0.19425745927E+02 -0.25513433198E+01  0.21724579364E+02  0.51100000000E-03 0.  1.
         12    1    3    3    0    0 -0.21352253993E+01 -0.78684670390E+01 -0.24618680078E+02  0.25933595390E+02  0.00000000000E+00 0. -1.
</event>
<event>
 7    1  0.5041278E-013  0.5052886E+02  0.7816164E-02  0.1300439E+00
        -11   -1    0    0    0    0  0.00000000000E+00  0.00000000000E+00  0.45593999997E+02  0.45594000000E+02  0.51100000000E-03 0. -1.
         11   -1    0    0    0    0 -0.00000000000E+00 -0.00000000000E+00 -0.45593999997E+02  0.45594000000E+02  0.51100000000E-03 0.  1.
    9900012    2    1    2    0    0  0.69828105113E+01 -0.34298000665E+02  0.20689440068E+02  0.50528862988E+02  0.30000009538E+02 0.  0.
        -12    1    1    2    0    0 -0.69828105113E+01  0.34298000665E+02 -0.20689440068E+02  0.40659137012E+02  0.00000000000E+00 0.  1.
         11    1    3    3    0    0 -0.58752580012E-01 -0.10136381056E+02  0.63218472712E+01  0.11946356179E+02  0.51100000000E-03 0. -1.
        -11    1    3    3    0    0 -0.26543159803E+00 -0.27689309173E+02  0.10901760969E+02  0.29759312642E+02  0.51100000000E-03 0.  1.
         12    1    3    3    0    0  0.73069946894E+01  0.35276895642E+01  0.34658318275E+01  0.88231941670E+01  0.00000000000E+00 0. -1.
</event>
<event>
 7    1  0.5041278E-013  0.5052884E+02  0.7816164E-02  0.1300439E+00
        -11   -1    0    0    0    0  0.00000000000E+00  0.00000000000E+00  0.45593999997E+02  0.45594000000E+02  0.51100000000E-03 0.  1.
         11   -1    0    0    0    0 -0.00000000000E+00 -0.00000000000E+00 -0.45593999997E+02  0.45594000000E+02  0.51100000000E-03 0. -1.
    9900012    2    1    2    0    0 -0.29424268169E+02 -0.23647467709E+02 -0.15105540221E+02  0.50528835821E+02  0.29999926962E+02 0.  0.
        -12    1    1    2    0    0  0.29424268169E+02  0.23647467709E+02  0.15105540221E+02  0.40659164179E+02  0.00000000000E+00 0.  1.
         11    1    3    3    0    0  0.46264938102E+00  0.90381759273E+00  0.71536927695E+00  0.12420483703E+01  0.51100000000E-03 0. -1.
        -11    1    3    3    0    0 -0.40572643955E+01  0.53313609614E+01 -0.49181525724E+01  0.83110185334E+01  0.51100000000E-03 0.  1.
         12    1    3    3    0    0 -0.25829653155E+02 -0.29882646263E+02 -0.10902756926E+02  0.40975768917E+02  0.00000000000E+00 0. -1.
</event>
<event>
 7    1  0.5041278E-013  0.5052886E+02  0.7816164E-02  0.1300439E+00
        -11   -1    0    0    0    0  0.00000000000E+00  0.00000000000E+00  0.45593999997E+02  0.45594000000E+02  0.51100000000E-03 0.  1.
         11   -1    0    0    0    0 -0.00000000000E+00 -0.00000000000E+00 -0.45593999997E+02  0.45594000000E+02  0.51100000000E-03 0. -1.
    9900012    2    1    2    0    0  0.97662255473E+01  0.39428640269E+02  0.17802314577E+01  0.50528855162E+02  0.29999985750E+02 0.  0.
        -12    1    1    2    0    0 -0.97662255473E+01 -0.39428640269E+02 -0.17802314577E+01  0.40659144838E+02  0.00000000000E+00 0.  1.
         11    1    3    3    0    0  0.63426988311E+01  0.83672296800E+01 -0.32829851391E+01  0.11000834180E+02  0.51100000000E-03 0. -1.
        -11    1    3    3    0    0  0.68386945051E+01  0.47546907754E+00  0.54372774083E+01  0.87497313818E+01  0.51100000000E-03 0.  1.
         12    1    3    3    0    0 -0.34151677889E+01  0.30585941512E+02 -0.37406081156E+00  0.30778289600E+02  0.00000000000E+00 0. -1.
</event>
<event>
 7    1  0.5041278E-013  0.5052888E+02  0.7816164E-02  0.1300439E+00
        -11   -1    0    0    0    0  0.00000000000E+00  0.00000000000E+00  0.45593999997E+02  0.45594000000E+02  0.51100000000E-03 0. -1.
         11   -1    0    0    0    0 -0.00000000000E+00 -0.00000000000E+00 -0.45593999997E+02  0.45594000000E+02  0.51100000000E-03 0.  1.
    9900012    2    1    2    0    0  0.21736644496E+02  0.20558530182E+02  0.27532332428E+02  0.50528877947E+02  0.30000055008E+02 0.  0.
        -12    1    1    2    0    0 -0.21736644496E+02 -0.20558530182E+02 -0.27532332428E+02  0.40659122053E+02  0.00000000000E+00 0.  1.
         11    1    3    3    0    0  0.11149055400E+01 -0.95354938520E+00 -0.35441477275E+00  0.15092650149E+01  0.51100000000E-03 0. -1.
        -11    1    3    3    0    0 -0.66287206924E+01  0.52145610831E+01  0.74982265440E+01  0.11285166675E+02  0.51100000000E-03 0.  1.
         12    1    3    3    0    0  0.27250459649E+02  0.16297518484E+02  0.20388520656E+02  0.37734446258E+02  0.00000000000E+00 0. -1.
</event>
<event>
 7    1  0.8783252E-013  0.5052886E+02  0.7816164E-02  0.1300439E+00
        -11   -1    0    0    0    0  0.00000000000E+00  0.00000000000E+00  0.45593999997E+02  0.45594000000E+02  0.51100000000E-03 0. -1.
         11   -1    0    0    0    0 -0.00000000000E+00 -0.00000000000E+00 -0.45593999997E+02  0.45594000000E+02  0.51100000000E-03 0.  1.
    9900012    2    1    2    0    0 -0.24462660932E+02  0.15207489413E+02  0.28696267826E+02  0.50528864479E+02  0.30000014072E+02 0.  0.
        -12    1    1    2    0    0  0.24462660932E+02 -0.15207489413E+02 -0.28696267826E+02  0.40659135521E+02  0.00000000000E+00 0.  1.
         11    1    3    3    0    0 -0.16480700688E+02  0.37471916600E+01  0.93797902683E+01  0.19329650960E+02  0.51100000000E-03 0.  1.
        -11    1    3    3    0    0  0.85132458895E+00  0.71904395777E+01 -0.21866031640E+01  0.75636240344E+01  0.51100000000E-03 0. -1.
         12    1    3    3    0    0 -0.88332848335E+01  0.42698581756E+01  0.21503080722E+02  0.23635589485E+02  0.00000000000E+00 0. -1.
</event>
<event>
 7    1  0.5041278E-013  0.5052887E+02  0.7816164E-02  0.1300439E+00
        -11   -1    0    0    0    0  0.00000000000E+00  0.00000000000E+00  0.45593999997E+02  0.45594000000E+02  0.51100000000E-03 0.  1.
         11   -1    0    0    0    0 -0.00000000000E+00 -0.00000000000E+00 -0.45593999997E+02  0.45594000000E+02  0.51100000000E-03 0. -1.
    9900012    2    1    2    0    0 -0.12490012398E+02 -0.36810871596E+02 -0.11921592495E+02  0.50528867632E+02  0.30000023653E+02 0.  0.
        -12    1    1    2    0    0  0.12490012398E+02  0.36810871596E+02  0.11921592495E+02  0.40659132368E+02  0.00000000000E+00 0.  1.
         11    1    3    3    0    0  0.26928366479E+01 -0.28023722746E+02 -0.40811677154E+01  0.28447079568E+02  0.51100000000E-03 0. -1.
        -11    1    3    3    0    0  0.48315592569E+00  0.38485586165E+00  0.15318414164E+01  0.16516936971E+01  0.51100000000E-03 0.  1.
        -12    1    3    3    0    0 -0.15666004972E+02 -0.91720047112E+01 -0.93722661955E+01  0.20430094367E+02  0.00000000000E+00 0.  1.
</event>
<event>
 7    1  0.5041278E-013  0.5052886E+02  0.7816164E-02  0.1300439E+00
        -11   -1    0    0    0    0  0.00000000000E+00  0.00000000000E+00  0.45593999997E+02  0.45594000000E+02  0.51100000000E-03 0.  1.
         11   -1    0    0    0    0 -0.00000000000E+00 -0.00000000000E+00 -0.45593999997E+02  0.45594000000E+02  0.51100000000E-03 0. -1.
    9900012    2    1    2    0    0 -0.27238189248E+02 -0.25421013891E+02 -0.16279385798E+02  0.50528864462E+02  0.30000014019E+02 0.  0.
        -12    1    1    2    0    0  0.27238189248E+02  0.25421013891E+02  0.16279385798E+02  0.40659135538E+02  0.00000000000E+00 0.  1.
         11    1    3    3    0    0 -0.10714220428E+02 -0.91528707988E+01 -0.11583343025E+02  0.18241255416E+02  0.51100000000E-03 0. -1.
        -11    1    3    3    0    0 -0.61356734197E+01 -0.44451191104E+01 -0.12579547228E+02  0.14685046168E+02  0.51100000000E-03 0.  1.
        -12    1    3    3    0    0 -0.10388295400E+02 -0.11823023982E+02  0.78835044558E+01  0.17602562878E+02  0.00000000000E+00 0.  1.
</event>
<event>
 7    1  0.5042004E-013  0.5052886E+02  0.7816164E-02  0.1300439E+00
        -11   -1    0    0    0    0  0.00000000000E+00  0.00000000000E+00  0.45593999997E+02  0.45594000000E+02  0.51100000000E-03 0.  1.
         11   -1    0    0    0    0 -0.00000000000E+00 -0.00000000000E+00 -0.45593999997E+02  0.45594000000E+02  0.51100000000E-03 0. -1.
    9900012    2    1    2    0    0 -0.26014143701E+02 -0.21393095420E+02 -0.22776419167E+02  0.50528862353E+02  0.30000007608E+02 0.  0.
        -12    1    1    2    0    0  0.26014143701E+02  0.21393095420E+02  0.22776419167E+02  0.40659137647E+02  0.00000000000E+00 0.  1.
         11    1    3    3    0    0 -0.50383814629E+01 -0.10291632960E+02 -0.10851561819E+02  0.15781615599E+02  0.51100000000E-03 0. -1.
        -11    1    3    3    0    0 -0.36940501235E+01 -0.13182160918E+02 -0.75251054526E-01  0.13690180268E+02  0.51100000000E-03 0.  1.
        -12    1    3    3    0    0 -0.17281712115E+02  0.20806984582E+01 -0.11849606293E+02  0.21057066486E+02  0.00000000000E+00 0.  1.
</event>
<event>
 7    1  0.5041278E-013  0.5052885E+02  0.7816164E-02  0.1300439E+00
        -11   -1    0    0    0    0  0.00000000000E+00  0.00000000000E+00  0.45593999997E+02  0.45594000000E+02  0.51100000000E-03 0.  1.
         11   -1    0    0    0    0 -0.00000000000E+00 -0.00000000000E+00 -0.45593999997E+02  0.45594000000E+02  0.51100000000E-03 0. -1.
    9900012    2    1    2    0    0 -0.87046096109E+01 -0.23450462334E+02 -0.32054201728E+02  0.50528852683E+02  0.29999978214E+02 0.  0.
        -12    1    1    2    0    0  0.87046096109E+01  0.23450462334E+02  0.32054201728E+02  0.40659147317E+02  0.00000000000E+00 0.  1.
         11    1    3    3    0    0  0.76965476846E+01 -0.72025855317E+01 -0.14041505516E+02  0.17557846167E+02  0.51100000000E-03 0. -1.
        -11    1    3    3    0    0 -0.32910906209E+01  0.28244498721E+01 -0.40960859255E+01  0.59654601436E+01  0.51100000000E-03 0.  1.
        -12    1    3    3    0    0 -0.13110066675E+02 -0.19072326674E+02 -0.13916610286E+02  0.27005546372E+02  0.00000000000E+00 0.  1.
</event>
<event>
 7    1  0.5041278E-013  0.5052884E+02  0.7816164E-02  0.1300439E+00
        -11   -1    0    0    0    0  0.00000000000E+00  0.00000000000E+00  0.45593999997E+02  0.45594000000E+02  0.51100000000E-03 0.  1.
         11   -1    0    0    0    0 -0.00000000000E+00 -0.00000000000E+00 -0.45593999997E+02  0.45594000000E+02  0.51100000000E-03 0. -1.
    9900012    2    1    2    0    0  0.34048285132E+02 -0.37576791882E+01  0.21903459500E+02  0.50528838531E+02  0.29999935200E+02 0.  0.
        -12    1    1    2    0    0 -0.34048285132E+02  0.37576791882E+01 -0.21903459500E+02  0.40659161469E+02  0.00000000000E+00 0.  1.
         11    1    3    3    0    0  0.64327029264E+01 -0.31265387954E+01  0.15916148987E+01  0.73272198019E+01  0.51100000000E-03 0. -1.
        -11    1    3    3    0    0  0.23343814119E+02  0.10760561369E+02  0.16082710095E+02  0.30321228584E+02  0.51100000000E-03 0.  1.
        -12    1    3    3    0    0  0.42717680857E+01 -0.11391701762E+02  0.42291345065E+01  0.12880390145E+02  0.00000000000E+00 0.  1.
</event>
<event>
 7    1  0.5041278E-013  0.5052885E+02  0.7816164E-02  0.1300439E+00
        -11   -1    0    0    0    0  0.00000000000E+00  0.00000000000E+00  0.45593999997E+02  0.45594000000E+02  0.51100000000E-03 0.  1.
         11   -1    0    0    0    0 -0.00000000000E+00 -0.00000000000E+00 -0.45593999997E+02  0.45594000000E+02  0.51100000000E-03 0. -1.
    9900012    2    1    2    0    0 -0.10819410376E+01 -0.20048323315E+02 -0.35356192658E+02  0.50528853139E+02  0.29999979602E+02 0.  0.
        -12    1    1    2    0    0  0.10819410376E+01  0.20048323315E+02  0.35356192658E+02  0.40659146861E+02  0.00000000000E+00 0.  1.
         11    1    3    3    0    0  0.36572375239E+01 -0.69154624054E+01 -0.21690634571E+02  0.23058244403E+02  0.51100000000E-03 0. -1.
        -11    1    3    3    0    0 -0.30142658785E+00  0.49817019630E+01 -0.43633358889E+01  0.66292467729E+01  0.51100000000E-03 0.  1.
        -12    1    3    3    0    0 -0.44377519736E+01 -0.18114562873E+02 -0.93022221986E+01  0.20841361963E+02  0.00000000000E+00 0.  1.
</event>
<event>
 7    1  0.5041278E-013  0.5052886E+02  0.7816164E-02  0.1300439E+00
        -11   -1    0    0    0    0  0.00000000000E+00  0.00000000000E+00  0.45593999997E+02  0.45594000000E+02  0.51100000000E-03 0.  1.
         11   -1    0    0    0    0 -0.00000000000E+00 -0.00000000000E+00 -0.45593999997E+02  0.45594000000E+02  0.51100000000E-03 0. -1.
    9900012    2    1    2    0    0 -0.27086801947E+02  0.29624851494E+02  0.64683094416E+01  0.50528859665E+02  0.29999999438E+02 0.  0.
        -12    1    1    2    0    0  0.27086801947E+02 -0.29624851494E+02 -0.64683094416E+01  0.40659140335E+02  0.00000000000E+00 0.  1.
         11    1    3    3    0    0  0.19571509310E+01  0.32848233374E+01 -0.36895242613E+01  0.53134822537E+01  0.51100000000E-03 0. -1.
        -11    1    3    3    0    0 -0.74507621694E+01 -0.18539890829E+01  0.53963669801E+01  0.93846635139E+01  0.51100000000E-03 0.  1.
         12    1    3    3    0    0 -0.21593190708E+02  0.28194017239E+02  0.47614667229E+01  0.35830713898E+02  0.00000000000E+00 0. -1.
</event>
<event>
 7    1  0.5041278E-013  0.5052887E+02  0.7816164E-02  0.1300439E+00
        -11   -1    0    0    0    0  0.00000000000E+00  0.00000000000E+00  0.45593999997E+02  0.45594000000E+02  0.51100000000E-03 0.  1.
         11   -1    0    0    0    0 -0.00000000000E+00 -0.00000000000E+00 -0.45593999997E+02  0.45594000000E+02  0.51100000000E-03 0. -1.
    9900012    2    1    2    0    0  0.22585893518E+02 -0.49996076571E+00 -0.33805215080E+02  0.50528866790E+02  0.30000021095E+02 0.  0.
        -12    1    1    2    0    0 -0.22585893518E+02  0.49996076571E+00  0.33805215080E+02  0.40659133210E+02  0.00000000000E+00 0.  1.
         11    1    3    3    0    0  0.93795243949E+01 -0.12736773450E+02 -0.15937506234E+02  0.22454509147E+02  0.51100000000E-03 0.  1.
        -11    1    3    3    0    0  0.34694931468E+01 -0.72046759743E+00 -0.88355543197E+01  0.95196363718E+01  0.51100000000E-03 0. -1.
        -12    1    3    3    0    0  0.97368759763E+01  0.12957280282E+02 -0.90321545260E+01  0.18554721271E+02  0.00000000000E+00 0.  1.
</event>
<event>
 7    1  0.5041278E-013  0.5052886E+02  0.7816164E-02  0.1300439E+00
        -11   -1    0    0    0    0  0.00000000000E+00  0.00000000000E+00  0.45593999997E+02  0.45594000000E+02  0.51100000000E-03 0. -1.
         11   -1    0    0    0    0 -0.00000000000E+00 -0.00000000000E+00 -0.45593999997E+02  0.45594000000E+02  0.51100000000E-03 0.  1.
    9900012    2    1    2    0    0 -0.23138618768E+02 -0.33223319064E+02  0.37391255316E+01  0.50528859971E+02  0.30000000369E+02 0.  0.
        -12    1    1    2    0    0  0.23138618768E+02  0.33223319064E+02 -0.37391255316E+01  0.40659140029E+02  0.00000000000E+00 0.  1.
         11    1    3    3    0    0 -0.36911328166E+00 -0.15956419318E+02  0.10289165205E+02  0.18989746784E+02  0.51100000000E-03 0. -1.
        -11    1    3    3    0    0 -0.10274631373E+02 -0.77561868840E+01  0.29217733420E+01  0.13200880446E+02  0.51100000000E-03 0.  1.
        -12    1    3    3    0    0 -0.12494874114E+02 -0.95107128619E+01 -0.94718130151E+01  0.18338232741E+02  0.00000000000E+00 0.  1.
</event>
<event>
 7    1  0.5041278E-013  0.5052886E+02  0.7816164E-02  0.1300439E+00
        -11   -1    0    0    0    0  0.00000000000E+00  0.00000000000E+00  0.45593999997E+02  0.45594000000E+02  0.51100000000E-03 0.  1.
         11   -1    0    0    0    0 -0.00000000000E+00 -0.00000000000E+00 -0.45593999997E+02  0.45594000000E+02  0.51100000000E-03 0. -1.
    9900012    2    1    2    0    0  0.21745545355E+02  0.27464240487E+02 -0.20640060768E+02  0.50528863796E+02  0.30000011995E+02 0.  0.
        -12    1    1    2    0    0 -0.21745545355E+02 -0.27464240487E+02  0.20640060768E+02  0.40659136204E+02  0.00000000000E+00 0.  1.
         11    1    3    3    0    0  0.36752943275E+01  0.89946645856E+01 -0.76132739228E+01  0.12343975028E+02  0.51100000000E-03 0. -1.
        -11    1    3    3    0    0  0.96855071676E+01  0.21070833038E+02 -0.89196502777E+00  0.23207426739E+02  0.51100000000E-03 0.  1.
        -12    1    3    3    0    0  0.83847438597E+01 -0.26012571359E+01 -0.12134821818E+02  0.14977462029E+02  0.00000000000E+00 0.  1.
</event>
<event>
 7    1  0.5041278E-013  0.5052885E+02  0.7816164E-02  0.1300439E+00
        -11   -1    0    0    0    0  0.00000000000E+00  0.00000000000E+00  0.45593999997E+02  0.45594000000E+02  0.51100000000E-03 0. -1.
         11   -1    0    0    0    0 -0.00000000000E+00 -0.00000000000E+00 -0.45593999997E+02  0.45594000000E+02  0.51100000000E-03 0.  1.
    9900012    2    1    2    0    0  0.39345703745E+02  0.60322083634E+01  0.82882409717E+01  0.50528845074E+02  0.29999955086E+02 0.  0.
        -12    1    1    2    0    0 -0.39345703745E+02 -0.60322083634E+01 -0.82882409717E+01  0.40659154926E+02  0.00000000000E+00 0.  1.
         11    1    3    3    0    0  0.24465367237E+02  0.40312336554E+01  0.42032344329E+01  0.25149000353E+02  0.51100000000E-03 0. -1.
        -11    1    3    3    0    0  0.79220448966E+01 -0.79424348793E+01 -0.26126342558E+01  0.11518112917E+02  0.51100000000E-03 0.  1.
         12    1    3    3    0    0  0.69582916117E+01  0.99434095873E+01  0.66976407946E+01  0.13861731803E+02  0.00000000000E+00 0. -1.
</event>
<event>
 7    1  0.5041278E-013  0.5052886E+02  0.7816164E-02  0.1300439E+00
        -11   -1    0    0    0    0  0.00000000000E+00  0.00000000000E+00  0.45593999997E+02  0.45594000000E+02  0.51100000000E-03 0.  1.
         11   -1    0    0    0    0 -0.00000000000E+00 -0.00000000000E+00 -0.45593999997E+02  0.45594000000E+02  0.51100000000E-03 0. -1.
    9900012    2    1    2    0    0 -0.34519435967E+02 -0.31021113618E+01 -0.21259143241E+02  0.50528859260E+02  0.29999998208E+02 0.  0.
        -12    1    1    2    0    0  0.34519435967E+02  0.31021113618E+01  0.21259143241E+02  0.40659140740E+02  0.00000000000E+00 0.  1.
         11    1    3    3    0    0 -0.18348826409E+02  0.10310976987E+02 -0.47351220353E+01  0.21573526786E+02  0.51100000000E-03 0. -1.
        -11    1    3    3    0    0 -0.52803918064E+01 -0.49344173836E+01  0.25215777177E+00  0.72315002833E+01  0.51100000000E-03 0.  1.
         12    1    3    3    0    0 -0.10890217751E+02 -0.84786709656E+01 -0.16776178977E+02  0.21723832191E+02  0.00000000000E+00 0. -1.
</event>
<event>
 7    1  0.5041278E-013  0.5052885E+02  0.7816164E-02  0.1300439E+00
        -11   -1    0    0    0    0  0.00000000000E+00  0.00000000000E+00  0.45593999997E+02  0.45594000000E+02  0.51100000000E-03 0. -1.
         11   -1    0    0    0    0 -0.00000000000E+00 -0.00000000000E+00 -0.45593999997E+02  0.45594000000E+02  0.51100000000E-03 0.  1.
    9900012    2    1    2    0    0 -0.39332978863E+02  0.38790464963E+01  0.95413121681E+01  0.50528845240E+02  0.29999955590E+02 0.  0.
        -12    1    1    2    0    0  0.39332978863E+02 -0.38790464963E+01 -0.95413121681E+01  0.40659154760E+02  0.00000000000E+00 0.  1.
         11    1    3    3    0    0 -0.13693451112E+02 -0.96022778945E+00  0.11062498641E+01  0.13771580511E+02  0.51100000000E-03 0. -1.
        -11    1    3    3    0    0 -0.19522421042E+02  0.70335416465E+00  0.16681240411E+02  0.25688195973E+02  0.51100000000E-03 0.  1.
        -12    1    3    3    0    0 -0.61171067095E+01  0.41359201211E+01 -0.82461781073E+01  0.11069068756E+02  0.00000000000E+00 0.  1.
</event>
<event>
 7    1  0.5041278E-013  0.5052886E+02  0.7816164E-02  0.1300439E+00
        -11   -1    0    0    0    0  0.00000000000E+00  0.00000000000E+00  0.45593999997E+02  0.45594000000E+02  0.51100000000E-03 0. -1.
         11   -1    0    0    0    0 -0.00000000000E+00 -0.00000000000E+00 -0.45593999997E+02  0.45594000000E+02  0.51100000000E-03 0.  1.
    9900012    2    1    2    0    0  0.99474975829E+00 -0.38689666264E+02  0.12461381354E+02  0.50528858003E+02  0.29999994385E+02 0.  0.
        -12    1    1    2    0    0 -0.99474975829E+00  0.38689666264E+02 -0.12461381354E+02  0.40659141997E+02  0.00000000000E+00 0.  1.
         11    1    3    3    0    0  0.24451020482E+01 -0.23239719921E+02  0.42983151832E+01  0.23760021459E+02  0.51100000000E-03 0. -1.
        -11    1    3    3    0    0  0.40960334546E+01 -0.15787062907E+02 -0.68106993657E+00  0.16323991601E+02  0.51100000000E-03 0.  1.
         12    1    3    3    0    0 -0.55463857445E+01  0.33711656371E+00  0.88441361069E+01  0.10444844943E+02  0.00000000000E+00 0. -1.
</event>
<event>
 7    1  0.5041278E-013  0.5052886E+02  0.7816164E-02  0.1300439E+00
        -11   -1    0    0    0    0  0.00000000000E+00  0.00000000000E+00  0.45593999997E+02  0.45594000000E+02  0.51100000000E-03 0. -1.
         11   -1    0    0    0    0 -0.00000000000E+00 -0.00000000000E+00 -0.45593999997E+02  0.45594000000E+02  0.51100000000E-03 0.  1.
    9900012    2    1    2    0    0 -0.32786260645E+02 -0.21805260255E+02  0.10136947947E+02  0.50528856188E+02  0.29999988869E+02 0.  0.
        -12    1    1    2    0    0  0.32786260645E+02  0.21805260255E+02 -0.10136947947E+02  0.40659143812E+02  0.00000000000E+00 0.  1.
         11    1    3    3    0    0 -0.20831885441E+01 -0.86838642614E+01  0.53242696805E+01  0.10396971718E+02  0.51100000000E-03 0.  1.
        -11    1    3    3    0    0 -0.64015332535E+01  0.17242928866E+01  0.91778569379E+01  0.11321919987E+02  0.51100000000E-03 0. -1.
        -12    1    3    3    0    0 -0.24301538847E+02 -0.14845688880E+02 -0.43651786717E+01  0.28809964483E+02  0.00000000000E+00 0.  1.
</event>
<event>
 7    1  0.5041278E-013  0.5052884E+02  0.7816164E-02  0.1300439E+00
        -11   -1    0    0    0    0  0.00000000000E+00  0.00000000000E+00  0.45593999997E+02  0.45594000000E+02  0.51100000000E-03 0.  1.
         11   -1    0    0    0    0 -0.00000000000E+00 -0.00000000000E+00 -0.45593999997E+02  0.45594000000E+02  0.51100000000E-03 0. -1.
    9900012    2    1    2    0    0 -0.13380708482E+02 -0.14187294870E+02 -0.35676944707E+02  0.50528842620E+02  0.29999947627E+02 0.  0.
        -12    1    1    2    0    0  0.13380708482E+02  0.14187294870E+02  0.35676944707E+02  0.40659157380E+02  0.00000000000E+00 0.  1.
         11    1    3    3    0    0 -0.12637153006E+02 -0.12460425525E+02 -0.17131456271E+02  0.24666711061E+02  0.51100000000E-03 0. -1.
        -11    1    3    3    0    0 -0.15386969041E+00 -0.69371502322E+01 -0.37366461160E+00  0.69489103267E+01  0.51100000000E-03 0.  1.
         12    1    3    3    0    0 -0.58968578589E+00  0.52102808870E+01 -0.18171823825E+02  0.18913221232E+02  0.00000000000E+00 0. -1.
</event>
<event>
 7    1  0.5041278E-013  0.5052879E+02  0.7816164E-02  0.1300439E+00
        -11   -1    0    0    0    0  0.00000000000E+00  0.00000000000E+00  0.45593999997E+02  0.45594000000E+02  0.51100000000E-03 0.  1.
         11   -1    0    0    0    0 -0.00000000000E+00 -0.00000000000E+00 -0.45593999997E+02  0.45594000000E+02  0.51100000000E-03 0. -1.
    9900012    2    1    2    0    0 -0.27948678155E+02 -0.17941831920E+02 -0.23454916201E+02  0.50528793942E+02  0.29999799666E+02 0.  0.
        -12    1    1    2    0    0  0.27948678155E+02  0.17941831920E+02  0.23454916201E+02  0.40659206058E+02  0.00000000000E+00 0.  1.
         11    1    3    3    0    0 -0.63322311975E+01 -0.79121019199E+01 -0.51262371329E+01  0.11356796033E+02  0.51100000000E-03 0.  1.
        -11    1    3    3    0    0 -0.17554367904E+02 -0.13902592066E+02 -0.22828959700E+02  0.31978106571E+02  0.51100000000E-03 0. -1.
        -12    1    3    3    0    0 -0.40620790539E+01  0.38728620661E+01  0.45002806316E+01  0.71938913383E+01  0.00000000000E+00 0.  1.
</event>
<event>
 7    1  0.5041278E-013  0.5052887E+02  0.7816164E-02  0.1300439E+00
        -11   -1    0    0    0    0  0.00000000000E+00  0.00000000000E+00  0.45593999997E+02  0.45594000000E+02  0.51100000000E-03 0.  1.
         11   -1    0    0    0    0 -0.00000000000E+00 -0.00000000000E+00 -0.45593999997E+02  0.45594000000E+02  0.51100000000E-03 0. -1.
    9900012    2    1    2    0    0  0.12956914012E+02 -0.37909831587E+02  0.69374430286E+01  0.50528867355E+02  0.30000022813E+02 0.  0.
        -12    1    1    2    0    0 -0.12956914012E+02  0.37909831587E+02 -0.69374430286E+01  0.40659132645E+02  0.00000000000E+00 0.  1.
         11    1    3    3    0    0 -0.54763357049E+01 -0.68668733494E+01 -0.19331250789E+01  0.89933961984E+01  0.51100000000E-03 0. -1.
        -11    1    3    3    0    0  0.17680208654E+02 -0.13552567307E+02  0.90055567071E+01  0.24028356384E+02  0.51100000000E-03 0.  1.
         12    1    3    3    0    0  0.75304106247E+00 -0.17490390930E+02 -0.13498859956E+00  0.17507114773E+02  0.00000000000E+00 0. -1.
</event>
<event>
 7    1  0.5041278E-013  0.5052886E+02  0.7816164E-02  0.1300439E+00
        -11   -1    0    0    0    0  0.00000000000E+00  0.00000000000E+00  0.45593999997E+02  0.45594000000E+02  0.51100000000E-03 0.  1.
         11   -1    0    0    0    0 -0.00000000000E+00 -0.00000000000E+00 -0.45593999997E+02  0.45594000000E+02  0.51100000000E-03 0. -1.
    9900012    2    1    2    0    0 -0.34061716242E+02  0.19138712029E+02  0.11254981102E+02  0.50528863129E+02  0.30000009966E+02 0.  0.
        -12    1    1    2    0    0  0.34061716242E+02 -0.19138712029E+02 -0.11254981102E+02  0.40659136871E+02  0.00000000000E+00 0.  1.
         11    1    3    3    0    0 -0.13748101845E+02  0.77154477066E+01  0.97262055193E+01  0.18523971273E+02  0.51100000000E-03 0. -1.
        -11    1    3    3    0    0 -0.24149334773E+02  0.52752936000E+01  0.99372587242E+00  0.24738766823E+02  0.51100000000E-03 0.  1.
        -12    1    3    3    0    0  0.38357203753E+01  0.61479707227E+01  0.53504971053E+00  0.72661250332E+01  0.00000000000E+00 0.  1.
</event>
<event>
 7    1  0.5041278E-013  0.5052888E+02  0.7816164E-02  0.1300439E+00
        -11   -1    0    0    0    0  0.00000000000E+00  0.00000000000E+00  0.45593999997E+02  0.45594000000E+02  0.51100000000E-03 0.  1.
         11   -1    0    0    0    0 -0.00000000000E+00 -0.00000000000E+00 -0.45593999997E+02  0.45594000000E+02  0.51100000000E-03 0. -1.
    9900012    2    1    2    0    0 -0.26578023989E+02 -0.30440871338E+02 -0.44862350527E+01  0.50528876646E+02  0.30000051053E+02 0.  0.
        -12    1    1    2    0    0  0.26578023989E+02  0.30440871338E+02  0.44862350527E+01  0.40659123354E+02  0.00000000000E+00 0.  1.
         11    1    3    3    0    0 -0.17463863046E+02 -0.42029837406E+01 -0.17097743686E+01  0.18043694562E+02  0.51100000000E-03 0. -1.
        -11    1    3    3    0    0  0.30577913197E+01 -0.45628268336E+00  0.18483384153E+01  0.36020323153E+01  0.51100000000E-03 0.  1.
         12    1    3    3    0    0 -0.12171952263E+02 -0.25781604914E+02 -0.46247990994E+01  0.28883149768E+02  0.00000000000E+00 0. -1.
</event>
<event>
 7    1  0.5041278E-013  0.5052890E+02  0.7816164E-02  0.1300439E+00
        -11   -1    0    0    0    0  0.00000000000E+00  0.00000000000E+00  0.45593999997E+02  0.45594000000E+02  0.51100000000E-03 0.  1.
         11   -1    0    0    0    0 -0.00000000000E+00 -0.00000000000E+00 -0.45593999997E+02  0.45594000000E+02  0.51100000000E-03 0. -1.
    9900012    2    1    2    0    0  0.23265947795E+02  0.20664040581E+02 -0.26169744003E+02  0.50528900144E+02  0.30000122477E+02 0.  0.
        -12    1    1    2    0    0 -0.23265947795E+02 -0.20664040581E+02  0.26169744003E+02  0.40659099856E+02  0.00000000000E+00 0.  1.
         11    1    3    3    0    0  0.11583280459E+02  0.46061631822E+01 -0.10726664665E+02  0.16445378091E+02  0.51100000000E-03 0. -1.
        -11    1    3    3    0    0  0.31594451477E+01  0.11445977099E+02 -0.20089490004E+02  0.23336239934E+02  0.51100000000E-03 0.  1.
         12    1    3    3    0    0  0.85232221886E+01  0.46119003005E+01  0.46464106665E+01  0.10747282119E+02  0.00000000000E+00 0. -1.
</event>
<event>
 7    1  0.5041278E-013  0.5052886E+02  0.7816164E-02  0.1300439E+00
        -11   -1    0    0    0    0  0.00000000000E+00  0.00000000000E+00  0.45593999997E+02  0.45594000000E+02  0.51100000000E-03 0. -1.
         11   -1    0    0    0    0 -0.00000000000E+00 -0.00000000000E+00 -0.45593999997E+02  0.45594000000E+02  0.51100000000E-03 0.  1.
    9900012    2    1    2    0    0  0.45471665101E+01  0.27809396507E+02 -0.29310855373E+02  0.50528862035E+02  0.30000006642E+02 0.  0.
        -12    1    1    2    0    0 -0.45471665101E+01 -0.27809396507E+02  0.29310855373E+02  0.40659137965E+02  0.00000000000E+00 0.  1.
         11    1    3    3    0    0  0.20980473425E-01  0.17989099129E+02 -0.13775093399E+02  0.22657478370E+02  0.51100000000E-03 0. -1.
        -11    1    3    3    0    0 -0.14488898576E+01  0.49015360720E+01 -0.18792247019E+02  0.19474929678E+02  0.51100000000E-03 0.  1.
        -12    1    3    3    0    0  0.59750758943E+01  0.49187613053E+01  0.32564850442E+01  0.83964539875E+01  0.00000000000E+00 0.  1.
</event>
<event>
 7    1  0.5041278E-013  0.5052886E+02  0.7816164E-02  0.1300439E+00
        -11   -1    0    0    0    0  0.00000000000E+00  0.00000000000E+00  0.45593999997E+02  0.45594000000E+02  0.51100000000E-03 0.  1.
         11   -1    0    0    0    0 -0.00000000000E+00 -0.00000000000E+00 -0.45593999997E+02  0.45594000000E+02  0.51100000000E-03 0. -1.
    9900012    2    1    2    0    0 -0.22944638862E+01  0.24488724795E+02 -0.32375971598E+02  0.50528859041E+02  0.29999997541E+02 0.  0.
        -12    1    1    2    0    0  0.22944638862E+01 -0.24488724795E+02  0.32375971598E+02  0.40659140959E+02  0.00000000000E+00 0.  1.
         11    1    3    3    0    0 -0.60911922814E+01  0.21395799975E+02 -0.11484947412E+02  0.25035712438E+02  0.51100000000E-03 0. -1.
        -11    1    3    3    0    0  0.58913727421E+01  0.63750306562E+01 -0.72577291815E+01  0.11314765653E+02  0.51100000000E-03 0.  1.
        -12    1    3    3    0    0 -0.20946443469E+01 -0.32821058362E+01 -0.13633295005E+02  0.14178380949E+02  0.00000000000E+00 0.  1.
</event>
<event>
 7    1  0.5041278E-013  0.5052886E+02  0.7816164E-02  0.1300439E+00
        -11   -1    0    0    0    0  0.00000000000E+00  0.00000000000E+00  0.45593999997E+02  0.45594000000E+02  0.51100000000E-03 0. -1.
         11   -1    0    0    0    0 -0.00000000000E+00 -0.00000000000E+00 -0.45593999997E+02  0.45594000000E+02  0.51100000000E-03 0.  1.
    9900012    2    1    2    0    0 -0.39980761397E+02 -0.72607143762E+01 -0.14094860012E+01  0.50528857044E+02  0.29999991471E+02 0.  0.
        -12    1    1    2    0    0  0.39980761397E+02  0.72607143762E+01  0.14094860012E+01  0.40659142956E+02  0.00000000000E+00 0.  1.
         11    1    3    3    0    0 -0.14636127514E+02  0.44027540427E+01 -0.14384248895E+01  0.15351532112E+02  0.51100000000E-03 0. -1.
        -11    1    3    3    0    0  0.20078167804E+01  0.33661740595E+01  0.58340832157E+00  0.39626785832E+01  0.51100000000E-03 0.  1.
        -12    1    3    3    0    0 -0.27352450663E+02 -0.15029642478E+02 -0.55446943326E+00  0.31214646349E+02  0.00000000000E+00 0.  1.
</event>
<event>
 7    1  0.5041278E-013  0.5052885E+02  0.7816164E-02  0.1300439E+00
        -11   -1    0    0    0    0  0.00000000000E+00  0.00000000000E+00  0.45593999997E+02  0.45594000000E+02  0.51100000000E-03 0.  1.
         11   -1    0    0    0    0 -0.00000000000E+00 -0.00000000000E+00 -0.45593999997E+02  0.45594000000E+02  0.51100000000E-03 0. -1.
    9900012    2    1    2    0    0  0.15472860223E+02  0.16323902738E+02 -0.33871623687E+02  0.50528854715E+02  0.29999984392E+02 0.  0.
        -12    1    1    2    0    0 -0.15472860223E+02 -0.16323902738E+02  0.33871623687E+02  0.40659145285E+02  0.00000000000E+00 0.  1.
         11    1    3    3    0    0  0.54801206045E+01  0.10069193812E+02 -0.12786195255E+02  0.17172861591E+02  0.51100000000E-03 0. -1.
        -11    1    3    3    0    0  0.94976284230E+00  0.10024861848E+02  0.39342939473E-01  0.10069828830E+02  0.51100000000E-03 0.  1.
        -12    1    3    3    0    0  0.90429767765E+01 -0.37701529222E+01 -0.21124771372E+02  0.23286164294E+02  0.00000000000E+00 0.  1.
</event>
<event>
 7    1  0.5041278E-013  0.5052886E+02  0.7816164E-02  0.1300439E+00
        -11   -1    0    0    0    0  0.00000000000E+00  0.00000000000E+00  0.45593999997E+02  0.45594000000E+02  0.51100000000E-03 0. -1.
         11   -1    0    0    0    0 -0.00000000000E+00 -0.00000000000E+00 -0.45593999997E+02  0.45594000000E+02  0.51100000000E-03 0.  1.
    9900012    2    1    2    0    0  0.18059963816E+01 -0.28932706770E+02  0.28509695469E+02  0.50528857366E+02  0.29999992450E+02 0.  0.
        -12    1    1    2    0    0 -0.18059963816E+01  0.28932706770E+02 -0.28509695469E+02  0.40659142634E+02  0.00000000000E+00 0.  1.
         11    1    3    3    0    0 -0.29505955973E+01  0.24114997698E+01  0.34999076525E+01  0.51740409117E+01  0.51100000000E-03 0. -1.
        -11    1    3    3    0    0  0.78691193148E+01 -0.13072226408E+02  0.13763143421E+01  0.15319934186E+02  0.51100000000E-03 0.  1.
         12    1    3    3    0    0 -0.31125273359E+01 -0.18271980133E+02  0.23633473474E+02  0.30034882268E+02  0.00000000000E+00 0. -1.
</event>
<event>
 7    1  0.5041278E-013  0.5052886E+02  0.7816164E-02  0.1300439E+00
        -11   -1    0    0    0    0  0.00000000000E+00  0.00000000000E+00  0.45593999997E+02  0.45594000000E+02  0.51100000000E-03 0.  1.
         11   -1    0    0    0    0 -0.00000000000E+00 -0.00000000000E+00 -0.45593999997E+02  0.45594000000E+02  0.51100000000E-03 0. -1.
    9900012    2    1    2    0    0 -0.38750883723E+02  0.68377777081E+01 -0.10236191604E+02  0.50528858201E+02  0.29999994987E+02 0.  0.
        -12    1    1    2    0    0  0.38750883723E+02 -0.68377777081E+01  0.10236191604E+02  0.40659141799E+02  0.00000000000E+00 0.  1.
         11    1    3    3    0    0 -0.94132996877E+00  0.17147088163E+01  0.41597742391E+01  0.45967434577E+01  0.51100000000E-03 0. -1.
        -11    1    3    3    0    0 -0.41115365543E+01 -0.43233353821E+01 -0.85870884519E+01  0.10456292364E+02  0.51100000000E-03 0.  1.
         12    1    3    3    0    0 -0.33698017200E+02  0.94464042739E+01 -0.58088773914E+01  0.35475822379E+02  0.00000000000E+00 0. -1.
</event>
<event>
 7    1  0.5041278E-013  0.5052886E+02  0.7816164E-02  0.1300439E+00
        -11   -1    0    0    0    0  0.00000000000E+00  0.00000000000E+00  0.45593999997E+02  0.45594000000E+02  0.51100000000E-03 0. -1.
         11   -1    0    0    0    0 -0.00000000000E+00 -0.00000000000E+00 -0.45593999997E+02  0.45594000000E+02  0.51100000000E-03 0.  1.
    9900012    2    1    2    0    0  0.39856794055E+02  0.10261838083E+01  0.79717594254E+01  0.50528855470E+02  0.29999986688E+02 0.  0.
        -12    1    1    2    0    0 -0.39856794055E+02 -0.10261838083E+01 -0.79717594254E+01  0.40659144530E+02  0.00000000000E+00 0.  1.
         11    1    3    3    0    0  0.21628219825E+02 -0.34548151110E+01  0.10727395854E+02  0.24388371457E+02  0.51100000000E-03 0. -1.
        -11    1    3    3    0    0  0.19131512405E+02  0.50401668462E+01  0.32432053514E+01  0.20048352300E+02  0.51100000000E-03 0.  1.
        -12    1    3    3    0    0 -0.90293817447E+00 -0.55916792690E+00 -0.59988417801E+01  0.60921317139E+01  0.00000000000E+00 0.  1.
</event>
<event>
 7    1  0.5041278E-013  0.5052886E+02  0.7816164E-02  0.1300439E+00
        -11   -1    0    0    0    0  0.00000000000E+00  0.00000000000E+00  0.45593999997E+02  0.45594000000E+02  0.51100000000E-03 0. -1.
         11   -1    0    0    0    0 -0.00000000000E+00 -0.00000000000E+00 -0.45593999997E+02  0.45594000000E+02  0.51100000000E-03 0.  1.
    9900012    2    1    2    0    0  0.39903611905E+02 -0.66076550642E+00  0.77737309333E+01  0.50528859002E+02  0.29999997422E+02 0.  0.
        -12    1    1    2    0    0 -0.39903611905E+02  0.66076550642E+00 -0.77737309333E+01  0.40659140998E+02  0.00000000000E+00 0.  1.
         11    1    3    3    0    0  0.22691247814E+02 -0.14439508503E+01  0.14370859716E+02  0.26897942870E+02  0.51100000000E-03 0. -1.
        -11    1    3    3    0    0  0.12465156730E+02 -0.58364841683E+01 -0.11085342134E+01  0.13808458572E+02  0.51100000000E-03 0.  1.
        -12    1    3    3    0    0  0.47472073601E+01  0.66196695122E+01 -0.54885945692E+01  0.98224575599E+01  0.00000000000E+00 0.  1.
</event>
<event>
 7    1  0.5041278E-013  0.5052886E+02  0.7816164E-02  0.1300439E+00
        -11   -1    0    0    0    0  0.00000000000E+00  0.00000000000E+00  0.45593999997E+02  0.45594000000E+02  0.51100000000E-03 0.  1.
         11   -1    0    0    0    0 -0.00000000000E+00 -0.00000000000E+00 -0.45593999997E+02  0.45594000000E+02  0.51100000000E-03 0. -1.
    9900012    2    1    2    0    0  0.61558013583E+01 -0.40131910177E+02 -0.21683597577E+01  0.50528857254E+02  0.29999992109E+02 0.  0.
        -12    1    1    2    0    0 -0.61558013583E+01  0.40131910177E+02  0.21683597577E+01  0.40659142746E+02  0.00000000000E+00 0.  1.
         11    1    3    3    0    0 -0.56744180663E-01 -0.23430025796E+01 -0.81788368036E+01  0.85080110902E+01  0.51100000000E-03 0. -1.
        -11    1    3    3    0    0 -0.40615506491E+01 -0.59583645336E+01  0.45803427129E+01  0.85427069024E+01  0.51100000000E-03 0.  1.
        -12    1    3    3    0    0  0.10274096188E+02 -0.31830543064E+02  0.14301343331E+01  0.33478139261E+02  0.00000000000E+00 0.  1.
</event>
<event>
 7    1  0.5041278E-013  0.5052895E+02  0.7816164E-02  0.1300438E+00
        -11   -1    0    0    0    0  0.00000000000E+00  0.00000000000E+00  0.45593999997E+02  0.45594000000E+02  0.51100000000E-03 0.  1.
         11   -1    0    0    0    0 -0.00000000000E+00 -0.00000000000E+00 -0.45593999997E+02  0.45594000000E+02  0.51100000000E-03 0. -1.
    9900012    2    1    2    0    0  0.11783169278E+02 -0.81661021924E+01 -0.38047736220E+02  0.50528947691E+02  0.30000266999E+02 0.  0.
        -12    1    1    2    0    0 -0.11783169278E+02  0.81661021924E+01  0.38047736220E+02  0.40659052309E+02  0.00000000000E+00 0.  1.
         11    1    3    3    0    0  0.13331501573E+02  0.33779407775E+01 -0.11188885969E+02  0.17729370761E+02  0.51100000000E-03 0. -1.
        -11    1    3    3    0    0 -0.13041998259E+01 -0.58184083875E+01 -0.68073991374E+00  0.60015181780E+01  0.51100000000E-03 0.  1.
        -12    1    3    3    0    0 -0.24413246972E+00 -0.57256345825E+01 -0.26178110337E+02  0.26798058752E+02  0.00000000000E+00 0.  1.
</event>
<event>
 7    1  0.5041278E-013  0.5052885E+02  0.7816164E-02  0.1300439E+00
        -11   -1    0    0    0    0  0.00000000000E+00  0.00000000000E+00  0.45593999997E+02  0.45594000000E+02  0.51100000000E-03 0.  1.
         11   -1    0    0    0    0 -0.00000000000E+00 -0.00000000000E+00 -0.45593999997E+02  0.45594000000E+02  0.51100000000E-03 0. -1.
    9900012    2    1    2    0    0 -0.24065969599E+02  0.32579171871E+02 -0.35486368433E+01  0.50528853968E+02  0.29999982122E+02 0.  0.
        -12    1    1    2    0    0  0.24065969599E+02 -0.32579171871E+02  0.35486368433E+01  0.40659146032E+02  0.00000000000E+00 0.  1.
         11    1    3    3    0    0 -0.16669286517E+02  0.10996168070E+02 -0.22261273543E+01  0.20093194581E+02  0.51100000000E-03 0. -1.
        -11    1    3    3    0    0 -0.90283704404E+00  0.19852843946E+02  0.57409829921E+01  0.20685971417E+02  0.51100000000E-03 0.  1.
         12    1    3    3    0    0 -0.64938460381E+01  0.17301598551E+01 -0.70634924811E+01  0.97496879705E+01  0.00000000000E+00 0. -1.
</event>
<event>
 7    1  0.5041278E-013  0.5052883E+02  0.7816164E-02  0.1300439E+00
        -11   -1    0    0    0    0  0.00000000000E+00  0.00000000000E+00  0.45593999997E+02  0.45594000000E+02  0.51100000000E-03 0.  1.
         11   -1    0    0    0    0 -0.00000000000E+00 -0.00000000000E+00 -0.45593999997E+02  0.45594000000E+02  0.51100000000E-03 0. -1.
    9900012    2    1    2    0    0 -0.30487812847E+02  0.26689105245E+02  0.33694845539E+01  0.50528825179E+02  0.29999894615E+02 0.  0.
        -12    1    1    2    0    0  0.30487812847E+02 -0.26689105245E+02 -0.33694845539E+01  0.40659174821E+02  0.00000000000E+00 0.  1.
         11    1    3    3    0    0 -0.16336714213E+02  0.25273605656E+02  0.15492041844E+01  0.30133758610E+02  0.51100000000E-03 0. -1.
        -11    1    3    3    0    0  0.11386505513E+01  0.42947593495E+01  0.19101035059E+01  0.48363187046E+01  0.51100000000E-03 0.  1.
         12    1    3    3    0    0 -0.15289749185E+02 -0.28792597605E+01 -0.89823136401E-01  0.15558747864E+02  0.00000000000E+00 0. -1.
</event>
<event>
 7    1  0.5041278E-013  0.5052887E+02  0.7816164E-02  0.1300439E+00
        -11   -1    0    0    0    0  0.00000000000E+00  0.00000000000E+00  0.45593999997E+02  0.45594000000E+02  0.51100000000E-03 0.  1.
         11   -1    0    0    0    0 -0.00000000000E+00 -0.00000000000E+00 -0.45593999997E+02  0.45594000000E+02  0.51100000000E-03 0. -1.
    9900012    2    1    2    0    0 -0.34243415073E+02 -0.11684557958E+02 -0.18547907478E+02  0.50528865204E+02  0.30000016274E+02 0.  0.
        -12    1    1    2    0    0  0.34243415073E+02  0.11684557958E+02  0.18547907478E+02  0.40659134796E+02  0.00000000000E+00 0.  1.
         11    1    3    3    0    0 -0.10794338363E+02 -0.37735477112E+00 -0.65162292231E+01  0.12614332359E+02  0.51100000000E-03 0. -1.
        -11    1    3    3    0    0 -0.28188350506E+02 -0.12838397222E+02 -0.10344009724E+02  0.32655873666E+02  0.51100000000E-03 0.  1.
        -12    1    3    3    0    0  0.47392737959E+01  0.15311940348E+01 -0.16876685313E+01  0.52586591786E+01  0.00000000000E+00 0.  1.
</event>
<event>
 7    1  0.5041278E-013  0.5052886E+02  0.7816164E-02  0.1300439E+00
        -11   -1    0    0    0    0  0.00000000000E+00  0.00000000000E+00  0.45593999997E+02  0.45594000000E+02  0.51100000000E-03 0.  1.
         11   -1    0    0    0    0 -0.00000000000E+00 -0.00000000000E+00 -0.45593999997E+02  0.45594000000E+02  0.51100000000E-03 0. -1.
    9900012    2    1    2    0    0  0.21496066550E+02 -0.34767024240E+01 -0.34336536096E+02  0.50528855297E+02  0.29999986161E+02 0.  0.
        -12    1    1    2    0    0 -0.21496066550E+02  0.34767024240E+01  0.34336536096E+02  0.40659144703E+02  0.00000000000E+00 0.  1.
         11    1    3    3    0    0  0.15452758173E+02 -0.62638754878E+01 -0.89582683191E+01  0.18928138916E+02  0.51100000000E-03 0. -1.
        -11    1    3    3    0    0 -0.23321694319E+01 -0.22495157511E+01  0.10636957845E+01  0.34103935779E+01  0.51100000000E-03 0.  1.
         12    1    3    3    0    0  0.83754778084E+01  0.50366888148E+01 -0.26441963562E+02  0.28190322803E+02  0.00000000000E+00 0. -1.
</event>
<event>
 7    1  0.5041278E-013  0.5052886E+02  0.7816164E-02  0.1300439E+00
        -11   -1    0    0    0    0  0.00000000000E+00  0.00000000000E+00  0.45593999997E+02  0.45594000000E+02  0.51100000000E-03 0.  1.
         11   -1    0    0    0    0 -0.00000000000E+00 -0.00000000000E+00 -0.45593999997E+02  0.45594000000E+02  0.51100000000E-03 0. -1.
    9900012    2    1    2    0    0 -0.40655568030E+02 -0.53620069679E+00  0.55514300053E-01  0.50528858286E+02  0.29999995247E+02 0.  0.
        -12    1    1    2    0    0  0.40655568030E+02  0.53620069679E+00 -0.55514300053E-01  0.40659141714E+02  0.00000000000E+00 0.  1.
         11    1    3    3    0    0 -0.69066329440E+01  0.92452793875E+00 -0.22792637504E+01  0.73315328573E+01  0.51100000000E-03 0. -1.
        -11    1    3    3    0    0 -0.34008777118E+02  0.56140613412E+01 -0.26009876646E+01  0.34567032601E+02  0.51100000000E-03 0.  1.
        -12    1    3    3    0    0  0.25984203129E+00 -0.70747899767E+01  0.49357657151E+01  0.86302928276E+01  0.00000000000E+00 0.  1.
</event>
<event>
 7    1  0.5041278E-013  0.5052886E+02  0.7816164E-02  0.1300439E+00
        -11   -1    0    0    0    0  0.00000000000E+00  0.00000000000E+00  0.45593999997E+02  0.45594000000E+02  0.51100000000E-03 0. -1.
         11   -1    0    0    0    0 -0.00000000000E+00 -0.00000000000E+00 -0.45593999997E+02  0.45594000000E+02  0.51100000000E-03 0.  1.
    9900012    2    1    2    0    0  0.27423834419E+02  0.29306548826E+02 -0.64980844940E+01  0.50528860801E+02  0.30000002890E+02 0.  0.
        -12    1    1    2    0    0 -0.27423834419E+02 -0.29306548826E+02  0.64980844940E+01  0.40659139199E+02  0.00000000000E+00 0.  1.
         11    1    3    3    0    0  0.11508146800E+02  0.21015108923E+02 -0.76353539627E+01  0.25146985429E+02  0.51100000000E-03 0.  1.
        -11    1    3    3    0    0  0.39017719921E+01  0.60540888101E-01 -0.74969117414E+01  0.84516966224E+01  0.51100000000E-03 0. -1.
         12    1    3    3    0    0  0.12013915628E+02  0.82308990151E+01  0.86341812100E+01  0.16930178749E+02  0.00000000000E+00 0. -1.
</event>
<event>
 7    1  0.5041278E-013  0.5052884E+02  0.7816164E-02  0.1300439E+00
        -11   -1    0    0    0    0  0.00000000000E+00  0.00000000000E+00  0.45593999997E+02  0.45594000000E+02  0.51100000000E-03 0.  1.
         11   -1    0    0    0    0 -0.00000000000E+00 -0.00000000000E+00 -0.45593999997E+02  0.45594000000E+02  0.51100000000E-03 0. -1.
    9900012    2    1    2    0    0 -0.34511816782E+02  0.16063319397E+02 -0.14285352768E+02  0.50528843204E+02  0.29999949402E+02 0.  0.
        -12    1    1    2    0    0  0.34511816782E+02 -0.16063319397E+02  0.14285352768E+02  0.40659156796E+02  0.00000000000E+00 0.  1.
         11    1    3    3    0    0 -0.41579583831E+01  0.29108016853E+01 -0.92681738299E+01  0.10566949927E+02  0.51100000000E-03 0. -1.
        -11    1    3    3    0    0 -0.22129609331E+02  0.89699431720E+00 -0.10113353239E+02  0.24347569118E+02  0.51100000000E-03 0.  1.
        -12    1    3    3    0    0 -0.82242490683E+01  0.12255523395E+02  0.50961743008E+01  0.15614324158E+02  0.00000000000E+00 0.  1.
</event>
<event>
 7    1  0.5041278E-013  0.5052886E+02  0.7816164E-02  0.1300439E+00
        -11   -1    0    0    0    0  0.00000000000E+00  0.00000000000E+00  0.45593999997E+02  0.45594000000E+02  0.51100000000E-03 0.  1.
         11   -1    0    0    0    0 -0.00000000000E+00 -0.00000000000E+00 -0.45593999997E+02  0.45594000000E+02  0.51100000000E-03 0. -1.
    9900012    2    1    2    0    0  0.54953485667E+00 -0.13237665320E+02 -0.38439923362E+02  0.50528862284E+02  0.30000007399E+02 0.  0.
        -12    1    1    2    0    0 -0.54953485667E+00  0.13237665320E+02  0.38439923362E+02  0.40659137716E+02  0.00000000000E+00 0.  1.
         11    1    3    3    0    0 -0.85489030250E+01 -0.58445803641E+01 -0.13141647410E+02  0.16731579706E+02  0.51100000000E-03 0. -1.
        -11    1    3    3    0    0 -0.69583652356E+00 -0.19471234104E+01  0.28380013475E+01  0.35113715201E+01  0.51100000000E-03 0.  1.
         12    1    3    3    0    0  0.97942744052E+01 -0.54459615458E+01 -0.28136277300E+02  0.30285911058E+02  0.00000000000E+00 0. -1.
</event>
<event>
 7    1  0.5041278E-013  0.5052884E+02  0.7816164E-02  0.1300439E+00
        -11   -1    0    0    0    0  0.00000000000E+00  0.00000000000E+00  0.45593999997E+02  0.45594000000E+02  0.51100000000E-03 0.  1.
         11   -1    0    0    0    0 -0.00000000000E+00 -0.00000000000E+00 -0.45593999997E+02  0.45594000000E+02  0.51100000000E-03 0. -1.
    9900012    2    1    2    0    0 -0.20615897982E+02  0.62511128419E+01 -0.34482973423E+02  0.50528842146E+02  0.29999946186E+02 0.  0.
        -12    1    1    2    0    0  0.20615897982E+02 -0.62511128419E+01  0.34482973423E+02  0.40659157854E+02  0.00000000000E+00 0.  1.
         11    1    3    3    0    0  0.30747079447E+01  0.49008998794E+01 -0.11256746176E+02  0.12656499647E+02  0.51100000000E-03 0. -1.
        -11    1    3    3    0    0 -0.10845318361E+02 -0.78763106590E+01 -0.66535693743E+01  0.14964196792E+02  0.51100000000E-03 0.  1.
         12    1    3    3    0    0 -0.12845287566E+02  0.92265236216E+01 -0.16572657873E+02  0.22908145707E+02  0.00000000000E+00 0. -1.
</event>
<event>
 7    1  0.5041278E-013  0.5052887E+02  0.7816164E-02  0.1300439E+00
        -11   -1    0    0    0    0  0.00000000000E+00  0.00000000000E+00  0.45593999997E+02  0.45594000000E+02  0.51100000000E-03 0.  1.
         11   -1    0    0    0    0 -0.00000000000E+00 -0.00000000000E+00 -0.45593999997E+02  0.45594000000E+02  0.51100000000E-03 0. -1.
    9900012    2    1    2    0    0  0.17101047328E+02 -0.35121130992E+02  0.11279422038E+02  0.50528867897E+02  0.30000024459E+02 0.  0.
        -12    1    1    2    0    0 -0.17101047328E+02  0.35121130992E+02 -0.11279422038E+02  0.40659132103E+02  0.00000000000E+00 0.  1.
         11    1    3    3    0    0  0.13833019946E+02 -0.63593632876E+01 -0.37026900733E+01  0.15668562675E+02  0.51100000000E-03 0. -1.
        -11    1    3    3    0    0 -0.18778157568E+01 -0.50537197805E+01 -0.14207922013E+01  0.55753857603E+01  0.51100000000E-03 0.  1.
        -12    1    3    3    0    0  0.51458431379E+01 -0.23708047924E+02  0.16402904313E+02  0.29284919461E+02  0.00000000000E+00 0.  1.
</event>
<event>
 7    1  0.5041278E-013  0.5052886E+02  0.7816164E-02  0.1300439E+00
        -11   -1    0    0    0    0  0.00000000000E+00  0.00000000000E+00  0.45593999997E+02  0.45594000000E+02  0.51100000000E-03 0.  1.
         11   -1    0    0    0    0 -0.00000000000E+00 -0.00000000000E+00 -0.45593999997E+02  0.45594000000E+02  0.51100000000E-03 0. -1.
    9900012    2    1    2    0    0 -0.13423443088E+02 -0.38268227941E+02 -0.29188938986E+01  0.50528855448E+02  0.29999986621E+02 0.  0.
        -12    1    1    2    0    0  0.13423443088E+02  0.38268227941E+02  0.29188938986E+01  0.40659144552E+02  0.00000000000E+00 0.  1.
         11    1    3    3    0    0 -0.69830060492E+01 -0.58907877816E+01 -0.37306759498E+01  0.98682165296E+01  0.51100000000E-03 0. -1.
        -11    1    3    3    0    0 -0.13565237837E+01  0.29395411806E+01  0.36355106336E+01  0.48680588489E+01  0.51100000000E-03 0.  1.
        -12    1    3    3    0    0 -0.50839132554E+01 -0.35316981340E+02 -0.28237285824E+01  0.35792580070E+02  0.00000000000E+00 0.  1.
</event>
<event>
 7    1  0.5041278E-013  0.5052887E+02  0.7816164E-02  0.1300439E+00
        -11   -1    0    0    0    0  0.00000000000E+00  0.00000000000E+00  0.45593999997E+02  0.45594000000E+02  0.51100000000E-03 0.  1.
         11   -1    0    0    0    0 -0.00000000000E+00 -0.00000000000E+00 -0.45593999997E+02  0.45594000000E+02  0.51100000000E-03 0. -1.
    9900012    2    1    2    0    0 -0.28216971090E+02  0.13840525749E+01 -0.29241274384E+02  0.50528865889E+02  0.30000018357E+02 0.  0.
        -12    1    1    2    0    0  0.28216971090E+02 -0.13840525749E+01  0.29241274384E+02  0.40659134111E+02  0.00000000000E+00 0.  1.
         11    1    3    3    0    0 -0.96262655696E+01 -0.74581668452E+01 -0.80178040974E+01  0.14579932247E+02  0.51100000000E-03 0. -1.
        -11    1    3    3    0    0  0.42488164222E+00 -0.83469112099E+00  0.33073748513E+01  0.34374354315E+01  0.51100000000E-03 0.  1.
        -12    1    3    3    0    0 -0.19015587163E+02  0.96769105411E+01 -0.24530845138E+02  0.32511498211E+02  0.00000000000E+00 0.  1.
</event>
<event>
 7    1  0.5041278E-013  0.5052886E+02  0.7816164E-02  0.1300439E+00
        -11   -1    0    0    0    0  0.00000000000E+00  0.00000000000E+00  0.45593999997E+02  0.45594000000E+02  0.51100000000E-03 0. -1.
         11   -1    0    0    0    0 -0.00000000000E+00 -0.00000000000E+00 -0.45593999997E+02  0.45594000000E+02  0.51100000000E-03 0.  1.
    9900012    2    1    2    0    0 -0.29908380438E+02 -0.19462164030E+02  0.19490475803E+02  0.50528859623E+02  0.29999999309E+02 0.  0.
        -12    1    1    2    0    0  0.29908380438E+02  0.19462164030E+02 -0.19490475803E+02  0.40659140377E+02  0.00000000000E+00 0.  1.
         11    1    3    3    0    0 -0.15487539043E+02 -0.12500109058E+02  0.50739127113E+01  0.20539259543E+02  0.51100000000E-03 0. -1.
        -11    1    3    3    0    0 -0.12310790745E+02  0.36759692981E+00 -0.14338864044E+01  0.12399464777E+02  0.51100000000E-03 0.  1.
        -12    1    3    3    0    0 -0.21100506498E+01 -0.73296519018E+01  0.15850449497E+02  0.17590135303E+02  0.00000000000E+00 0.  1.
</event>
<event>
 7    1  0.5041278E-013  0.5052887E+02  0.7816164E-02  0.1300439E+00
        -11   -1    0    0    0    0  0.00000000000E+00  0.00000000000E+00  0.45593999997E+02  0.45594000000E+02  0.51100000000E-03 0.  1.
         11   -1    0    0    0    0 -0.00000000000E+00 -0.00000000000E+00 -0.45593999997E+02  0.45594000000E+02  0.51100000000E-03 0. -1.
    9900012    2    1    2    0    0  0.22300300726E+00 -0.30400978512E+02 -0.26998073849E+02  0.50528865523E+02  0.30000017245E+02 0.  0.
        -12    1    1    2    0    0 -0.22300300726E+00  0.30400978512E+02  0.26998073849E+02  0.40659134477E+02  0.00000000000E+00 0.  1.
         11    1    3    3    0    0 -0.34967139575E+01 -0.11585205289E+02 -0.19185710739E+02  0.22683374681E+02  0.51100000000E-03 0. -1.
        -11    1    3    3    0    0 -0.53021382230E+01  0.53970311155E+00 -0.21978112590E+01  0.57649218360E+01  0.51100000000E-03 0.  1.
        -12    1    3    3    0    0  0.90218551877E+01 -0.19355476335E+02 -0.56145518509E+01  0.22080569007E+02  0.00000000000E+00 0.  1.
</event>
<event>
 7    1  0.5041278E-013  0.5052885E+02  0.7816164E-02  0.1300439E+00
        -11   -1    0    0    0    0  0.00000000000E+00  0.00000000000E+00  0.45593999997E+02  0.45594000000E+02  0.51100000000E-03 0.  1.
         11   -1    0    0    0    0 -0.00000000000E+00 -0.00000000000E+00 -0.45593999997E+02  0.45594000000E+02  0.51100000000E-03 0. -1.
    9900012    2    1    2    0    0 -0.40680707942E+01  0.35659810800E+02 -0.19104845208E+02  0.50528850763E+02  0.29999972378E+02 0.  0.
        -12    1    1    2    0    0  0.40680707942E+01 -0.35659810800E+02  0.19104845208E+02  0.40659149237E+02  0.00000000000E+00 0.  1.
         11    1    3    3    0    0  0.76288196311E+01  0.96931421921E+01 -0.81171954458E+01  0.14766338635E+02  0.51100000000E-03 0. -1.
        -11    1    3    3    0    0 -0.99460814800E+01  0.10867812393E+02 -0.13935976966E+02  0.20279184827E+02  0.51100000000E-03 0.  1.
        -12    1    3    3    0    0 -0.17508089453E+01  0.15098856215E+02  0.29483272040E+01  0.15483327300E+02  0.00000000000E+00 0.  1.
</event>
<event>
 7    1  0.5041278E-013  0.5052887E+02  0.7816164E-02  0.1300439E+00
        -11   -1    0    0    0    0  0.00000000000E+00  0.00000000000E+00  0.45593999997E+02  0.45594000000E+02  0.51100000000E-03 0. -1.
         11   -1    0    0    0    0 -0.00000000000E+00 -0.00000000000E+00 -0.45593999997E+02  0.45594000000E+02  0.51100000000E-03 0.  1.
    9900012    2    1    2    0    0 -0.40443190576E+02  0.19897057783E+01  0.36816438233E+01  0.50528867025E+02  0.30000021808E+02 0.  0.
        -12    1    1    2    0    0  0.40443190576E+02 -0.19897057783E+01 -0.36816438233E+01  0.40659132975E+02  0.00000000000E+00 0.  1.
         11    1    3    3    0    0 -0.71846485363E+01  0.71541499255E+01  0.11996016803E+02  0.15706860130E+02  0.51100000000E-03 0. -1.
        -11    1    3    3    0    0 -0.40382869553E+01 -0.45141475518E-01 -0.19365844280E+01  0.44788568624E+01  0.51100000000E-03 0.  1.
         12    1    3    3    0    0 -0.29220255085E+02 -0.51193026716E+01 -0.63777885521E+01  0.30343150032E+02  0.00000000000E+00 0. -1.
</event>
<event>
 7    1  0.5041278E-013  0.5052887E+02  0.7816164E-02  0.1300439E+00
        -11   -1    0    0    0    0  0.00000000000E+00  0.00000000000E+00  0.45593999997E+02  0.45594000000E+02  0.51100000000E-03 0. -1.
         11   -1    0    0    0    0 -0.00000000000E+00 -0.00000000000E+00 -0.45593999997E+02  0.45594000000E+02  0.51100000000E-03 0.  1.
    9900012    2    1    2    0    0 -0.33996815523E+02  0.17460918612E+02 -0.13874348714E+02  0.50528871914E+02  0.30000036670E+02 0.  0.
        -12    1    1    2    0    0  0.33996815523E+02 -0.17460918612E+02  0.13874348714E+02  0.40659128086E+02  0.00000000000E+00 0.  1.
         11    1    3    3    0    0 -0.17950825636E+02  0.81797058204E+01  0.52030934116E+01  0.20401272256E+02  0.51100000000E-03 0. -1.
        -11    1    3    3    0    0 -0.14369872810E+02  0.94149471436E+01 -0.80487641798E+01  0.18971480685E+02  0.51100000000E-03 0.  1.
         12    1    3    3    0    0 -0.16761170759E+01 -0.13373435160E+00 -0.11028677945E+02  0.11156118974E+02  0.00000000000E+00 0. -1.
</event>
<event>
 7    1  0.5041278E-013  0.5052885E+02  0.7816164E-02  0.1300439E+00
        -11   -1    0    0    0    0  0.00000000000E+00  0.00000000000E+00  0.45593999997E+02  0.45594000000E+02  0.51100000000E-03 0.  1.
         11   -1    0    0    0    0 -0.00000000000E+00 -0.00000000000E+00 -0.45593999997E+02  0.45594000000E+02  0.51100000000E-03 0. -1.
    9900012    2    1    2    0    0 -0.70959174319E+01 -0.37693002701E+02 -0.13492678189E+02  0.50528845293E+02  0.29999955752E+02 0.  0.
        -12    1    1    2    0    0  0.70959174319E+01  0.37693002701E+02  0.13492678189E+02  0.40659154707E+02  0.00000000000E+00 0.  1.
         11    1    3    3    0    0 -0.15037999029E+01 -0.79961339727E+01  0.28563115242E+01  0.86231136164E+01  0.51100000000E-03 0. -1.
        -11    1    3    3    0    0 -0.12256469535E+02 -0.29035929233E+02 -0.11162275424E+02  0.33435050842E+02  0.51100000000E-03 0.  1.
         12    1    3    3    0    0  0.66643520062E+01 -0.66093949482E+00 -0.51867142890E+01  0.84706808342E+01  0.00000000000E+00 0. -1.
</event>
<event>
 7    1  0.5041278E-013  0.5052886E+02  0.7816164E-02  0.1300439E+00
        -11   -1    0    0    0    0  0.00000000000E+00  0.00000000000E+00  0.45593999997E+02  0.45594000000E+02  0.51100000000E-03 0.  1.
         11   -1    0    0    0    0 -0.00000000000E+00 -0.00000000000E+00 -0.45593999997E+02  0.45594000000E+02  0.51100000000E-03 0. -1.
    9900012    2    1    2    0    0 -0.33470673937E+02  0.21203151141E+02 -0.91272054830E+01  0.50528861887E+02  0.30000006192E+02 0.  0.
        -12    1    1    2    0    0  0.33470673937E+02 -0.21203151141E+02  0.91272054830E+01  0.40659138113E+02  0.00000000000E+00 0.  1.
         11    1    3    3    0    0 -0.28653069301E+02  0.13856391773E+02 -0.60730385548E+01  0.32401848264E+02  0.51100000000E-03 0. -1.
        -11    1    3    3    0    0 -0.70399193729E+01  0.54319341271E+01  0.45415012474E+01  0.99845684423E+01  0.51100000000E-03 0.  1.
         12    1    3    3    0    0  0.22223147369E+01  0.19148252410E+01 -0.75956681756E+01  0.81424451811E+01  0.00000000000E+00 0. -1.
</event>
<event>
 7    1  0.5041278E-013  0.5052886E+02  0.7816164E-02  0.1300439E+00
        -11   -1    0    0    0    0  0.00000000000E+00  0.00000000000E+00  0.45593999997E+02  0.45594000000E+02  0.51100000000E-03 0.  1.
         11   -1    0    0    0    0 -0.00000000000E+00 -0.00000000000E+00 -0.45593999997E+02  0.45594000000E+02  0.51100000000E-03 0. -1.
    9900012    2    1    2    0    0  0.70557027874E+01  0.36728150770E+02 -0.15950715100E+02  0.50528864336E+02  0.30000013634E+02 0.  0.
        -12    1    1    2    0    0 -0.70557027874E+01 -0.36728150770E+02  0.15950715100E+02  0.40659135664E+02  0.00000000000E+00 0.  1.
         11    1    3    3    0    0  0.46910640954E+01  0.11194678612E+02 -0.13752238244E+01  0.12215488218E+02  0.51100000000E-03 0. -1.
        -11    1    3    3    0    0  0.98468441930E+01  0.16306797513E+01 -0.68390882740E+01  0.12099280379E+02  0.51100000000E-03 0.  1.
        -12    1    3    3    0    0 -0.74822055010E+01  0.23902792406E+02 -0.77364030012E+01  0.26214095738E+02  0.00000000000E+00 0.  1.
</event>
<event>
 7    1  0.5041278E-013  0.5052888E+02  0.7816164E-02  0.1300439E+00
        -11   -1    0    0    0    0  0.00000000000E+00  0.00000000000E+00  0.45593999997E+02  0.45594000000E+02  0.51100000000E-03 0.  1.
         11   -1    0    0    0    0 -0.00000000000E+00 -0.00000000000E+00 -0.45593999997E+02  0.45594000000E+02  0.51100000000E-03 0. -1.
    9900012    2    1    2    0    0  0.29630282544E+02 -0.10800077134E+02 -0.25662601352E+02  0.50528875343E+02  0.30000047092E+02 0.  0.
        -12    1    1    2    0    0 -0.29630282544E+02  0.10800077134E+02  0.25662601352E+02  0.40659124657E+02  0.00000000000E+00 0.  1.
         11    1    3    3    0    0  0.11375458774E+01 -0.10202032072E+02 -0.12092308302E+02  0.15861884799E+02  0.51100000000E-03 0.  1.
        -11    1    3    3    0    0  0.14168185136E+02 -0.74093123684E+01 -0.77872377715E+01  0.17784162960E+02  0.51100000000E-03 0. -1.
        -12    1    3    3    0    0  0.14324551530E+02  0.68112673068E+01 -0.57830552787E+01  0.16882827584E+02  0.00000000000E+00 0.  1.
</event>
<event>
 7    1  0.5041278E-013  0.5052886E+02  0.7816164E-02  0.1300439E+00
        -11   -1    0    0    0    0  0.00000000000E+00  0.00000000000E+00  0.45593999997E+02  0.45594000000E+02  0.51100000000E-03 0.  1.
         11   -1    0    0    0    0 -0.00000000000E+00 -0.00000000000E+00 -0.45593999997E+02  0.45594000000E+02  0.51100000000E-03 0. -1.
    9900012    2    1    2    0    0  0.27853295179E+02 -0.99053664197E+01 -0.27914930884E+02  0.50528859546E+02  0.29999999075E+02 0.  0.
        -12    1    1    2    0    0 -0.27853295179E+02  0.99053664197E+01  0.27914930884E+02  0.40659140454E+02  0.00000000000E+00 0.  1.
         11    1    3    3    0    0  0.11575847772E+02 -0.16620523118E+01 -0.18078800995E+02  0.21531505177E+02  0.51100000000E-03 0. -1.
        -11    1    3    3    0    0  0.54687384065E+00  0.47814875207E+01 -0.68286401500E+01  0.83541618650E+01  0.51100000000E-03 0.  1.
        -12    1    3    3    0    0  0.15730573567E+02 -0.13024801629E+02 -0.30074897390E+01  0.20643192503E+02  0.00000000000E+00 0.  1.
</event>
<event>
 7    1  0.5041278E-013  0.5052885E+02  0.7816164E-02  0.1300439E+00
        -11   -1    0    0    0    0  0.00000000000E+00  0.00000000000E+00  0.45593999997E+02  0.45594000000E+02  0.51100000000E-03 0.  1.
         11   -1    0    0    0    0 -0.00000000000E+00 -0.00000000000E+00 -0.45593999997E+02  0.45594000000E+02  0.51100000000E-03 0. -1.
    9900012    2    1    2    0    0 -0.20577324991E+01 -0.15336250740E+02 -0.37599624477E+02  0.50528848378E+02  0.29999965130E+02 0.  0.
        -12    1    1    2    0    0  0.20577324991E+01  0.15336250740E+02  0.37599624477E+02  0.40659151622E+02  0.00000000000E+00 0.  1.
         11    1    3    3    0    0  0.83249438428E+01 -0.69250542187E+01 -0.49941745571E+01  0.11924883466E+02  0.51100000000E-03 0. -1.
        -11    1    3    3    0    0  0.32684688034E+01 -0.37666059296E+01 -0.15223351235E+02  0.16019382998E+02  0.51100000000E-03 0.  1.
         12    1    3    3    0    0 -0.13651145145E+02 -0.46445905919E+01 -0.17382098685E+02  0.22584581914E+02  0.00000000000E+00 0. -1.
</event>
<event>
 7    1  0.5041278E-013  0.5052883E+02  0.7816164E-02  0.1300439E+00
        -11   -1    0    0    0    0  0.00000000000E+00  0.00000000000E+00  0.45593999997E+02  0.45594000000E+02  0.51100000000E-03 0.  1.
         11   -1    0    0    0    0 -0.00000000000E+00 -0.00000000000E+00 -0.45593999997E+02  0.45594000000E+02  0.51100000000E-03 0. -1.
    9900012    2    1    2    0    0 -0.88892453555E+01  0.28315564917E+02  0.27791691617E+02  0.50528831015E+02  0.29999912354E+02 0.  0.
        -12    1    1    2    0    0  0.88892453555E+01 -0.28315564917E+02 -0.27791691617E+02  0.40659168985E+02  0.00000000000E+00 0.  1.
         11    1    3    3    0    0 -0.78674479149E+01  0.92391276061E+01  0.24535563997E+01  0.12380555516E+02  0.51100000000E-03 0. -1.
        -11    1    3    3    0    0 -0.64709469487E+01  0.21360331842E+02  0.17664328604E+02  0.28463405210E+02  0.51100000000E-03 0.  1.
        -12    1    3    3    0    0  0.54491495081E+01 -0.22838945310E+01  0.76738066131E+01  0.96848702896E+01  0.00000000000E+00 0.  1.
</event>
<event>
 7    1  0.5041278E-013  0.5052885E+02  0.7816164E-02  0.1300439E+00
        -11   -1    0    0    0    0  0.00000000000E+00  0.00000000000E+00  0.45593999997E+02  0.45594000000E+02  0.51100000000E-03 0.  1.
         11   -1    0    0    0    0 -0.00000000000E+00 -0.00000000000E+00 -0.45593999997E+02  0.45594000000E+02  0.51100000000E-03 0. -1.
    9900012    2    1    2    0    0 -0.10240929469E+01 -0.29735394739E+02 -0.27711435227E+02  0.50528854547E+02  0.29999983880E+02 0.  0.
        -12    1    1    2    0    0  0.10240929469E+01  0.29735394739E+02  0.27711435227E+02  0.40659145453E+02  0.00000000000E+00 0.  1.
         11    1    3    3    0    0 -0.22702972411E+01 -0.22180018853E+02 -0.29680821995E+02  0.37122212763E+02  0.51100000000E-03 0. -1.
        -11    1    3    3    0    0 -0.23064337373E+01 -0.84687677846E+01 -0.79543579289E+00  0.88131936740E+01  0.51100000000E-03 0.  1.
        -12    1    3    3    0    0  0.35526380315E+01  0.91339189794E+00  0.27648225609E+01  0.45934481096E+01  0.00000000000E+00 0.  1.
</event>
<event>
 7    1  0.5041278E-013  0.5052886E+02  0.7816164E-02  0.1300439E+00
        -11   -1    0    0    0    0  0.00000000000E+00  0.00000000000E+00  0.45593999997E+02  0.45594000000E+02  0.51100000000E-03 0. -1.
         11   -1    0    0    0    0 -0.00000000000E+00 -0.00000000000E+00 -0.45593999997E+02  0.45594000000E+02  0.51100000000E-03 0.  1.
    9900012    2    1    2    0    0 -0.13476651061E+02  0.19758309389E+02  0.32880919358E+02  0.50528858696E+02  0.29999996492E+02 0.  0.
        -12    1    1    2    0    0  0.13476651061E+02 -0.19758309389E+02 -0.32880919358E+02  0.40659141304E+02  0.00000000000E+00 0.  1.
         11    1    3    3    0    0 -0.11665517868E+02  0.14747643374E+02  0.12968333317E+02  0.22841956166E+02  0.51100000000E-03 0. -1.
        -11    1    3    3    0    0  0.23532625919E+01  0.11383284617E+02  0.12083810311E+02  0.16767095318E+02  0.51100000000E-03 0.  1.
        -12    1    3    3    0    0 -0.41643957851E+01 -0.63726186024E+01  0.78287757300E+01  0.10919807212E+02  0.00000000000E+00 0.  1.
</event>
<event>
 7    1  0.5041278E-013  0.5052885E+02  0.7816164E-02  0.1300439E+00
        -11   -1    0    0    0    0  0.00000000000E+00  0.00000000000E+00  0.45593999997E+02  0.45594000000E+02  0.51100000000E-03 0.  1.
         11   -1    0    0    0    0 -0.00000000000E+00 -0.00000000000E+00 -0.45593999997E+02  0.45594000000E+02  0.51100000000E-03 0. -1.
    9900012    2    1    2    0    0  0.39724285794E+02  0.59361994510E+01 -0.63173413218E+01  0.50528854078E+02  0.29999982454E+02 0.  0.
        -12    1    1    2    0    0 -0.39724285794E+02 -0.59361994510E+01  0.63173413218E+01  0.40659145922E+02  0.00000000000E+00 0.  1.
         11    1    3    3    0    0  0.13416775040E+02 -0.48776668331E+01 -0.83557107906E+01  0.16541444595E+02  0.51100000000E-03 0. -1.
        -11    1    3    3    0    0  0.10719871275E+02 -0.31946047785E+01  0.59474201952E+01  0.12668581100E+02  0.51100000000E-03 0.  1.
         12    1    3    3    0    0  0.15587639479E+02  0.14008471063E+02 -0.39090507264E+01  0.21318828383E+02  0.00000000000E+00 0. -1.
</event>
<event>
 7    1  0.5041278E-013  0.5052886E+02  0.7816164E-02  0.1300439E+00
        -11   -1    0    0    0    0  0.00000000000E+00  0.00000000000E+00  0.45593999997E+02  0.45594000000E+02  0.51100000000E-03 0.  1.
         11   -1    0    0    0    0 -0.00000000000E+00 -0.00000000000E+00 -0.45593999997E+02  0.45594000000E+02  0.51100000000E-03 0. -1.
    9900012    2    1    2    0    0 -0.13509861968E+02 -0.15872346366E+02 -0.34910146293E+02  0.50528855103E+02  0.29999985570E+02 0.  0.
        -12    1    1    2    0    0  0.13509861968E+02  0.15872346366E+02  0.34910146293E+02  0.40659144897E+02  0.00000000000E+00 0.  1.
         11    1    3    3    0    0 -0.11608962558E+02 -0.14768848621E+02 -0.86636975727E+01  0.20686869197E+02  0.51100000000E-03 0.  1.
        -11    1    3    3    0    0 -0.59048347779E+01 -0.50219229766E+01 -0.20008831705E+02  0.21457868734E+02  0.51100000000E-03 0. -1.
        -12    1    3    3    0    0  0.40039353678E+01  0.39184252314E+01 -0.62376170153E+01  0.83841171720E+01  0.00000000000E+00 0.  1.
</event>
<event>
 7    1  0.5041278E-013  0.5052886E+02  0.7816164E-02  0.1300439E+00
        -11   -1    0    0    0    0  0.00000000000E+00  0.00000000000E+00  0.45593999997E+02  0.45594000000E+02  0.51100000000E-03 0.  1.
         11   -1    0    0    0    0 -0.00000000000E+00 -0.00000000000E+00 -0.45593999997E+02  0.45594000000E+02  0.51100000000E-03 0. -1.
    9900012    2    1    2    0    0 -0.10781124426E+02  0.75958217863E+01 -0.38460846060E+02  0.50528857951E+02  0.29999994229E+02 0.  0.
        -12    1    1    2    0    0  0.10781124426E+02 -0.75958217863E+01  0.38460846060E+02  0.40659142049E+02  0.00000000000E+00 0.  1.
         11    1    3    3    0    0 -0.14192450843E+02  0.58022094168E+01 -0.31089338105E+02  0.34664654031E+02  0.51100000000E-03 0. -1.
        -11    1    3    3    0    0 -0.93704644164E+00 -0.52084151844E+01 -0.86298870098E+00  0.53619394370E+01  0.51100000000E-03 0.  1.
        -12    1    3    3    0    0  0.43483728595E+01  0.70020275540E+01 -0.65085192541E+01  0.10502264483E+02  0.00000000000E+00 0.  1.
</event>
<event>
 7    1  0.5041278E-013  0.5052886E+02  0.7816164E-02  0.1300439E+00
        -11   -1    0    0    0    0  0.00000000000E+00  0.00000000000E+00  0.45593999997E+02  0.45594000000E+02  0.51100000000E-03 0. -1.
         11   -1    0    0    0    0 -0.00000000000E+00 -0.00000000000E+00 -0.45593999997E+02  0.45594000000E+02  0.51100000000E-03 0.  1.
    9900012    2    1    2    0    0 -0.49474934962E+01  0.32711483092E+02  0.23635708803E+02  0.50528861439E+02  0.30000004829E+02 0.  0.
        -12    1    1    2    0    0  0.49474934962E+01 -0.32711483092E+02 -0.23635708803E+02  0.40659138561E+02  0.00000000000E+00 0.  1.
         11    1    3    3    0    0 -0.78060930789E+01  0.19239988001E+02  0.73380932801E+01  0.22021803756E+02  0.51100000000E-03 0. -1.
        -11    1    3    3    0    0 -0.26936364530E+01  0.14911859607E+02  0.16947833369E+02  0.22734297668E+02  0.51100000000E-03 0.  1.
        -12    1    3    3    0    0  0.55522360356E+01 -0.14403645163E+01 -0.65021784656E+00  0.57727600143E+01  0.00000000000E+00 0.  1.
</event>
<event>
 7    1  0.5041278E-013  0.5052883E+02  0.7816164E-02  0.1300439E+00
        -11   -1    0    0    0    0  0.00000000000E+00  0.00000000000E+00  0.45593999997E+02  0.45594000000E+02  0.51100000000E-03 0.  1.
         11   -1    0    0    0    0 -0.00000000000E+00 -0.00000000000E+00 -0.45593999997E+02  0.45594000000E+02  0.51100000000E-03 0. -1.
    9900012    2    1    2    0    0 -0.13074725024E+02 -0.48760155137E+01 -0.38189576751E+02  0.50528834562E+02  0.29999923134E+02 0.  0.
        -12    1    1    2    0    0  0.13074725024E+02  0.48760155137E+01  0.38189576751E+02  0.40659165438E+02  0.00000000000E+00 0.  1.
         11    1    3    3    0    0 -0.25612900416E+01 -0.54959766300E+01 -0.29321602034E+01  0.67352453195E+01  0.51100000000E-03 0.  1.
        -11    1    3    3    0    0 -0.97400165289E+01 -0.47575350682E+00 -0.38799448016E+02  0.40006142403E+02  0.51100000000E-03 0. -1.
         12    1    3    3    0    0 -0.77341845340E+00  0.10957146232E+01  0.35420314684E+01  0.37874468396E+01  0.00000000000E+00 0. -1.
</event>
<event>
 7    1  0.5041278E-013  0.5052887E+02  0.7816164E-02  0.1300439E+00
        -11   -1    0    0    0    0  0.00000000000E+00  0.00000000000E+00  0.45593999997E+02  0.45594000000E+02  0.51100000000E-03 0.  1.
         11   -1    0    0    0    0 -0.00000000000E+00 -0.00000000000E+00 -0.45593999997E+02  0.45594000000E+02  0.51100000000E-03 0. -1.
    9900012    2    1    2    0    0  0.12130180734E+02  0.13640911345E+02 -0.36331106753E+02  0.50528867387E+02  0.30000022909E+02 0.  0.
        -12    1    1    2    0    0 -0.12130180734E+02 -0.13640911345E+02  0.36331106753E+02  0.40659132613E+02  0.00000000000E+00 0.  1.
         11    1    3    3    0    0 -0.29172158262E+01  0.11660674962E+01 -0.10413150470E+02  0.10876744208E+02  0.51100000000E-03 0. -1.
        -11    1    3    3    0    0  0.37031563807E+01 -0.66760449660E+01 -0.81900415494E+01  0.11196415695E+02  0.51100000000E-03 0.  1.
        -12    1    3    3    0    0  0.11344240180E+02  0.19150888815E+02 -0.17727914733E+02  0.28455707484E+02  0.00000000000E+00 0.  1.
</event>
<event>
 7    1  0.5041278E-013  0.5052886E+02  0.7816164E-02  0.1300439E+00
        -11   -1    0    0    0    0  0.00000000000E+00  0.00000000000E+00  0.45593999997E+02  0.45594000000E+02  0.51100000000E-03 0.  1.
         11   -1    0    0    0    0 -0.00000000000E+00 -0.00000000000E+00 -0.45593999997E+02  0.45594000000E+02  0.51100000000E-03 0. -1.
    9900012    2    1    2    0    0  0.16199158427E+01 -0.16786821762E+02 -0.36996538767E+02  0.50528863352E+02  0.30000010646E+02 0.  0.
        -12    1    1    2    0    0 -0.16199158427E+01  0.16786821762E+02  0.36996538767E+02  0.40659136648E+02  0.00000000000E+00 0.  1.
         11    1    3    3    0    0 -0.23481701094E+01  0.14291818845E+00 -0.23144999636E+02  0.23264250189E+02  0.51100000000E-03 0. -1.
        -11    1    3    3    0    0  0.10029811134E+02 -0.88001032045E+01 -0.78644545629E+01  0.15488336696E+02  0.51100000000E-03 0.  1.
        -12    1    3    3    0    0 -0.60617251817E+01 -0.81296367456E+01 -0.59870845684E+01  0.11776276467E+02  0.00000000000E+00 0.  1.
</event>
<event>
 7    1  0.5041278E-013  0.5052886E+02  0.7816164E-02  0.1300439E+00
        -11   -1    0    0    0    0  0.00000000000E+00  0.00000000000E+00  0.45593999997E+02  0.45594000000E+02  0.51100000000E-03 0.  1.
         11   -1    0    0    0    0 -0.00000000000E+00 -0.00000000000E+00 -0.45593999997E+02  0.45594000000E+02  0.51100000000E-03 0. -1.
    9900012    2    1    2    0    0  0.84410946652E+00 -0.10987067143E+02 -0.39137418464E+02  0.50528859709E+02  0.29999999572E+02 0.  0.
        -12    1    1    2    0    0 -0.84410946652E+00  0.10987067143E+02  0.39137418464E+02  0.40659140291E+02  0.00000000000E+00 0.  1.
         11    1    3    3    0    0 -0.94993618918E+01 -0.10040576154E+02 -0.13006947348E+02  0.18979771480E+02  0.51100000000E-03 0. -1.
        -11    1    3    3    0    0  0.38444447503E+01 -0.64770685840E+01 -0.18965092260E+02  0.20406050513E+02  0.51100000000E-03 0.  1.
         12    1    3    3    0    0  0.64990266081E+01  0.55305775949E+01 -0.71653788558E+01  0.11143037716E+02  0.00000000000E+00 0. -1.
</event>
<event>
 7    1  0.5041278E-013  0.5052886E+02  0.7816164E-02  0.1300439E+00
        -11   -1    0    0    0    0  0.00000000000E+00  0.00000000000E+00  0.45593999997E+02  0.45594000000E+02  0.51100000000E-03 0. -1.
         11   -1    0    0    0    0 -0.00000000000E+00 -0.00000000000E+00 -0.45593999997E+02  0.45594000000E+02  0.51100000000E-03 0.  1.
    9900012    2    1    2    0    0  0.28925945401E+02  0.26477390359E+02 -0.10742577414E+02  0.50528862195E+02  0.30000007128E+02 0.  0.
        -12    1    1    2    0    0 -0.28925945401E+02 -0.26477390359E+02  0.10742577414E+02  0.40659137805E+02  0.00000000000E+00 0.  1.
         11    1    3    3    0    0  0.77418608676E+01  0.86150608691E+01  0.41692342257E+01  0.12310085205E+02  0.51100000000E-03 0. -1.
        -11    1    3    3    0    0  0.19431811087E+02  0.14488663084E+02 -0.15072434160E+01  0.24285559970E+02  0.51100000000E-03 0.  1.
        -12    1    3    3    0    0  0.17522734462E+01  0.33736664063E+01 -0.13404568224E+02  0.13933217020E+02  0.00000000000E+00 0.  1.
</event>
<event>
 7    1  0.5041278E-013  0.5052887E+02  0.7816164E-02  0.1300439E+00
        -11   -1    0    0    0    0  0.00000000000E+00  0.00000000000E+00  0.45593999997E+02  0.45594000000E+02  0.51100000000E-03 0.  1.
         11   -1    0    0    0    0 -0.00000000000E+00 -0.00000000000E+00 -0.45593999997E+02  0.45594000000E+02  0.51100000000E-03 0. -1.
    9900012    2    1    2    0    0  0.50893507847E+01 -0.12325722681E+01 -0.40320522346E+02  0.50528865134E+02  0.30000016061E+02 0.  0.
        -12    1    1    2    0    0 -0.50893507847E+01  0.12325722681E+01  0.40320522346E+02  0.40659134866E+02  0.00000000000E+00 0.  1.
         11    1    3    3    0    0 -0.31962399463E+01 -0.36504394331E+01 -0.20263577192E+02  0.20836367695E+02  0.51100000000E-03 0. -1.
        -11    1    3    3    0    0 -0.15313831630E+01  0.85298574467E+01 -0.14429175521E+02  0.16831657937E+02  0.51100000000E-03 0.  1.
        -12    1    3    3    0    0  0.98169738940E+01 -0.61119902816E+01 -0.56277696338E+01  0.12860839502E+02  0.00000000000E+00 0.  1.
</event>
<event>
 7    1  0.5041278E-013  0.5052886E+02  0.7816164E-02  0.1300439E+00
        -11   -1    0    0    0    0  0.00000000000E+00  0.00000000000E+00  0.45593999997E+02  0.45594000000E+02  0.51100000000E-03 0. -1.
         11   -1    0    0    0    0 -0.00000000000E+00 -0.00000000000E+00 -0.45593999997E+02  0.45594000000E+02  0.51100000000E-03 0.  1.
    9900012    2    1    2    0    0 -0.99552185307E+01  0.30379917348E+02  0.25122098873E+02  0.50528860734E+02  0.30000002687E+02 0.  0.
        -12    1    1    2    0    0  0.99552185307E+01 -0.30379917348E+02 -0.25122098873E+02  0.40659139266E+02  0.00000000000E+00 0.  1.
         11    1    3    3    0    0 -0.85183760645E+01  0.11743996814E+02  0.22114754364E+02  0.26448942376E+02  0.51100000000E-03 0.  1.
        -11    1    3    3    0    0 -0.81861816419E+01  0.10037029568E+02  0.19409467770E+01  0.13096671603E+02  0.51100000000E-03 0. -1.
        -12    1    3    3    0    0  0.67493391756E+01  0.85988909665E+01  0.10663977313E+01  0.10983246755E+02  0.00000000000E+00 0.  1.
</event>
<event>
 7    1  0.5041278E-013  0.5052886E+02  0.7816164E-02  0.1300439E+00
        -11   -1    0    0    0    0  0.00000000000E+00  0.00000000000E+00  0.45593999997E+02  0.45594000000E+02  0.51100000000E-03 0. -1.
         11   -1    0    0    0    0 -0.00000000000E+00 -0.00000000000E+00 -0.45593999997E+02  0.45594000000E+02  0.51100000000E-03 0.  1.
    9900012    2    1    2    0    0 -0.11221559518E+02 -0.25163414124E+02  0.29900578435E+02  0.50528863276E+02  0.30000010413E+02 0.  0.
        -12    1    1    2    0    0  0.11221559518E+02  0.25163414124E+02 -0.29900578435E+02  0.40659136724E+02  0.00000000000E+00 0.  1.
         11    1    3    3    0    0  0.15279194496E+01 -0.33151397321E+01  0.87560959438E+01  0.94865117786E+01  0.51100000000E-03 0. -1.
        -11    1    3    3    0    0 -0.17565188259E+02 -0.21215655347E+02  0.22958964545E+02  0.35857411000E+02  0.51100000000E-03 0.  1.
         12    1    3    3    0    0  0.48157092915E+01 -0.63261904441E+00 -0.18144820535E+01  0.51849404970E+01  0.00000000000E+00 0. -1.
</event>
<event>
 7    1  0.5041278E-013  0.5052883E+02  0.7816164E-02  0.1300439E+00
        -11   -1    0    0    0    0  0.00000000000E+00  0.00000000000E+00  0.45593999997E+02  0.45594000000E+02  0.51100000000E-03 0. -1.
         11   -1    0    0    0    0 -0.00000000000E+00 -0.00000000000E+00 -0.45593999997E+02  0.45594000000E+02  0.51100000000E-03 0.  1.
    9900012    2    1    2    0    0 -0.28800949624E+02  0.28147751850E+02  0.56015849101E+01  0.50528826534E+02  0.29999898731E+02 0.  0.
        -12    1    1    2    0    0  0.28800949624E+02 -0.28147751850E+02 -0.56015849101E+01  0.40659173466E+02  0.00000000000E+00 0.  1.
         11    1    3    3    0    0 -0.14901901027E+02  0.14567794474E+02 -0.37097702762E+01  0.21167184173E+02  0.51100000000E-03 0. -1.
        -11    1    3    3    0    0 -0.19000395027E+02  0.94372348750E+01  0.62829427827E+01  0.22125817127E+02  0.51100000000E-03 0.  1.
        -12    1    3    3    0    0  0.51013464301E+01  0.41427225014E+01  0.30284124036E+01  0.72358252335E+01  0.00000000000E+00 0.  1.
</event>
<event>
 7    1  0.5041278E-013  0.5052898E+02  0.7816164E-02  0.1300438E+00
        -11   -1    0    0    0    0  0.00000000000E+00  0.00000000000E+00  0.45593999997E+02  0.45594000000E+02  0.51100000000E-03 0.  1.
         11   -1    0    0    0    0 -0.00000000000E+00 -0.00000000000E+00 -0.45593999997E+02  0.45594000000E+02  0.51100000000E-03 0. -1.
    9900012    2    1    2    0    0  0.10354411723E+02  0.84522715210E+01 -0.38399235950E+02  0.50528978153E+02  0.30000359593E+02 0.  0.
        -12    1    1    2    0    0 -0.10354411723E+02 -0.84522715210E+01  0.38399235950E+02  0.40659021847E+02  0.00000000000E+00 0.  1.
         11    1    3    3    0    0  0.12244945661E+02  0.79000080328E+01 -0.22979421319E+02  0.27210340416E+02  0.51100000000E-03 0. -1.
        -11    1    3    3    0    0 -0.31056249017E+01  0.78245063144E+01 -0.13132293961E+02  0.15598876563E+02  0.51100000000E-03 0.  1.
        -12    1    3    3    0    0  0.12150909639E+01 -0.72722428261E+01 -0.22875206707E+01  0.77197611745E+01  0.00000000000E+00 0.  1.
</event>
<event>
 7    1  0.5041278E-013  0.5052885E+02  0.7816164E-02  0.1300439E+00
        -11   -1    0    0    0    0  0.00000000000E+00  0.00000000000E+00  0.45593999997E+02  0.45594000000E+02  0.51100000000E-03 0.  1.
         11   -1    0    0    0    0 -0.00000000000E+00 -0.00000000000E+00 -0.45593999997E+02  0.45594000000E+02  0.51100000000E-03 0. -1.
    9900012    2    1    2    0    0 -0.25084439941E+02 -0.18723040241E+02 -0.25949657527E+02  0.50528854795E+02  0.29999984634E+02 0.  0.
        -12    1    1    2    0    0  0.25084439941E+02  0.18723040241E+02  0.25949657527E+02  0.40659145205E+02  0.00000000000E+00 0.  1.
         11    1    3    3    0    0 -0.33865618060E+01  0.50209664239E+01 -0.35331312212E+01  0.70115562597E+01  0.51100000000E-03 0. -1.
        -11    1    3    3    0    0  0.14476835775E+00 -0.12922181023E+02 -0.77993882056E+01  0.15094176921E+02  0.51100000000E-03 0.  1.
         12    1    3    3    0    0 -0.21842646493E+02 -0.10821825642E+02 -0.14617138101E+02  0.28423121614E+02  0.00000000000E+00 0. -1.
</event>
<event>
 7    1  0.5041278E-013  0.5052885E+02  0.7816164E-02  0.1300439E+00
        -11   -1    0    0    0    0  0.00000000000E+00  0.00000000000E+00  0.45593999997E+02  0.45594000000E+02  0.51100000000E-03 0.  1.
         11   -1    0    0    0    0 -0.00000000000E+00 -0.00000000000E+00 -0.45593999997E+02  0.45594000000E+02  0.51100000000E-03 0. -1.
    9900012    2    1    2    0    0  0.96146768029E+01  0.35211839200E+02 -0.17912301265E+02  0.50528853840E+02  0.29999981732E+02 0.  0.
        -12    1    1    2    0    0 -0.96146768029E+01 -0.35211839200E+02  0.17912301265E+02  0.40659146160E+02  0.00000000000E+00 0.  1.
         11    1    3    3    0    0  0.50907769596E+01  0.26248029176E+01  0.54938963901E+01  0.79365293558E+01  0.51100000000E-03 0. -1.
        -11    1    3    3    0    0  0.53362050339E+01  0.10278629356E+02 -0.14501756828E+02  0.18558724551E+02  0.51100000000E-03 0.  1.
        -12    1    3    3    0    0 -0.81230519055E+00  0.22308406926E+02 -0.89044408274E+01  0.24033599933E+02  0.00000000000E+00 0.  1.
</event>
<event>
 7    1  0.5041278E-013  0.5052886E+02  0.7816164E-02  0.1300439E+00
        -11   -1    0    0    0    0  0.00000000000E+00  0.00000000000E+00  0.45593999997E+02  0.45594000000E+02  0.51100000000E-03 0. -1.
         11   -1    0    0    0    0 -0.00000000000E+00 -0.00000000000E+00 -0.45593999997E+02  0.45594000000E+02  0.51100000000E-03 0.  1.
    9900012    2    1    2    0    0 -0.76291939014E+01  0.16957524438E+02  0.36158034289E+02  0.50528859843E+02  0.29999999978E+02 0.  0.
        -12    1    1    2    0    0  0.76291939014E+01 -0.16957524438E+02 -0.36158034289E+02  0.40659140157E+02  0.00000000000E+00 0.  1.
         11    1    3    3    0    0 -0.42368325976E+01  0.47837969323E+01 -0.72608866609E-02  0.63902673286E+01  0.51100000000E-03 0. -1.
        -11    1    3    3    0    0 -0.11965793751E+02  0.10854665105E+02  0.19267406143E+02  0.25144321712E+02  0.51100000000E-03 0.  1.
        -12    1    3    3    0    0  0.85734324468E+01  0.13190624015E+01  0.16897889033E+02  0.18994270802E+02  0.00000000000E+00 0.  1.
</event>
<event>
 7    1  0.5041278E-013  0.5052886E+02  0.7816164E-02  0.1300439E+00
        -11   -1    0    0    0    0  0.00000000000E+00  0.00000000000E+00  0.45593999997E+02  0.45594000000E+02  0.51100000000E-03 0.  1.
         11   -1    0    0    0    0 -0.00000000000E+00 -0.00000000000E+00 -0.45593999997E+02  0.45594000000E+02  0.51100000000E-03 0. -1.
    9900012    2    1    2    0    0 -0.25873843272E+02  0.26822383967E+02 -0.16256372925E+02  0.50528859477E+02  0.29999998867E+02 0.  0.
        -12    1    1    2    0    0  0.25873843272E+02 -0.26822383967E+02  0.16256372925E+02  0.40659140523E+02  0.00000000000E+00 0.  1.
         11    1    3    3    0    0 -0.14420629720E+02  0.12059191001E+02 -0.36529394949E+01  0.19150003038E+02  0.51100000000E-03 0. -1.
        -11    1    3    3    0    0 -0.13157853795E+02  0.15744583407E+02 -0.16945865137E+02  0.26611714876E+02  0.51100000000E-03 0.  1.
        -12    1    3    3    0    0  0.17046402431E+01 -0.98139044055E+00  0.43424317070E+01  0.47671415634E+01  0.00000000000E+00 0.  1.
</event>
<event>
 7    1  0.5041278E-013  0.5052885E+02  0.7816164E-02  0.1300439E+00
        -11   -1    0    0    0    0  0.00000000000E+00  0.00000000000E+00  0.45593999997E+02  0.45594000000E+02  0.51100000000E-03 0.  1.
         11   -1    0    0    0    0 -0.00000000000E+00 -0.00000000000E+00 -0.45593999997E+02  0.45594000000E+02  0.51100000000E-03 0. -1.
    9900012    2    1    2    0    0 -0.81337506219E+01  0.38511560102E+02 -0.10191598928E+02  0.50528845442E+02  0.29999956205E+02 0.  0.
        -12    1    1    2    0    0  0.81337506219E+01 -0.38511560102E+02  0.10191598928E+02  0.40659154558E+02  0.00000000000E+00 0.  1.
         11    1    3    3    0    0 -0.26386475752E+01  0.15743376761E+02 -0.30556565460E+01  0.16252796991E+02  0.51100000000E-03 0. -1.
        -11    1    3    3    0    0 -0.11274032831E+02  0.24361489464E+02 -0.30389692520E+01  0.27015205340E+02  0.51100000000E-03 0.  1.
         12    1    3    3    0    0  0.57789297839E+01 -0.15933061229E+01 -0.40969731304E+01  0.72608431108E+01  0.00000000000E+00 0. -1.
</event>
<event>
 7    1  0.5041278E-013  0.5052887E+02  0.7816164E-02  0.1300439E+00
        -11   -1    0    0    0    0  0.00000000000E+00  0.00000000000E+00  0.45593999997E+02  0.45594000000E+02  0.51100000000E-03 0. -1.
         11   -1    0    0    0    0 -0.00000000000E+00 -0.00000000000E+00 -0.45593999997E+02  0.45594000000E+02  0.51100000000E-03 0.  1.
    9900012    2    1    2    0    0 -0.11163412593E+02 -0.12571493188E+02  0.37020272081E+02  0.50528871054E+02  0.30000034056E+02 0.  0.
        -12    1    1    2    0    0  0.11163412593E+02  0.12571493188E+02 -0.37020272081E+02  0.40659128946E+02  0.00000000000E+00 0.  1.
         11    1    3    3    0    0 -0.12398404645E+02 -0.21141636444E+01  0.23212284485E+02  0.26400762810E+02  0.51100000000E-03 0. -1.
        -11    1    3    3    0    0 -0.74881166180E+01 -0.49625617548E+01  0.37805302356E+01  0.97463489973E+01  0.51100000000E-03 0.  1.
         12    1    3    3    0    0  0.87231086701E+01 -0.54947677888E+01  0.10027457361E+02  0.14381759247E+02  0.00000000000E+00 0. -1.
</event>
<event>
 7    1  0.5041278E-013  0.5052886E+02  0.7816164E-02  0.1300439E+00
        -11   -1    0    0    0    0  0.00000000000E+00  0.00000000000E+00  0.45593999997E+02  0.45594000000E+02  0.51100000000E-03 0.  1.
         11   -1    0    0    0    0 -0.00000000000E+00 -0.00000000000E+00 -0.45593999997E+02  0.45594000000E+02  0.51100000000E-03 0. -1.
    9900012    2    1    2    0    0 -0.32260820904E+02  0.24155485284E+02 -0.53774914395E+01  0.50528862664E+02  0.30000008554E+02 0.  0.
        -12    1    1    2    0    0  0.32260820904E+02 -0.24155485284E+02  0.53774914395E+01  0.40659137336E+02  0.00000000000E+00 0.  1.
         11    1    3    3    0    0  0.79411957084E+00  0.30291962549E+01  0.50399205534E+01  0.59335870508E+01  0.51100000000E-03 0. -1.
        -11    1    3    3    0    0 -0.17306859459E+02  0.40956052789E+01  0.26354187903E+01  0.17979065588E+02  0.51100000000E-03 0.  1.
         12    1    3    3    0    0 -0.15748081015E+02  0.17030683751E+02 -0.13052830783E+02  0.26616210026E+02  0.00000000000E+00 0. -1.
</event>
<event>
 7    1  0.5041278E-013  0.5052880E+02  0.7816164E-02  0.1300439E+00
        -11   -1    0    0    0    0  0.00000000000E+00  0.00000000000E+00  0.45593999997E+02  0.45594000000E+02  0.51100000000E-03 0.  1.
         11   -1    0    0    0    0 -0.00000000000E+00 -0.00000000000E+00 -0.45593999997E+02  0.45594000000E+02  0.51100000000E-03 0. -1.
    9900012    2    1    2    0    0 -0.96635055747E+01 -0.36455925988E+02 -0.15190546079E+02  0.50528799690E+02  0.29999817138E+02 0.  0.
        -12    1    1    2    0    0  0.96635055747E+01  0.36455925988E+02  0.15190546079E+02  0.40659200310E+02  0.00000000000E+00 0.  1.
         11    1    3    3    0    0 -0.94424887591E+01 -0.66964930674E+01 -0.86742616048E+01  0.14465352675E+02  0.51100000000E-03 0. -1.
        -11    1    3    3    0    0  0.17780219578E+01 -0.13017302372E+02 -0.12536647674E+02  0.18159819886E+02  0.51100000000E-03 0.  1.
         12    1    3    3    0    0 -0.19990387735E+01 -0.16742130549E+02  0.60203631993E+01  0.17903627129E+02  0.00000000000E+00 0. -1.
</event>
<event>
 7    1  0.5041278E-013  0.5052887E+02  0.7816164E-02  0.1300439E+00
        -11   -1    0    0    0    0  0.00000000000E+00  0.00000000000E+00  0.45593999997E+02  0.45594000000E+02  0.51100000000E-03 0. -1.
         11   -1    0    0    0    0 -0.00000000000E+00 -0.00000000000E+00 -0.45593999997E+02  0.45594000000E+02  0.51100000000E-03 0.  1.
    9900012    2    1    2    0    0  0.21498568747E+02 -0.12666539005E+02  0.32101950645E+02  0.50528869367E+02  0.30000028929E+02 0.  0.
        -12    1    1    2    0    0 -0.21498568747E+02  0.12666539005E+02 -0.32101950645E+02  0.40659130633E+02  0.00000000000E+00 0.  1.
         11    1    3    3    0    0 -0.43194691677E+01  0.41761501669E+00  0.97441202369E+01  0.10666775316E+02  0.51100000000E-03 0. -1.
        -11    1    3    3    0    0 -0.11048495603E+01 -0.46636432052E+01  0.32584193321E+01  0.57954773144E+01  0.51100000000E-03 0.  1.
         12    1    3    3    0    0  0.26922887475E+02 -0.84205108167E+01  0.19099411077E+02  0.34066616737E+02  0.00000000000E+00 0. -1.
</event>
<event>
 7    1  0.5041278E-013  0.5052886E+02  0.7816164E-02  0.1300439E+00
        -11   -1    0    0    0    0  0.00000000000E+00  0.00000000000E+00  0.45593999997E+02  0.45594000000E+02  0.51100000000E-03 0.  1.
         11   -1    0    0    0    0 -0.00000000000E+00 -0.00000000000E+00 -0.45593999997E+02  0.45594000000E+02  0.51100000000E-03 0. -1.
    9900012    2    1    2    0    0  0.15881954566E+01  0.34226514379E+02 -0.21890389117E+02  0.50528858506E+02  0.29999995914E+02 0.  0.
        -12    1    1    2    0    0 -0.15881954566E+01 -0.34226514379E+02  0.21890389117E+02  0.40659141494E+02  0.00000000000E+00 0.  1.
         11    1    3    3    0    0 -0.54562751456E+00  0.61554311114E+01  0.28136380578E+01  0.67899632498E+01  0.51100000000E-03 0. -1.
        -11    1    3    3    0    0 -0.77937611556E+01  0.23362055452E+01 -0.84136193199E+01  0.11704253911E+02  0.51100000000E-03 0.  1.
        -12    1    3    3    0    0  0.99275841268E+01  0.25734877722E+02 -0.16290407855E+02  0.32034641344E+02  0.00000000000E+00 0.  1.
</event>
<event>
 7    1  0.5041278E-013  0.5052886E+02  0.7816164E-02  0.1300439E+00
        -11   -1    0    0    0    0  0.00000000000E+00  0.00000000000E+00  0.45593999997E+02  0.45594000000E+02  0.51100000000E-03 0.  1.
         11   -1    0    0    0    0 -0.00000000000E+00 -0.00000000000E+00 -0.45593999997E+02  0.45594000000E+02  0.51100000000E-03 0. -1.
    9900012    2    1    2    0    0  0.22943486037E+02 -0.33459312614E+01 -0.33400105482E+02  0.50528857685E+02  0.29999993420E+02 0.  0.
        -12    1    1    2    0    0 -0.22943486037E+02  0.33459312614E+01  0.33400105482E+02  0.40659142315E+02  0.00000000000E+00 0.  1.
         11    1    3    3    0    0  0.12412621844E+02 -0.14731797760E+01 -0.93250598401E+00  0.12534472760E+02  0.51100000000E-03 0. -1.
        -11    1    3    3    0    0 -0.28717167900E+01  0.38498958388E+01 -0.52134670554E+01  0.70886313411E+01  0.51100000000E-03 0.  1.
         12    1    3    3    0    0  0.13402580983E+02 -0.57226473243E+01 -0.27254132443E+02  0.30905753584E+02  0.00000000000E+00 0. -1.
</event>
<event>
 7    1  0.5041278E-013  0.5052886E+02  0.7816164E-02  0.1300439E+00
        -11   -1    0    0    0    0  0.00000000000E+00  0.00000000000E+00  0.45593999997E+02  0.45594000000E+02  0.51100000000E-03 0. -1.
         11   -1    0    0    0    0 -0.00000000000E+00 -0.00000000000E+00 -0.45593999997E+02  0.45594000000E+02  0.51100000000E-03 0.  1.
    9900012    2    1    2    0    0 -0.27764432938E+01 -0.10214077862E+02  0.39257224981E+02  0.50528859119E+02  0.29999997778E+02 0.  0.
        -12    1    1    2    0    0  0.27764432938E+01  0.10214077862E+02 -0.39257224981E+02  0.40659140881E+02  0.00000000000E+00 0.  1.
         11    1    3    3    0    0 -0.49744173970E+00  0.41674546896E+01  0.92126834711E+01  0.10123668499E+02  0.51100000000E-03 0. -1.
        -11    1    3    3    0    0  0.48460044372E+01 -0.42961823049E+01 -0.13975306115E+01  0.66252572383E+01  0.51100000000E-03 0.  1.
        -12    1    3    3    0    0 -0.71250059913E+01 -0.10085350247E+02  0.31442072122E+02  0.33779933382E+02  0.00000000000E+00 0.  1.
</event>
<event>
 7    1  0.5041278E-013  0.5052886E+02  0.7816164E-02  0.1300439E+00
        -11   -1    0    0    0    0  0.00000000000E+00  0.00000000000E+00  0.45593999997E+02  0.45594000000E+02  0.51100000000E-03 0. -1.
         11   -1    0    0    0    0 -0.00000000000E+00 -0.00000000000E+00 -0.45593999997E+02  0.45594000000E+02  0.51100000000E-03 0.  1.
    9900012    2    1    2    0    0 -0.30297951662E+02 -0.64633435499E+00  0.27106863583E+02  0.50528859867E+02  0.30000000053E+02 0.  0.
        -12    1    1    2    0    0  0.30297951662E+02  0.64633435499E+00 -0.27106863583E+02  0.40659140133E+02  0.00000000000E+00 0.  1.
         11    1    3    3    0    0 -0.13440350268E+02  0.35294893443E+01  0.18202468041E+02  0.22900440027E+02  0.51100000000E-03 0. -1.
        -11    1    3    3    0    0 -0.14113998440E+02  0.28044280580E+01  0.12726813213E+02  0.19210454017E+02  0.51100000000E-03 0.  1.
         12    1    3    3    0    0 -0.27436029535E+01 -0.69802517573E+01 -0.38224176713E+01  0.84179658241E+01  0.00000000000E+00 0. -1.
</event>
<event>
 7    1  0.5041278E-013  0.5052886E+02  0.7816164E-02  0.1300439E+00
        -11   -1    0    0    0    0  0.00000000000E+00  0.00000000000E+00  0.45593999997E+02  0.45594000000E+02  0.51100000000E-03 0.  1.
         11   -1    0    0    0    0 -0.00000000000E+00 -0.00000000000E+00 -0.45593999997E+02  0.45594000000E+02  0.51100000000E-03 0. -1.
    9900012    2    1    2    0    0 -0.32355998951E+02  0.19105043258E+02 -0.15532302294E+02  0.50528858831E+02  0.29999996903E+02 0.  0.
        -12    1    1    2    0    0  0.32355998951E+02 -0.19105043258E+02  0.15532302294E+02  0.40659141169E+02  0.00000000000E+00 0.  1.
         11    1    3    3    0    0 -0.29128766685E+01  0.84396455953E+01 -0.29187304959E+01  0.93931600769E+01  0.51100000000E-03 0. -1.
        -11    1    3    3    0    0 -0.14961956545E+02  0.10226512050E+02 -0.18128566280E+02  0.25633700630E+02  0.51100000000E-03 0.  1.
        -12    1    3    3    0    0 -0.14481165737E+02  0.43888561306E+00  0.55149944818E+01  0.15501998124E+02  0.00000000000E+00 0.  1.
</event>
<event>
 7    1  0.5041278E-013  0.5052886E+02  0.7816164E-02  0.1300439E+00
        -11   -1    0    0    0    0  0.00000000000E+00  0.00000000000E+00  0.45593999997E+02  0.45594000000E+02  0.51100000000E-03 0. -1.
         11   -1    0    0    0    0 -0.00000000000E+00 -0.00000000000E+00 -0.45593999997E+02  0.45594000000E+02  0.51100000000E-03 0.  1.
    9900012    2    1    2    0    0  0.31149017940E+02 -0.13073529979E+02  0.22627131603E+02  0.50528860937E+02  0.30000003304E+02 0.  0.
        -12    1    1    2    0    0 -0.31149017940E+02  0.13073529979E+02 -0.22627131603E+02  0.40659139063E+02  0.00000000000E+00 0.  1.
         11    1    3    3    0    0  0.12711066498E+02 -0.56293761718E+01  0.10857628635E+02  0.17639421403E+02  0.51100000000E-03 0. -1.
        -11    1    3    3    0    0  0.71748237776E+01  0.84404386308E+00  0.16592570051E+02  0.18097068477E+02  0.51100000000E-03 0.  1.
        -12    1    3    3    0    0  0.11263127665E+02 -0.82881976702E+01 -0.48230670827E+01  0.14792371057E+02  0.00000000000E+00 0.  1.
</event>
<event>
 7    1  0.5041278E-013  0.5052885E+02  0.7816164E-02  0.1300439E+00
        -11   -1    0    0    0    0  0.00000000000E+00  0.00000000000E+00  0.45593999997E+02  0.45594000000E+02  0.51100000000E-03 0. -1.
         11   -1    0    0    0    0 -0.00000000000E+00 -0.00000000000E+00 -0.45593999997E+02  0.45594000000E+02  0.51100000000E-03 0.  1.
    9900012    2    1    2    0    0  0.39630657227E+02 -0.19487195445E+01 -0.88758272810E+01  0.50528845926E+02  0.29999957675E+02 0.  0.
        -12    1    1    2    0    0 -0.39630657227E+02  0.19487195445E+01  0.88758272810E+01  0.40659154074E+02  0.00000000000E+00 0.  1.
         11    1    3    3    0    0  0.11533214948E+02  0.10843300890E+02  0.13227402201E+01  0.15885271895E+02  0.51100000000E-03 0. -1.
        -11    1    3    3    0    0  0.14043333292E+02 -0.30580344975E+00 -0.22200013106E+01  0.14221010224E+02  0.51100000000E-03 0.  1.
        -12    1    3    3    0    0  0.14054108987E+02 -0.12486216984E+02 -0.79785661905E+01  0.20422563807E+02  0.00000000000E+00 0.  1.
</event>
<event>
 7    1  0.5041278E-013  0.5052885E+02  0.7816164E-02  0.1300439E+00
        -11   -1    0    0    0    0  0.00000000000E+00  0.00000000000E+00  0.45593999997E+02  0.45594000000E+02  0.51100000000E-03 0. -1.
         11   -1    0    0    0    0 -0.00000000000E+00 -0.00000000000E+00 -0.45593999997E+02  0.45594000000E+02  0.51100000000E-03 0.  1.
    9900012    2    1    2    0    0 -0.30626013439E+02  0.49680618908E+01  0.26277970938E+02  0.50528854722E+02  0.29999984414E+02 0.  0.
        -12    1    1    2    0    0  0.30626013439E+02 -0.49680618908E+01 -0.26277970938E+02  0.40659145278E+02  0.00000000000E+00 0.  1.
         11    1    3    3    0    0 -0.24464767903E+02 -0.57131053432E+01  0.14084044095E+02  0.28801471135E+02  0.51100000000E-03 0. -1.
        -11    1    3    3    0    0 -0.63109683484E-01 -0.27434882021E+01  0.40233865030E+01  0.48701488233E+01  0.51100000000E-03 0.  1.
        -12    1    3    3    0    0 -0.60981358522E+01  0.13424655436E+02  0.81705403397E+01  0.16857234764E+02  0.00000000000E+00 0.  1.
</event>
<event>
 7    1  0.5041278E-013  0.5052886E+02  0.7816164E-02  0.1300439E+00
        -11   -1    0    0    0    0  0.00000000000E+00  0.00000000000E+00  0.45593999997E+02  0.45594000000E+02  0.51100000000E-03 0.  1.
         11   -1    0    0    0    0 -0.00000000000E+00 -0.00000000000E+00 -0.45593999997E+02  0.45594000000E+02  0.51100000000E-03 0. -1.
    9900012    2    1    2    0    0 -0.11412818874E+02  0.28899672476E+02 -0.26224456595E+02  0.50528860467E+02  0.30000001875E+02 0.  0.
        -12    1    1    2    0    0  0.11412818874E+02 -0.28899672476E+02  0.26224456595E+02  0.40659139533E+02  0.00000000000E+00 0.  1.
         11    1    3    3    0    0 -0.11553947326E+01  0.16051413378E+02 -0.18791629564E+02  0.24740819516E+02  0.51100000000E-03 0. -1.
        -11    1    3    3    0    0 -0.50876023115E+01  0.16931038729E+02 -0.74902930116E+01  0.19200215087E+02  0.51100000000E-03 0.  1.
         12    1    3    3    0    0 -0.51698218300E+01 -0.40827796308E+01  0.57465980543E-01  0.65878258634E+01  0.00000000000E+00 0. -1.
</event>
<event>
 7    1  0.5041278E-013  0.5052886E+02  0.7816164E-02  0.1300439E+00
        -11   -1    0    0    0    0  0.00000000000E+00  0.00000000000E+00  0.45593999997E+02  0.45594000000E+02  0.51100000000E-03 0. -1.
         11   -1    0    0    0    0 -0.00000000000E+00 -0.00000000000E+00 -0.45593999997E+02  0.45594000000E+02  0.51100000000E-03 0.  1.
    9900012    2    1    2    0    0 -0.18489724001E+02  0.32952075795E+02  0.15015206461E+02  0.50528860586E+02  0.30000002237E+02 0.  0.
        -12    1    1    2    0    0  0.18489724001E+02 -0.32952075795E+02 -0.15015206461E+02  0.40659139414E+02  0.00000000000E+00 0.  1.
         11    1    3    3    0    0 -0.91186900181E+01  0.41767505851E+01  0.12856823849E+02  0.16306246437E+02  0.51100000000E-03 0. -1.
        -11    1    3    3    0    0  0.15385289791E+01  0.66337215637E+01  0.62013470762E+01  0.92103224170E+01  0.51100000000E-03 0.  1.
         12    1    3    3    0    0 -0.10909562962E+02  0.22141603646E+02 -0.40429644645E+01  0.25012291732E+02  0.00000000000E+00 0. -1.
</event>
<event>
 7    1  0.5041278E-013  0.5052883E+02  0.7816164E-02  0.1300439E+00
        -11   -1    0    0    0    0  0.00000000000E+00  0.00000000000E+00  0.45593999997E+02  0.45594000000E+02  0.51100000000E-03 0.  1.
         11   -1    0    0    0    0 -0.00000000000E+00 -0.00000000000E+00 -0.45593999997E+02  0.45594000000E+02  0.51100000000E-03 0. -1.
    9900012    2    1    2    0    0  0.34897470960E+02  0.20784388708E+02 -0.18286460156E+01  0.50528828346E+02  0.29999904239E+02 0.  0.
        -12    1    1    2    0    0 -0.34897470960E+02 -0.20784388708E+02  0.18286460156E+01  0.40659171654E+02  0.00000000000E+00 0.  1.
         11    1    3    3    0    0  0.14345348767E+02  0.26810238526E+01 -0.42409501957E+01  0.15197453042E+02  0.51100000000E-03 0. -1.
        -11    1    3    3    0    0 -0.15785308857E+01 -0.10347433802E+01 -0.48339428097E+01  0.51893599768E+01  0.51100000000E-03 0.  1.
        -12    1    3    3    0    0  0.22130653079E+02  0.19138108235E+02  0.72462469898E+01  0.30142015327E+02  0.00000000000E+00 0.  1.
</event>
<event>
 7    1  0.5041278E-013  0.5052886E+02  0.7816164E-02  0.1300439E+00
        -11   -1    0    0    0    0  0.00000000000E+00  0.00000000000E+00  0.45593999997E+02  0.45594000000E+02  0.51100000000E-03 0.  1.
         11   -1    0    0    0    0 -0.00000000000E+00 -0.00000000000E+00 -0.45593999997E+02  0.45594000000E+02  0.51100000000E-03 0. -1.
    9900012    2    1    2    0    0  0.23797509417E+02  0.14175366484E+02 -0.29764123273E+02  0.50528861992E+02  0.30000006510E+02 0.  0.
        -12    1    1    2    0    0 -0.23797509417E+02 -0.14175366484E+02  0.29764123273E+02  0.40659138008E+02  0.00000000000E+00 0.  1.
         11    1    3    3    0    0  0.32925015922E+01 -0.49657248356E+01 -0.75202955240E+01  0.95944689747E+01  0.51100000000E-03 0. -1.
        -11    1    3    3    0    0 -0.18984060283E+01  0.96362325601E+01 -0.44260634647E+01  0.10772695181E+02  0.51100000000E-03 0.  1.
        -12    1    3    3    0    0  0.22403413853E+02  0.95048587591E+01 -0.17817764284E+02  0.30161697836E+02  0.00000000000E+00 0.  1.
</event>
<event>
 7    1  0.5481170E-013  0.5052885E+02  0.7816164E-02  0.1300439E+00
        -11   -1    0    0    0    0  0.00000000000E+00  0.00000000000E+00  0.45593999997E+02  0.45594000000E+02  0.51100000000E-03 0.  1.
         11   -1    0    0    0    0 -0.00000000000E+00 -0.00000000000E+00 -0.45593999997E+02  0.45594000000E+02  0.51100000000E-03 0. -1.
    9900012    2    1    2    0    0 -0.16315248755E+02  0.22175142022E+02 -0.29920594060E+02  0.50528853248E+02  0.29999979933E+02 0.  0.
        -12    1    1    2    0    0  0.16315248755E+02 -0.22175142022E+02  0.29920594060E+02  0.40659146752E+02  0.00000000000E+00 0.  1.
         11    1    3    3    0    0 -0.14441521584E+02  0.15003090717E+02 -0.96700651841E+01  0.22959974687E+02  0.51100000000E-03 0. -1.
        -11    1    3    3    0    0 -0.38020039022E+01  0.36234200915E+00  0.19352535949E+01  0.42815572099E+01  0.51100000000E-03 0.  1.
         12    1    3    3    0    0  0.19282767306E+01  0.68097092961E+01 -0.22185782471E+02  0.23287321351E+02  0.00000000000E+00 0. -1.
</event>
<event>
 7    1  0.5041278E-013  0.5052886E+02  0.7816164E-02  0.1300439E+00
        -11   -1    0    0    0    0  0.00000000000E+00  0.00000000000E+00  0.45593999997E+02  0.45594000000E+02  0.51100000000E-03 0. -1.
         11   -1    0    0    0    0 -0.00000000000E+00 -0.00000000000E+00 -0.45593999997E+02  0.45594000000E+02  0.51100000000E-03 0.  1.
    9900012    2    1    2    0    0 -0.32469216451E+02  0.18882248735E+02  0.15568449282E+02  0.50528856535E+02  0.29999989923E+02 0.  0.
        -12    1    1    2    0    0  0.32469216451E+02 -0.18882248735E+02 -0.15568449282E+02  0.40659143465E+02  0.00000000000E+00 0.  1.
         11    1    3    3    0    0  0.25214320426E+01  0.43318057240E+01  0.33717191632E+01  0.60407491880E+01  0.51100000000E-03 0. -1.
        -11    1    3    3    0    0 -0.12619941258E+02  0.14852855662E+02  0.11173096366E+01  0.19522259597E+02  0.51100000000E-03 0.  1.
         12    1    3    3    0    0 -0.22370707236E+02 -0.30241265096E+00  0.11079420482E+02  0.24965847750E+02  0.00000000000E+00 0. -1.
</event>
<event>
 7    1  0.5041278E-013  0.5052886E+02  0.7816164E-02  0.1300439E+00
        -11   -1    0    0    0    0  0.00000000000E+00  0.00000000000E+00  0.45593999997E+02  0.45594000000E+02  0.51100000000E-03 0.  1.
         11   -1    0    0    0    0 -0.00000000000E+00 -0.00000000000E+00 -0.45593999997E+02  0.45594000000E+02  0.51100000000E-03 0. -1.
    9900012    2    1    2    0    0 -0.17795507862E+02  0.13159849123E+02 -0.34107247518E+02  0.50528855121E+02  0.29999985627E+02 0.  0.
        -12    1    1    2    0    0  0.17795507862E+02 -0.13159849123E+02  0.34107247518E+02  0.40659144879E+02  0.00000000000E+00 0.  1.
         11    1    3    3    0    0  0.12001527217E+01  0.69995863533E+01 -0.11557519417E+02  0.13565059197E+02  0.51100000000E-03 0. -1.
        -11    1    3    3    0    0 -0.17333055032E+02  0.88210525369E+01 -0.25889950809E+02  0.32381095067E+02  0.51100000000E-03 0.  1.
        -12    1    3    3    0    0 -0.16626055516E+01 -0.26607897673E+01  0.33402227082E+01  0.45827008572E+01  0.00000000000E+00 0.  1.
</event>
<event>
 7    1  0.5041278E-013  0.5052888E+02  0.7816164E-02  0.1300439E+00
        -11   -1    0    0    0    0  0.00000000000E+00  0.00000000000E+00  0.45593999997E+02  0.45594000000E+02  0.51100000000E-03 0.  1.
         11   -1    0    0    0    0 -0.00000000000E+00 -0.00000000000E+00 -0.45593999997E+02  0.45594000000E+02  0.51100000000E-03 0. -1.
    9900012    2    1    2    0    0 -0.55688930317E+01 -0.40916176887E+00 -0.40273858378E+02  0.50528884766E+02  0.30000075735E+02 0.  0.
        -12    1    1    2    0    0  0.55688930317E+01  0.40916176887E+00  0.40273858378E+02  0.40659115234E+02  0.00000000000E+00 0.  1.
         11    1    3    3    0    0 -0.29099003802E+01  0.77170261518E+01 -0.18331216605E+02  0.20101082442E+02  0.51100000000E-03 0. -1.
        -11    1    3    3    0    0  0.57700920136E+01 -0.11556775160E+01 -0.17773362917E+02  0.18722232293E+02  0.51100000000E-03 0.  1.
        -12    1    3    3    0    0 -0.84290846652E+01 -0.69705104046E+01 -0.41692788556E+01  0.11705570032E+02  0.00000000000E+00 0.  1.
</event>
<event>
 7    1  0.5041278E-013  0.5052887E+02  0.7816164E-02  0.1300439E+00
        -11   -1    0    0    0    0  0.00000000000E+00  0.00000000000E+00  0.45593999997E+02  0.45594000000E+02  0.51100000000E-03 0. -1.
         11   -1    0    0    0    0 -0.00000000000E+00 -0.00000000000E+00 -0.45593999997E+02  0.45594000000E+02  0.51100000000E-03 0.  1.
    9900012    2    1    2    0    0  0.89202821512E+01  0.24882853315E+02  0.30893969455E+02  0.50528866076E+02  0.30000018924E+02 0.  0.
        -12    1    1    2    0    0 -0.89202821512E+01 -0.24882853315E+02 -0.30893969455E+02  0.40659133924E+02  0.00000000000E+00 0.  1.
         11    1    3    3    0    0 -0.93311684466E+00  0.30707670966E+00 -0.18173821938E+01  0.20658851495E+01  0.51100000000E-03 0.  1.
        -11    1    3    3    0    0  0.75213975247E+01 -0.20448356999E+01  0.13367334531E+02  0.15473797417E+02  0.51100000000E-03 0. -1.
        -12    1    3    3    0    0  0.23320014712E+01  0.26620612305E+02  0.19344017118E+02  0.32989183510E+02  0.00000000000E+00 0.  1.
</event>
<event>
 7    1  0.5041278E-013  0.5052885E+02  0.7816164E-02  0.1300439E+00
        -11   -1    0    0    0    0  0.00000000000E+00  0.00000000000E+00  0.45593999997E+02  0.45594000000E+02  0.51100000000E-03 0. -1.
         11   -1    0    0    0    0 -0.00000000000E+00 -0.00000000000E+00 -0.45593999997E+02  0.45594000000E+02  0.51100000000E-03 0.  1.
    9900012    2    1    2    0    0  0.12767124939E+02 -0.30011662396E+02  0.24278945423E+02  0.50528849126E+02  0.29999967403E+02 0.  0.
        -12    1    1    2    0    0 -0.12767124939E+02  0.30011662396E+02 -0.24278945423E+02  0.40659150874E+02  0.00000000000E+00 0.  1.
         11    1    3    3    0    0  0.69607250301E+01 -0.11906965348E+02  0.36062057258E+01  0.14255954431E+02  0.51100000000E-03 0. -1.
        -11    1    3    3    0    0  0.10268421667E+02 -0.73762949347E+01  0.97585360954E-01  0.12643564911E+02  0.51100000000E-03 0.  1.
         12    1    3    3    0    0 -0.44620217584E+01 -0.10728402113E+02  0.20575154336E+02  0.23629329784E+02  0.00000000000E+00 0. -1.
</event>
<event>
 7    1  0.5041278E-013  0.5052882E+02  0.7816164E-02  0.1300439E+00
        -11   -1    0    0    0    0  0.00000000000E+00  0.00000000000E+00  0.45593999997E+02  0.45594000000E+02  0.51100000000E-03 0. -1.
         11   -1    0    0    0    0 -0.00000000000E+00 -0.00000000000E+00 -0.45593999997E+02  0.45594000000E+02  0.51100000000E-03 0.  1.
    9900012    2    1    2    0    0 -0.21887735817E+02  0.34202536182E+02  0.20694281773E+01  0.50528819075E+02  0.29999876062E+02 0.  0.
        -12    1    1    2    0    0  0.21887735817E+02 -0.34202536182E+02 -0.20694281773E+01  0.40659180925E+02  0.00000000000E+00 0.  1.
         11    1    3    3    0    0 -0.19969456461E+02  0.13928762463E+02 -0.51785012746E+01  0.24891896087E+02  0.51100000000E-03 0. -1.
        -11    1    3    3    0    0  0.22526145057E+00  0.70637496633E+01 -0.40301165200E+01  0.81356709282E+01  0.51100000000E-03 0.  1.
         12    1    3    3    0    0 -0.21435408071E+01  0.13210024056E+02  0.11278045972E+02  0.17501252061E+02  0.00000000000E+00 0. -1.
</event>
<event>
 7    1  0.5041278E-013  0.5052886E+02  0.7816164E-02  0.1300439E+00
        -11   -1    0    0    0    0  0.00000000000E+00  0.00000000000E+00  0.45593999997E+02  0.45594000000E+02  0.51100000000E-03 0. -1.
         11   -1    0    0    0    0 -0.00000000000E+00 -0.00000000000E+00 -0.45593999997E+02  0.45594000000E+02  0.51100000000E-03 0.  1.
    9900012    2    1    2    0    0 -0.33402238016E+02 -0.19811244223E+02  0.12040373075E+02  0.50528862209E+02  0.30000007170E+02 0.  0.
        -12    1    1    2    0    0  0.33402238016E+02  0.19811244223E+02 -0.12040373075E+02  0.40659137791E+02  0.00000000000E+00 0.  1.
         11    1    3    3    0    0 -0.29931572901E+01  0.43483499495E+01 -0.39635517934E+01  0.66012787342E+01  0.51100000000E-03 0. -1.
        -11    1    3    3    0    0 -0.11174615671E+02 -0.16864197767E+01  0.37172263265E+01  0.11896798682E+02  0.51100000000E-03 0.  1.
         12    1    3    3    0    0 -0.19234465054E+02 -0.22473174396E+02  0.12286698542E+02  0.32030784792E+02  0.00000000000E+00 0. -1.
</event>
<event>
 7    1  0.5041278E-013  0.5052886E+02  0.7816164E-02  0.1300439E+00
        -11   -1    0    0    0    0  0.00000000000E+00  0.00000000000E+00  0.45593999997E+02  0.45594000000E+02  0.51100000000E-03 0.  1.
         11   -1    0    0    0    0 -0.00000000000E+00 -0.00000000000E+00 -0.45593999997E+02  0.45594000000E+02  0.51100000000E-03 0. -1.
    9900012    2    1    2    0    0  0.31534031482E+02 -0.22100270020E+02 -0.13051779040E+02  0.50528855733E+02  0.29999987486E+02 0.  0.
        -12    1    1    2    0    0 -0.31534031482E+02  0.22100270020E+02  0.13051779040E+02  0.40659144267E+02  0.00000000000E+00 0.  1.
         11    1    3    3    0    0  0.13778187482E+02 -0.13067261026E+02 -0.60809431853E+01  0.19939148209E+02  0.51100000000E-03 0. -1.
        -11    1    3    3    0    0  0.19005729838E+02 -0.81527272290E+01  0.26486849921E+01  0.20849466669E+02  0.51100000000E-03 0.  1.
         12    1    3    3    0    0 -0.12498858386E+01 -0.88028176465E+00 -0.96195208464E+01  0.97402408547E+01  0.00000000000E+00 0. -1.
</event>
<event>
 7    1  0.5041278E-013  0.5052887E+02  0.7816164E-02  0.1300439E+00
        -11   -1    0    0    0    0  0.00000000000E+00  0.00000000000E+00  0.45593999997E+02  0.45594000000E+02  0.51100000000E-03 0.  1.
         11   -1    0    0    0    0 -0.00000000000E+00 -0.00000000000E+00 -0.45593999997E+02  0.45594000000E+02  0.51100000000E-03 0. -1.
    9900012    2    1    2    0    0  0.15762319981E+02  0.12921275769E+02 -0.35181735035E+02  0.50528873365E+02  0.30000041080E+02 0.  0.
        -12    1    1    2    0    0 -0.15762319981E+02 -0.12921275769E+02  0.35181735035E+02  0.40659126635E+02  0.00000000000E+00 0.  1.
         11    1    3    3    0    0  0.78587259118E+01  0.88545829702E+01 -0.86743156291E+01  0.14676749110E+02  0.51100000000E-03 0. -1.
        -11    1    3    3    0    0  0.92113059922E+01  0.11340836658E+02 -0.98271750715E+01  0.17607842126E+02  0.51100000000E-03 0.  1.
        -12    1    3    3    0    0 -0.13077119234E+01 -0.72741438595E+01 -0.16680244334E+02  0.18244282129E+02  0.00000000000E+00 0.  1.
</event>
<event>
 7    1  0.5041278E-013  0.5052885E+02  0.7816164E-02  0.1300439E+00
        -11   -1    0    0    0    0  0.00000000000E+00  0.00000000000E+00  0.45593999997E+02  0.45594000000E+02  0.51100000000E-03 0. -1.
         11   -1    0    0    0    0 -0.00000000000E+00 -0.00000000000E+00 -0.45593999997E+02  0.45594000000E+02  0.51100000000E-03 0.  1.
    9900012    2    1    2    0    0  0.60047560810E+01  0.39447888025E+02  0.78085700746E+01  0.50528846887E+02  0.29999960599E+02 0.  0.
        -12    1    1    2    0    0 -0.60047560810E+01 -0.39447888025E+02 -0.78085700746E+01  0.40659153113E+02  0.00000000000E+00 0.  1.
         11    1    3    3    0    0 -0.11646840829E+01  0.91835962418E+01 -0.40360872097E+01  0.10098758794E+02  0.51100000000E-03 0. -1.
        -11    1    3    3    0    0 -0.16899574408E+01 -0.31234610100E+01 -0.80886481716E+00  0.36422832655E+01  0.51100000000E-03 0.  1.
        -12    1    3    3    0    0  0.88593976047E+01  0.33387752793E+02  0.12653522102E+02  0.36787804828E+02  0.00000000000E+00 0.  1.
</event>
<event>
 7    1  0.5041278E-013  0.5052885E+02  0.7816164E-02  0.1300439E+00
        -11   -1    0    0    0    0  0.00000000000E+00  0.00000000000E+00  0.45593999997E+02  0.45594000000E+02  0.51100000000E-03 0.  1.
         11   -1    0    0    0    0 -0.00000000000E+00 -0.00000000000E+00 -0.45593999997E+02  0.45594000000E+02  0.51100000000E-03 0. -1.
    9900012    2    1    2    0    0  0.14872146188E+02  0.37765343112E+02 -0.24009129323E+01  0.50528852745E+02  0.29999978404E+02 0.  0.
        -12    1    1    2    0    0 -0.14872146188E+02 -0.37765343112E+02  0.24009129323E+01  0.40659147255E+02  0.00000000000E+00 0.  1.
         11    1    3    3    0    0  0.80853609676E+01  0.56291499633E+01 -0.11971166669E+01  0.99243881354E+01  0.51100000000E-03 0. -1.
        -11    1    3    3    0    0  0.11807325026E+02  0.31382540307E+02 -0.54695864066E+01  0.33973418081E+02  0.51100000000E-03 0.  1.
        -12    1    3    3    0    0 -0.50205398054E+01  0.75365284169E+00  0.42657901411E+01  0.66310465291E+01  0.00000000000E+00 0.  1.
</event>
<event>
 7    1  0.5041278E-013  0.5052888E+02  0.7816164E-02  0.1300439E+00
        -11   -1    0    0    0    0  0.00000000000E+00  0.00000000000E+00  0.45593999997E+02  0.45594000000E+02  0.51100000000E-03 0.  1.
         11   -1    0    0    0    0 -0.00000000000E+00 -0.00000000000E+00 -0.45593999997E+02  0.45594000000E+02  0.51100000000E-03 0. -1.
    9900012    2    1    2    0    0  0.70495797663E+01  0.30833648658E+01 -0.39924433190E+02  0.50528879507E+02  0.30000059748E+02 0.  0.
        -12    1    1    2    0    0 -0.70495797663E+01 -0.30833648658E+01  0.39924433190E+02  0.40659120493E+02  0.00000000000E+00 0.  1.
         11    1    3    3    0    0  0.11203666479E+01  0.46028341161E+01 -0.13344155628E+02  0.14160077436E+02  0.51100000000E-03 0. -1.
        -11    1    3    3    0    0 -0.77095337669E+01 -0.53022358376E+01 -0.51330550664E+01  0.10672341372E+02  0.51100000000E-03 0.  1.
         12    1    3    3    0    0  0.13638746885E+02  0.37827665873E+01 -0.21447222496E+02  0.25696460699E+02  0.00000000000E+00 0. -1.
</event>
<event>
 7    1  0.5041278E-013  0.5052886E+02  0.7816164E-02  0.1300439E+00
        -11   -1    0    0    0    0  0.00000000000E+00  0.00000000000E+00  0.45593999997E+02  0.45594000000E+02  0.51100000000E-03 0.  1.
         11   -1    0    0    0    0 -0.00000000000E+00 -0.00000000000E+00 -0.45593999997E+02  0.45594000000E+02  0.51100000000E-03 0. -1.
    9900012    2    1    2    0    0 -0.69262337589E+01 -0.15776667969E+02 -0.36827838892E+02  0.50528859776E+02  0.29999999776E+02 0.  0.
        -12    1    1    2    0    0  0.69262337589E+01  0.15776667969E+02  0.36827838892E+02  0.40659140224E+02  0.00000000000E+00 0.  1.
         11    1    3    3    0    0 -0.46309021147E+01  0.29933085694E+01 -0.20960091751E+01  0.58990173174E+01  0.51100000000E-03 0. -1.
        -11    1    3    3    0    0  0.44363665680E+01 -0.51619311999E+01 -0.89738322119E-01  0.68069769550E+01  0.51100000000E-03 0.  1.
         12    1    3    3    0    0 -0.67316982122E+01 -0.13608045339E+02 -0.34642091394E+02  0.37822865504E+02  0.00000000000E+00 0. -1.
</event>
<event>
 7    1  0.5041278E-013  0.5052886E+02  0.7816164E-02  0.1300439E+00
        -11   -1    0    0    0    0  0.00000000000E+00  0.00000000000E+00  0.45593999997E+02  0.45594000000E+02  0.51100000000E-03 0. -1.
         11   -1    0    0    0    0 -0.00000000000E+00 -0.00000000000E+00 -0.45593999997E+02  0.45594000000E+02  0.51100000000E-03 0.  1.
    9900012    2    1    2    0    0 -0.36269560368E+02 -0.12994473316E+02 -0.12993391674E+02  0.50528861135E+02  0.30000003906E+02 0.  0.
        -12    1    1    2    0    0  0.36269560368E+02  0.12994473316E+02  0.12993391674E+02  0.40659138865E+02  0.00000000000E+00 0.  1.
         11    1    3    3    0    0 -0.22847619446E+01 -0.49900249991E+00  0.26776119676E+01  0.35551015103E+01  0.51100000000E-03 0. -1.
        -11    1    3    3    0    0 -0.23953230178E+01  0.16278563796E+01 -0.11805541650E+02  0.12155587302E+02  0.51100000000E-03 0.  1.
         12    1    3    3    0    0 -0.31589475406E+02 -0.14123327195E+02 -0.38654619920E+01  0.34818172322E+02  0.00000000000E+00 0. -1.
</event>
<event>
 7    1  0.5041278E-013  0.5052886E+02  0.7816164E-02  0.1300439E+00
        -11   -1    0    0    0    0  0.00000000000E+00  0.00000000000E+00  0.45593999997E+02  0.45594000000E+02  0.51100000000E-03 0. -1.
         11   -1    0    0    0    0 -0.00000000000E+00 -0.00000000000E+00 -0.45593999997E+02  0.45594000000E+02  0.51100000000E-03 0.  1.
    9900012    2    1    2    0    0 -0.39561531897E+02  0.85697351678E+01  0.38223426155E+01  0.50528862405E+02  0.30000007766E+02 0.  0.
        -12    1    1    2    0    0  0.39561531897E+02 -0.85697351678E+01 -0.38223426155E+01  0.40659137595E+02  0.00000000000E+00 0.  1.
         11    1    3    3    0    0 -0.26972006874E+01  0.10553824211E+02 -0.36528537011E+01  0.11489187850E+02  0.51100000000E-03 0.  1.
        -11    1    3    3    0    0 -0.19024922679E+02  0.26648025962E+00  0.88941417885E+01  0.21002962960E+02  0.51100000000E-03 0. -1.
        -12    1    3    3    0    0 -0.17839408531E+02 -0.22505693033E+01 -0.14189454719E+01  0.18036711595E+02  0.00000000000E+00 0.  1.
</event>
<event>
 7    1  0.5041278E-013  0.5052886E+02  0.7816164E-02  0.1300439E+00
        -11   -1    0    0    0    0  0.00000000000E+00  0.00000000000E+00  0.45593999997E+02  0.45594000000E+02  0.51100000000E-03 0.  1.
         11   -1    0    0    0    0 -0.00000000000E+00 -0.00000000000E+00 -0.45593999997E+02  0.45594000000E+02  0.51100000000E-03 0. -1.
    9900012    2    1    2    0    0  0.14881306172E+02 -0.17610335124E+01 -0.37796970308E+02  0.50528862320E+02  0.30000007509E+02 0.  0.
        -12    1    1    2    0    0 -0.14881306172E+02  0.17610335124E+01  0.37796970308E+02  0.40659137680E+02  0.00000000000E+00 0.  1.
         11    1    3    3    0    0  0.23145169963E+00 -0.17596412082E+01  0.22762260547E+01  0.28863666406E+01  0.51100000000E-03 0. -1.
        -11    1    3    3    0    0  0.53609109254E+01 -0.25384193871E+01  0.49030026089E+00  0.59517504603E+01  0.51100000000E-03 0.  1.
         12    1    3    3    0    0  0.92889435474E+01  0.25370270829E+01 -0.40563496623E+02  0.41690745219E+02  0.00000000000E+00 0. -1.
</event>
<event>
 7    1  0.5041278E-013  0.5052888E+02  0.7816164E-02  0.1300439E+00
        -11   -1    0    0    0    0  0.00000000000E+00  0.00000000000E+00  0.45593999997E+02  0.45594000000E+02  0.51100000000E-03 0. -1.
         11   -1    0    0    0    0 -0.00000000000E+00 -0.00000000000E+00 -0.45593999997E+02  0.45594000000E+02  0.51100000000E-03 0.  1.
    9900012    2    1    2    0    0  0.39447909384E+02 -0.54557506188E+00 -0.98350646209E+01  0.50528884134E+02  0.30000073813E+02 0.  0.
        -12    1    1    2    0    0 -0.39447909384E+02  0.54557506188E+00  0.98350646209E+01  0.40659115866E+02  0.00000000000E+00 0.  1.
         11    1    3    3    0    0  0.63109519773E+01  0.34028359671E+01  0.34985071728E+00  0.71784262387E+01  0.51100000000E-03 0. -1.
        -11    1    3    3    0    0 -0.22061298757E+01  0.21144618131E+01 -0.66485283289E+01  0.73171638624E+01  0.51100000000E-03 0.  1.
        -12    1    3    3    0    0  0.35343087283E+02 -0.60628728420E+01 -0.35363870093E+01  0.36033294033E+02  0.00000000000E+00 0.  1.
</event>
<event>
 7    1  0.5041278E-013  0.5052887E+02  0.7816164E-02  0.1300439E+00
        -11   -1    0    0    0    0  0.00000000000E+00  0.00000000000E+00  0.45593999997E+02  0.45594000000E+02  0.51100000000E-03 0.  1.
         11   -1    0    0    0    0 -0.00000000000E+00 -0.00000000000E+00 -0.45593999997E+02  0.45594000000E+02  0.51100000000E-03 0. -1.
    9900012    2    1    2    0    0  0.18726540460E+02 -0.38170692611E+01 -0.35887486274E+02  0.50528868105E+02  0.30000025092E+02 0.  0.
        -12    1    1    2    0    0 -0.18726540460E+02  0.38170692611E+01  0.35887486274E+02  0.40659131895E+02  0.00000000000E+00 0.  1.
         11    1    3    3    0    0  0.11296345701E+02  0.88566019798E+01 -0.14557752115E+02  0.20444436205E+02  0.51100000000E-03 0. -1.
        -11    1    3    3    0    0  0.72164617471E+01  0.21635652178E+00 -0.33463818015E+01  0.79575374152E+01  0.51100000000E-03 0.  1.
        -12    1    3    3    0    0  0.21373301175E+00 -0.12890027763E+02 -0.17983352358E+02  0.22126894485E+02  0.00000000000E+00 0.  1.
</event>
<event>
 7    1  0.5041278E-013  0.5052888E+02  0.7816164E-02  0.1300439E+00
        -11   -1    0    0    0    0  0.00000000000E+00  0.00000000000E+00  0.45593999997E+02  0.45594000000E+02  0.51100000000E-03 0.  1.
         11   -1    0    0    0    0 -0.00000000000E+00 -0.00000000000E+00 -0.45593999997E+02  0.45594000000E+02  0.51100000000E-03 0. -1.
    9900012    2    1    2    0    0 -0.13161051482E+02  0.23047818375E+02 -0.30801772820E+02  0.50528875356E+02  0.30000047132E+02 0.  0.
        -12    1    1    2    0    0  0.13161051482E+02 -0.23047818375E+02  0.30801772820E+02  0.40659124644E+02  0.00000000000E+00 0.  1.
         11    1    3    3    0    0 -0.10323698502E+02  0.22500733762E+02 -0.18708524806E+02  0.31030157448E+02  0.51100000000E-03 0. -1.
        -11    1    3    3    0    0  0.34028802961E+01  0.33319958419E+01 -0.11725007432E+02  0.12655338405E+02  0.51100000000E-03 0.  1.
        -12    1    3    3    0    0 -0.62402332760E+01 -0.27849112293E+01 -0.36824058254E+00  0.68433795029E+01  0.00000000000E+00 0.  1.
</event>
<event>
 7    1  0.5041278E-013  0.5052886E+02  0.7816164E-02  0.1300439E+00
        -11   -1    0    0    0    0  0.00000000000E+00  0.00000000000E+00  0.45593999997E+02  0.45594000000E+02  0.51100000000E-03 0.  1.
         11   -1    0    0    0    0 -0.00000000000E+00 -0.00000000000E+00 -0.45593999997E+02  0.45594000000E+02  0.51100000000E-03 0. -1.
    9900012    2    1    2    0    0  0.87887186371E+01  0.38246766676E+02  0.10635257333E+02  0.50528862835E+02  0.30000009074E+02 0.  0.
        -12    1    1    2    0    0 -0.87887186371E+01 -0.38246766676E+02 -0.10635257333E+02  0.40659137165E+02  0.00000000000E+00 0.  1.
         11    1    3    3    0    0 -0.32817478760E+01 -0.90381263424E+00  0.14990215204E+01  0.37193833063E+01  0.51100000000E-03 0. -1.
        -11    1    3    3    0    0 -0.32413684633E+01  0.19142480651E+02  0.94944547970E+01  0.21612165720E+02  0.51100000000E-03 0.  1.
        -12    1    3    3    0    0  0.15311834976E+02  0.20008098660E+02 -0.35821898479E+00  0.25197313809E+02  0.00000000000E+00 0.  1.
</event>
<event>
 7    1  0.5041278E-013  0.5052900E+02  0.7816164E-02  0.1300438E+00
        -11   -1    0    0    0    0  0.00000000000E+00  0.00000000000E+00  0.45593999997E+02  0.45594000000E+02  0.51100000000E-03 0.  1.
         11   -1    0    0    0    0 -0.00000000000E+00 -0.00000000000E+00 -0.45593999997E+02  0.45594000000E+02  0.51100000000E-03 0. -1.
    9900012    2    1    2    0    0  0.36232074720E+02 -0.32836437800E+01 -0.18155132422E+02  0.50528998681E+02  0.30000421989E+02 0.  0.
        -12    1    1    2    0    0 -0.36232074720E+02  0.32836437800E+01  0.18155132422E+02  0.40659001319E+02  0.00000000000E+00 0.  1.
         11    1    3    3    0    0  0.14540912538E+02 -0.36460865883E+01 -0.50106038565E+01  0.15806272050E+02  0.51100000000E-03 0. -1.
        -11    1    3    3    0    0  0.12555269969E+02  0.85244701348E+01  0.19299589743E+01  0.15297912831E+02  0.51100000000E-03 0.  1.
        -12    1    3    3    0    0  0.91358922131E+01 -0.81620273265E+01 -0.15074487540E+02  0.19424813801E+02  0.00000000000E+00 0.  1.
</event>
<event>
 7    1  0.5041278E-013  0.5052887E+02  0.7816164E-02  0.1300439E+00
        -11   -1    0    0    0    0  0.00000000000E+00  0.00000000000E+00  0.45593999997E+02  0.45594000000E+02  0.51100000000E-03 0.  1.
         11   -1    0    0    0    0 -0.00000000000E+00 -0.00000000000E+00 -0.45593999997E+02  0.45594000000E+02  0.51100000000E-03 0. -1.
    9900012    2    1    2    0    0  0.38585708775E+02  0.12757626574E+02 -0.12454070401E+01  0.50528868231E+02  0.30000025475E+02 0.  0.
        -12    1    1    2    0    0 -0.38585708775E+02 -0.12757626574E+02  0.12454070401E+01  0.40659131769E+02  0.00000000000E+00 0.  1.
         11    1    3    3    0    0  0.21888978309E+02  0.12430933566E+02 -0.12519747976E+01  0.25203629142E+02  0.51100000000E-03 0. -1.
        -11    1    3    3    0    0  0.11812647413E+02 -0.63668049647E+01  0.63924965709E+01  0.14864012145E+02  0.51100000000E-03 0.  1.
         12    1    3    3    0    0  0.48840830527E+01  0.66934979728E+01 -0.63859288134E+01  0.10461226945E+02  0.00000000000E+00 0. -1.
</event>
<event>
 7    1  0.5041278E-013  0.5052886E+02  0.7816164E-02  0.1300439E+00
        -11   -1    0    0    0    0  0.00000000000E+00  0.00000000000E+00  0.45593999997E+02  0.45594000000E+02  0.51100000000E-03 0.  1.
         11   -1    0    0    0    0 -0.00000000000E+00 -0.00000000000E+00 -0.45593999997E+02  0.45594000000E+02  0.51100000000E-03 0. -1.
    9900012    2    1    2    0    0  0.39361258721E+02  0.58902727244E+01 -0.83163486736E+01  0.50528860116E+02  0.30000000808E+02 0.  0.
        -12    1    1    2    0    0 -0.39361258721E+02 -0.58902727244E+01  0.83163486736E+01  0.40659139884E+02  0.00000000000E+00 0.  1.
         11    1    3    3    0    0  0.13460880177E+02 -0.19138464666E+01 -0.82777226905E+01  0.15917876637E+02  0.51100000000E-03 0. -1.
        -11    1    3    3    0    0  0.43629760083E+01  0.44581444997E+01 -0.90784442639E+01  0.11014933615E+02  0.51100000000E-03 0.  1.
        -12    1    3    3    0    0  0.21537402536E+02  0.33459746913E+01  0.90398182808E+01  0.23596049864E+02  0.00000000000E+00 0.  1.
</event>
<event>
 7    1  0.5041278E-013  0.5052886E+02  0.7816164E-02  0.1300439E+00
        -11   -1    0    0    0    0  0.00000000000E+00  0.00000000000E+00  0.45593999997E+02  0.45594000000E+02  0.51100000000E-03 0.  1.
         11   -1    0    0    0    0 -0.00000000000E+00 -0.00000000000E+00 -0.45593999997E+02  0.45594000000E+02  0.51100000000E-03 0. -1.
    9900012    2    1    2    0    0  0.90711185688E+01 -0.36755136113E+02 -0.14830387268E+02  0.50528860692E+02  0.30000002560E+02 0.  0.
        -12    1    1    2    0    0 -0.90711185688E+01  0.36755136113E+02  0.14830387268E+02  0.40659139308E+02  0.00000000000E+00 0.  1.
         11    1    3    3    0    0 -0.30225679174E+00 -0.17188939365E+02 -0.18605959115E+02  0.25332443832E+02  0.51100000000E-03 0. -1.
        -11    1    3    3    0    0 -0.23689868220E+01 -0.35707874867E+00  0.46526859720E+00  0.24405079234E+01  0.51100000000E-03 0.  1.
        -12    1    3    3    0    0  0.11742362183E+02 -0.19209117999E+02  0.33103032498E+01  0.22755908937E+02  0.00000000000E+00 0.  1.
</event>
<event>
 7    1  0.5041278E-013  0.5052887E+02  0.7816164E-02  0.1300439E+00
        -11   -1    0    0    0    0  0.00000000000E+00  0.00000000000E+00  0.45593999997E+02  0.45594000000E+02  0.51100000000E-03 0.  1.
         11   -1    0    0    0    0 -0.00000000000E+00 -0.00000000000E+00 -0.45593999997E+02  0.45594000000E+02  0.51100000000E-03 0. -1.
    9900012    2    1    2    0    0  0.26995091496E+02  0.36437793662E+01 -0.30185305889E+02  0.50528870833E+02  0.30000033384E+02 0.  0.
        -12    1    1    2    0    0 -0.26995091496E+02 -0.36437793662E+01  0.30185305889E+02  0.40659129167E+02  0.00000000000E+00 0.  1.
         11    1    3    3    0    0  0.24160438440E+02  0.33099321628E+01 -0.19070287660E+02  0.30957362747E+02  0.51100000000E-03 0. -1.
        -11    1    3    3    0    0  0.90840885371E+01  0.66351078181E+00 -0.93860330582E+01  0.13078934511E+02  0.51100000000E-03 0.  1.
        -12    1    3    3    0    0 -0.62494354811E+01 -0.32966357836E+00 -0.17289851713E+01  0.64925735752E+01  0.00000000000E+00 0.  1.
</event>
<event>
 7    1  0.5041278E-013  0.5052883E+02  0.7816164E-02  0.1300439E+00
        -11   -1    0    0    0    0  0.00000000000E+00  0.00000000000E+00  0.45593999997E+02  0.45594000000E+02  0.51100000000E-03 0. -1.
         11   -1    0    0    0    0 -0.00000000000E+00 -0.00000000000E+00 -0.45593999997E+02  0.45594000000E+02  0.51100000000E-03 0.  1.
    9900012    2    1    2    0    0 -0.39737166645E+02  0.15988845385E+01  0.84598545316E+01  0.50528831496E+02  0.29999913814E+02 0.  0.
        -12    1    1    2    0    0  0.39737166645E+02 -0.15988845385E+01 -0.84598545316E+01  0.40659168504E+02  0.00000000000E+00 0.  1.
         11    1    3    3    0    0 -0.61670313138E+01  0.39741117128E+01 -0.10214708346E+01  0.74073775425E+01  0.51100000000E-03 0. -1.
        -11    1    3    3    0    0 -0.23955649512E+02 -0.56665932224E+00  0.18142166545E+02  0.30055489574E+02  0.51100000000E-03 0.  1.
         12    1    3    3    0    0 -0.96144858192E+01 -0.18085678520E+01 -0.86608411784E+01  0.13065964379E+02  0.00000000000E+00 0. -1.
</event>
<event>
 7    1  0.5041278E-013  0.5052877E+02  0.7816164E-02  0.1300439E+00
        -11   -1    0    0    0    0  0.00000000000E+00  0.00000000000E+00  0.45593999997E+02  0.45594000000E+02  0.51100000000E-03 0. -1.
         11   -1    0    0    0    0 -0.00000000000E+00 -0.00000000000E+00 -0.45593999997E+02  0.45594000000E+02  0.51100000000E-03 0.  1.
    9900012    2    1    2    0    0 -0.35889071140E+02 -0.65342177760E+01  0.17956939592E+02  0.50528768468E+02  0.29999722235E+02 0.  0.
        -12    1    1    2    0    0  0.35889071140E+02  0.65342177760E+01 -0.17956939592E+02  0.40659231532E+02  0.00000000000E+00 0.  1.
         11    1    3    3    0    0  0.14814999107E+01 -0.22122737627E+01  0.48328241082E+01  0.55177156785E+01  0.51100000000E-03 0. -1.
        -11    1    3    3    0    0 -0.55091388301E+01 -0.15561471240E+01 -0.55529972500E+01  0.79754613184E+01  0.51100000000E-03 0.  1.
        -12    1    3    3    0    0 -0.31861432221E+02 -0.27657968892E+01  0.18677112733E+02  0.37035591472E+02  0.00000000000E+00 0.  1.
</event>
<event>
 7    1  0.5041278E-013  0.5052887E+02  0.7816164E-02  0.1300439E+00
        -11   -1    0    0    0    0  0.00000000000E+00  0.00000000000E+00  0.45593999997E+02  0.45594000000E+02  0.51100000000E-03 0.  1.
         11   -1    0    0    0    0 -0.00000000000E+00 -0.00000000000E+00 -0.45593999997E+02  0.45594000000E+02  0.51100000000E-03 0. -1.
    9900012    2    1    2    0    0  0.24890842900E+02 -0.85371492540E+01 -0.30995614069E+02  0.50528867333E+02  0.30000022747E+02 0.  0.
        -12    1    1    2    0    0 -0.24890842900E+02  0.85371492540E+01  0.30995614069E+02  0.40659132667E+02  0.00000000000E+00 0.  1.
         11    1    3    3    0    0  0.25016549593E+02  0.31938648024E+01 -0.27963432258E+02  0.37656102690E+02  0.51100000000E-03 0. -1.
        -11    1    3    3    0    0 -0.36831753065E+00  0.17505404655E+00  0.30063829174E+00  0.50664125985E+00  0.51100000000E-03 0.  1.
         12    1    3    3    0    0  0.24261083799E+00 -0.11906068103E+02 -0.33328201028E+01  0.12366123383E+02  0.00000000000E+00 0. -1.
</event>
<event>
 7    1  0.5041278E-013  0.5052886E+02  0.7816164E-02  0.1300439E+00
        -11   -1    0    0    0    0  0.00000000000E+00  0.00000000000E+00  0.45593999997E+02  0.45594000000E+02  0.51100000000E-03 0.  1.
         11   -1    0    0    0    0 -0.00000000000E+00 -0.00000000000E+00 -0.45593999997E+02  0.45594000000E+02  0.51100000000E-03 0. -1.
    9900012    2    1    2    0    0  0.36525055807E+02  0.15884848480E+02 -0.81705290181E+01  0.50528860101E+02  0.30000000762E+02 0.  0.
        -12    1    1    2    0    0 -0.36525055807E+02 -0.15884848480E+02  0.81705290181E+01  0.40659139899E+02  0.00000000000E+00 0.  1.
         11    1    3    3    0    0 -0.83700127189E+00  0.16864974172E+01 -0.38291886628E+01  0.42670283270E+01  0.51100000000E-03 0. -1.
        -11    1    3    3    0    0  0.38616133592E+01  0.82013498000E+00  0.73487472586E+01  0.83419881116E+01  0.51100000000E-03 0.  1.
        -12    1    3    3    0    0  0.33500443719E+02  0.13378216083E+02 -0.11690087614E+02  0.37919843662E+02  0.00000000000E+00 0.  1.
</event>
<event>
 7    1  0.5041278E-013  0.5052885E+02  0.7816164E-02  0.1300439E+00
        -11   -1    0    0    0    0  0.00000000000E+00  0.00000000000E+00  0.45593999997E+02  0.45594000000E+02  0.51100000000E-03 0. -1.
         11   -1    0    0    0    0 -0.00000000000E+00 -0.00000000000E+00 -0.45593999997E+02  0.45594000000E+02  0.51100000000E-03 0.  1.
    9900012    2    1    2    0    0  0.32491247372E+02 -0.23317804173E+02 -0.73325026684E+01  0.50528846755E+02  0.29999960197E+02 0.  0.
        -12    1    1    2    0    0 -0.32491247372E+02  0.23317804173E+02  0.73325026684E+01  0.40659153245E+02  0.00000000000E+00 0.  1.
         11    1    3    3    0    0  0.17226970617E+02 -0.21947465902E+02 -0.17089200145E+01  0.27953178425E+02  0.51100000000E-03 0. -1.
        -11    1    3    3    0    0  0.12874620448E+02 -0.26423169935E+01  0.30476448712E+01  0.13491694864E+02  0.51100000000E-03 0.  1.
         12    1    3    3    0    0  0.23896563059E+01  0.12719787232E+01 -0.86712275252E+01  0.90839734657E+01  0.00000000000E+00 0. -1.
</event>
<event>
 7    1  0.5041278E-013  0.5052886E+02  0.7816164E-02  0.1300439E+00
        -11   -1    0    0    0    0  0.00000000000E+00  0.00000000000E+00  0.45593999997E+02  0.45594000000E+02  0.51100000000E-03 0. -1.
         11   -1    0    0    0    0 -0.00000000000E+00 -0.00000000000E+00 -0.45593999997E+02  0.45594000000E+02  0.51100000000E-03 0.  1.
    9900012    2    1    2    0    0 -0.55808489881E+01  0.39730753313E+02  0.65944483199E+01  0.50528863476E+02  0.30000011021E+02 0.  0.
        -12    1    1    2    0    0  0.55808489881E+01 -0.39730753313E+02 -0.65944483199E+01  0.40659136524E+02  0.00000000000E+00 0.  1.
         11    1    3    3    0    0 -0.29620157028E+01  0.25451123365E+02 -0.52454858658E+00  0.25628272846E+02  0.51100000000E-03 0. -1.
        -11    1    3    3    0    0 -0.12858829469E+01  0.49116840119E+01 -0.65429500609E+01  0.82818072030E+01  0.51100000000E-03 0.  1.
        -12    1    3    3    0    0 -0.13329503384E+01  0.93679459360E+01  0.13661946967E+02  0.16618783427E+02  0.00000000000E+00 0.  1.
</event>
<event>
 7    1  0.5041278E-013  0.5052886E+02  0.7816164E-02  0.1300439E+00
        -11   -1    0    0    0    0  0.00000000000E+00  0.00000000000E+00  0.45593999997E+02  0.45594000000E+02  0.51100000000E-03 0.  1.
         11   -1    0    0    0    0 -0.00000000000E+00 -0.00000000000E+00 -0.45593999997E+02  0.45594000000E+02  0.51100000000E-03 0. -1.
    9900012    2    1    2    0    0  0.38550518564E+02 -0.64932482884E+00  0.12907407725E+02  0.50528864760E+02  0.30000014925E+02 0.  0.
        -12    1    1    2    0    0 -0.38550518564E+02  0.64932482884E+00 -0.12907407725E+02  0.40659135240E+02  0.00000000000E+00 0.  1.
         11    1    3    3    0    0  0.39252522437E+02 -0.32443307587E+01  0.48714684616E+01  0.39686488947E+02  0.51100000000E-03 0. -1.
        -11    1    3    3    0    0  0.14278029650E+00  0.17787678941E+01 -0.78072366998E+00  0.19478016183E+01  0.51100000000E-03 0.  1.
        -12    1    3    3    0    0 -0.84478416938E+00  0.81623803578E+00  0.88166629332E+01  0.88945741945E+01  0.00000000000E+00 0.  1.
</event>
<event>
 7    1  0.5041278E-013  0.5052887E+02  0.7816164E-02  0.1300439E+00
        -11   -1    0    0    0    0  0.00000000000E+00  0.00000000000E+00  0.45593999997E+02  0.45594000000E+02  0.51100000000E-03 0.  1.
         11   -1    0    0    0    0 -0.00000000000E+00 -0.00000000000E+00 -0.45593999997E+02  0.45594000000E+02  0.51100000000E-03 0. -1.
    9900012    2    1    2    0    0 -0.20170452218E+02 -0.18092722356E+02 -0.30314537507E+02  0.50528869054E+02  0.30000027978E+02 0.  0.
        -12    1    1    2    0    0  0.20170452218E+02  0.18092722356E+02  0.30314537507E+02  0.40659130946E+02  0.00000000000E+00 0.  1.
         11    1    3    3    0    0 -0.77392704247E+00 -0.40779196978E+00 -0.12100185428E+02  0.12131765948E+02  0.51100000000E-03 0. -1.
        -11    1    3    3    0    0 -0.13801846668E+01 -0.37268694464E+01  0.46480410190E+01  0.61154518362E+01  0.51100000000E-03 0.  1.
         12    1    3    3    0    0 -0.18016340509E+02 -0.13958060940E+02 -0.22862393098E+02  0.32281651270E+02  0.00000000000E+00 0. -1.
</event>
<event>
 7    1  0.5041278E-013  0.5052887E+02  0.7816164E-02  0.1300439E+00
        -11   -1    0    0    0    0  0.00000000000E+00  0.00000000000E+00  0.45593999997E+02  0.45594000000E+02  0.51100000000E-03 0.  1.
         11   -1    0    0    0    0 -0.00000000000E+00 -0.00000000000E+00 -0.45593999997E+02  0.45594000000E+02  0.51100000000E-03 0. -1.
    9900012    2    1    2    0    0 -0.39184816181E+02 -0.38502876514E+01  0.10143498512E+02  0.50528867001E+02  0.30000021737E+02 0.  0.
        -12    1    1    2    0    0  0.39184816181E+02  0.38502876514E+01 -0.10143498512E+02  0.40659132999E+02  0.00000000000E+00 0.  1.
         11    1    3    3    0    0 -0.44572479798E+01  0.11694964673E+01  0.11051158255E+02  0.11973423929E+02  0.51100000000E-03 0. -1.
        -11    1    3    3    0    0 -0.95473361343E+00 -0.54176345467E+00 -0.41879878983E+01  0.43294649566E+01  0.51100000000E-03 0.  1.
         12    1    3    3    0    0 -0.33772834588E+02 -0.44780206640E+01  0.32803281550E+01  0.34225978116E+02  0.00000000000E+00 0. -1.
</event>
<event>
 7    1  0.5532364E-013  0.5052885E+02  0.7816164E-02  0.1300439E+00
        -11   -1    0    0    0    0  0.00000000000E+00  0.00000000000E+00  0.45593999997E+02  0.45594000000E+02  0.51100000000E-03 0.  1.
         11   -1    0    0    0    0 -0.00000000000E+00 -0.00000000000E+00 -0.45593999997E+02  0.45594000000E+02  0.51100000000E-03 0. -1.
    9900012    2    1    2    0    0  0.28982920645E+02 -0.13235377978E+02 -0.25258299550E+02  0.50528848318E+02  0.29999964948E+02 0.  0.
        -12    1    1    2    0    0 -0.28982920645E+02  0.13235377978E+02  0.25258299550E+02  0.40659151682E+02  0.00000000000E+00 0.  1.
         11    1    3    3    0    0  0.16539801563E+02 -0.96435026601E+01 -0.18787967752E+02  0.26824427521E+02  0.51100000000E-03 0. -1.
        -11    1    3    3    0    0  0.33144394191E+01 -0.10442687502E+02 -0.54743878046E+01  0.12247618259E+02  0.51100000000E-03 0.  1.
        -12    1    3    3    0    0  0.91286796631E+01  0.68508121841E+01 -0.99594399290E+00  0.11456802539E+02  0.00000000000E+00 0.  1.
</event>
<event>
 7    1  0.5041278E-013  0.5052886E+02  0.7816164E-02  0.1300439E+00
        -11   -1    0    0    0    0  0.00000000000E+00  0.00000000000E+00  0.45593999997E+02  0.45594000000E+02  0.51100000000E-03 0.  1.
         11   -1    0    0    0    0 -0.00000000000E+00 -0.00000000000E+00 -0.45593999997E+02  0.45594000000E+02  0.51100000000E-03 0. -1.
    9900012    2    1    2    0    0 -0.24525303985E+02 -0.21595656695E+02 -0.24193026665E+02  0.50528862493E+02  0.30000008032E+02 0.  0.
        -12    1    1    2    0    0  0.24525303985E+02  0.21595656695E+02  0.24193026665E+02  0.40659137507E+02  0.00000000000E+00 0.  1.
         11    1    3    3    0    0 -0.56870252584E+01 -0.11702711451E+02 -0.11954600972E+02  0.17669414146E+02  0.51100000000E-03 0. -1.
        -11    1    3    3    0    0 -0.56556505474E+01 -0.10800310429E+02  0.31344773738E+01  0.12588011644E+02  0.51100000000E-03 0.  1.
         12    1    3    3    0    0 -0.13182628179E+02  0.90736518549E+00 -0.15372903068E+02  0.20271436703E+02  0.00000000000E+00 0. -1.
</event>
<event>
 7    1  0.5041278E-013  0.5052885E+02  0.7816164E-02  0.1300439E+00
        -11   -1    0    0    0    0  0.00000000000E+00  0.00000000000E+00  0.45593999997E+02  0.45594000000E+02  0.51100000000E-03 0.  1.
         11   -1    0    0    0    0 -0.00000000000E+00 -0.00000000000E+00 -0.45593999997E+02  0.45594000000E+02  0.51100000000E-03 0. -1.
    9900012    2    1    2    0    0  0.32849293713E+02 -0.10307439551E+02 -0.21629776142E+02  0.50528848219E+02  0.29999964648E+02 0.  0.
        -12    1    1    2    0    0 -0.32849293713E+02  0.10307439551E+02  0.21629776142E+02  0.40659151781E+02  0.00000000000E+00 0.  1.
         11    1    3    3    0    0  0.14426235882E+02 -0.22054176043E+01 -0.13341866664E+02  0.19773354670E+02  0.51100000000E-03 0. -1.
        -11    1    3    3    0    0  0.14296497630E+02 -0.19411366486E+01 -0.14957695769E+02  0.20781975819E+02  0.51100000000E-03 0.  1.
        -12    1    3    3    0    0  0.41265602011E+01 -0.61608852985E+01  0.66697862913E+01  0.99735177308E+01  0.00000000000E+00 0.  1.
</event>
<event>
 7    1  0.5041278E-013  0.5052887E+02  0.7816164E-02  0.1300439E+00
        -11   -1    0    0    0    0  0.00000000000E+00  0.00000000000E+00  0.45593999997E+02  0.45594000000E+02  0.51100000000E-03 0.  1.
         11   -1    0    0    0    0 -0.00000000000E+00 -0.00000000000E+00 -0.45593999997E+02  0.45594000000E+02  0.51100000000E-03 0. -1.
    9900012    2    1    2    0    0  0.33304084246E+02 -0.81716149955E+01 -0.21845541404E+02  0.50528868205E+02  0.30000025397E+02 0.  0.
        -12    1    1    2    0    0 -0.33304084246E+02  0.81716149955E+01  0.21845541404E+02  0.40659131795E+02  0.00000000000E+00 0.  1.
         11    1    3    3    0    0  0.23430294552E+02 -0.11826995350E+02 -0.13983428429E+02  0.29738742285E+02  0.51100000000E-03 0. -1.
        -11    1    3    3    0    0  0.11958449626E+02  0.37420777632E+01 -0.11231398958E+02  0.16827120557E+02  0.51100000000E-03 0.  1.
         12    1    3    3    0    0 -0.20846599324E+01 -0.86697408898E-01  0.33692859827E+01  0.39630053631E+01  0.00000000000E+00 0. -1.
</event>
<event>
 7    1  0.5041278E-013  0.5052884E+02  0.7816164E-02  0.1300439E+00
        -11   -1    0    0    0    0  0.00000000000E+00  0.00000000000E+00  0.45593999997E+02  0.45594000000E+02  0.51100000000E-03 0. -1.
         11   -1    0    0    0    0 -0.00000000000E+00 -0.00000000000E+00 -0.45593999997E+02  0.45594000000E+02  0.51100000000E-03 0.  1.
    9900012    2    1    2    0    0 -0.73249202307E+01  0.29169063295E+02  0.27361990483E+02  0.50528840724E+02  0.29999941863E+02 0.  0.
        -12    1    1    2    0    0  0.73249202307E+01 -0.29169063295E+02 -0.27361990483E+02  0.40659159276E+02  0.00000000000E+00 0.  1.
         11    1    3    3    0    0 -0.12721113589E+02  0.13393574269E+02  0.10088663651E+02  0.21047462963E+02  0.51100000000E-03 0. -1.
        -11    1    3    3    0    0  0.18735297306E+00  0.16836027835E+02  0.76629853075E+01  0.18498872357E+02  0.51100000000E-03 0.  1.
        -12    1    3    3    0    0  0.52088403855E+01 -0.10605388092E+01  0.96103415243E+01  0.10982505404E+02  0.00000000000E+00 0.  1.
</event>
<event>
 7    1  0.5041278E-013  0.5052886E+02  0.7816164E-02  0.1300439E+00
        -11   -1    0    0    0    0  0.00000000000E+00  0.00000000000E+00  0.45593999997E+02  0.45594000000E+02  0.51100000000E-03 0.  1.
         11   -1    0    0    0    0 -0.00000000000E+00 -0.00000000000E+00 -0.45593999997E+02  0.45594000000E+02  0.51100000000E-03 0. -1.
    9900012    2    1    2    0    0  0.16637354563E+02 -0.32282779662E+02 -0.18280760432E+02  0.50528860418E+02  0.30000001727E+02 0.  0.
        -12    1    1    2    0    0 -0.16637354563E+02  0.32282779662E+02  0.18280760432E+02  0.40659139582E+02  0.00000000000E+00 0.  1.
         11    1    3    3    0    0  0.13977134254E+02 -0.12246361161E+02 -0.39787784640E+01  0.19004323770E+02  0.51100000000E-03 0. -1.
        -11    1    3    3    0    0 -0.22171839598E+01  0.18165552855E+01 -0.76458714340E+01  0.81654839455E+01  0.51100000000E-03 0.  1.
         12    1    3    3    0    0  0.48774042692E+01 -0.21852973787E+02 -0.66561105339E+01  0.23359052703E+02  0.00000000000E+00 0. -1.
</event>
<event>
 7    1  0.5041278E-013  0.5052886E+02  0.7816164E-02  0.1300439E+00
        -11   -1    0    0    0    0  0.00000000000E+00  0.00000000000E+00  0.45593999997E+02  0.45594000000E+02  0.51100000000E-03 0.  1.
         11   -1    0    0    0    0 -0.00000000000E+00 -0.00000000000E+00 -0.45593999997E+02  0.45594000000E+02  0.51100000000E-03 0. -1.
    9900012    2    1    2    0    0 -0.28403982181E+02  0.16885308016E+02 -0.23691046133E+02  0.50528862067E+02  0.30000006740E+02 0.  0.
        -12    1    1    2    0    0  0.28403982181E+02 -0.16885308016E+02  0.23691046133E+02  0.40659137933E+02  0.00000000000E+00 0.  1.
         11    1    3    3    0    0 -0.23843425563E+01  0.67400897973E+01 -0.16111598107E+02  0.17626613223E+02  0.51100000000E-03 0. -1.
        -11    1    3    3    0    0 -0.17053365287E+02  0.74871287190E+01 -0.12406036743E+02  0.22378206184E+02  0.51100000000E-03 0.  1.
        -12    1    3    3    0    0 -0.89662743372E+01  0.26580895000E+01  0.48265887165E+01  0.10524042660E+02  0.00000000000E+00 0.  1.
</event>
<event>
 7    1  0.5041278E-013  0.5052886E+02  0.7816164E-02  0.1300439E+00
        -11   -1    0    0    0    0  0.00000000000E+00  0.00000000000E+00  0.45593999997E+02  0.45594000000E+02  0.51100000000E-03 0.  1.
         11   -1    0    0    0    0 -0.00000000000E+00 -0.00000000000E+00 -0.45593999997E+02  0.45594000000E+02  0.51100000000E-03 0. -1.
    9900012    2    1    2    0    0 -0.71424376999E+01 -0.40026881079E+02  0.84160373715E-02  0.50528859625E+02  0.29999999316E+02 0.  0.
        -12    1    1    2    0    0  0.71424376999E+01  0.40026881079E+02 -0.84160373715E-02  0.40659140375E+02  0.00000000000E+00 0.  1.
         11    1    3    3    0    0  0.67436498856E-01 -0.22572776442E+02 -0.63856181453E+01  0.23458706344E+02  0.51100000000E-03 0. -1.
        -11    1    3    3    0    0  0.32223601403E+01 -0.15162745155E+02  0.50596598383E+01  0.16306213645E+02  0.51100000000E-03 0.  1.
        -12    1    3    3    0    0 -0.10432234339E+02 -0.22913594821E+01  0.13343743444E+01  0.10763939635E+02  0.00000000000E+00 0.  1.
</event>
<event>
 7    1  0.5041278E-013  0.5052886E+02  0.7816164E-02  0.1300439E+00
        -11   -1    0    0    0    0  0.00000000000E+00  0.00000000000E+00  0.45593999997E+02  0.45594000000E+02  0.51100000000E-03 0. -1.
         11   -1    0    0    0    0 -0.00000000000E+00 -0.00000000000E+00 -0.45593999997E+02  0.45594000000E+02  0.51100000000E-03 0.  1.
    9900012    2    1    2    0    0  0.10613120654E+02 -0.38263646769E+02 -0.87419012369E+01  0.50528857961E+02  0.29999994259E+02 0.  0.
        -12    1    1    2    0    0 -0.10613120654E+02  0.38263646769E+02  0.87419012369E+01  0.40659142039E+02  0.00000000000E+00 0.  1.
         11    1    3    3    0    0 -0.29429456915E+01 -0.21723574846E+01  0.37210809534E+01  0.52179028457E+01  0.51100000000E-03 0. -1.
        -11    1    3    3    0    0 -0.38408278346E+01 -0.10090529993E+02 -0.85720147506E+01  0.13785869256E+02  0.51100000000E-03 0.  1.
         12    1    3    3    0    0  0.17396894180E+02 -0.26000759291E+02 -0.38909674397E+01  0.31525085859E+02  0.00000000000E+00 0. -1.
</event>
<event>
 7    1  0.5041278E-013  0.5052886E+02  0.7816164E-02  0.1300439E+00
        -11   -1    0    0    0    0  0.00000000000E+00  0.00000000000E+00  0.45593999997E+02  0.45594000000E+02  0.51100000000E-03 0.  1.
         11   -1    0    0    0    0 -0.00000000000E+00 -0.00000000000E+00 -0.45593999997E+02  0.45594000000E+02  0.51100000000E-03 0. -1.
    9900012    2    1    2    0    0 -0.16873245542E+02  0.28375054986E+02 -0.23734268767E+02  0.50528859890E+02  0.30000000121E+02 0.  0.
        -12    1    1    2    0    0  0.16873245542E+02 -0.28375054986E+02  0.23734268767E+02  0.40659140110E+02  0.00000000000E+00 0.  1.
         11    1    3    3    0    0 -0.58505153953E+01 -0.12976746408E+01 -0.47985056552E+01  0.76771183818E+01  0.51100000000E-03 0. -1.
        -11    1    3    3    0    0 -0.24368953763E+01 -0.16853877381E+01  0.25269196840E+01  0.38941384482E+01  0.51100000000E-03 0.  1.
         12    1    3    3    0    0 -0.85858347703E+01  0.31358117365E+02 -0.21462682795E+02  0.38957603060E+02  0.00000000000E+00 0. -1.
</event>
<event>
 7    1  0.5041278E-013  0.5052886E+02  0.7816164E-02  0.1300439E+00
        -11   -1    0    0    0    0  0.00000000000E+00  0.00000000000E+00  0.45593999997E+02  0.45594000000E+02  0.51100000000E-03 0. -1.
         11   -1    0    0    0    0 -0.00000000000E+00 -0.00000000000E+00 -0.45593999997E+02  0.45594000000E+02  0.51100000000E-03 0.  1.
    9900012    2    1    2    0    0 -0.37772362220E+02  0.13268632977E+02  0.70963052897E+01  0.50528861820E+02  0.30000005988E+02 0.  0.
        -12    1    1    2    0    0  0.37772362220E+02 -0.13268632977E+02 -0.70963052897E+01  0.40659138180E+02  0.00000000000E+00 0.  1.
         11    1    3    3    0    0 -0.11451211070E+02 -0.29272359670E+01  0.64183689694E+01  0.13449699099E+02  0.51100000000E-03 0. -1.
        -11    1    3    3    0    0 -0.13347888501E+02  0.84907737242E+01  0.10579883108E+02  0.19031376533E+02  0.51100000000E-03 0.  1.
        -12    1    3    3    0    0 -0.12973262649E+02  0.77050952196E+01 -0.99019467880E+01  0.18047786188E+02  0.00000000000E+00 0.  1.
</event>
<event>
 7    1  0.5041278E-013  0.5052885E+02  0.7816164E-02  0.1300439E+00
        -11   -1    0    0    0    0  0.00000000000E+00  0.00000000000E+00  0.45593999997E+02  0.45594000000E+02  0.51100000000E-03 0.  1.
         11   -1    0    0    0    0 -0.00000000000E+00 -0.00000000000E+00 -0.45593999997E+02  0.45594000000E+02  0.51100000000E-03 0. -1.
    9900012    2    1    2    0    0  0.29008786013E+02 -0.23251556286E+02 -0.16462754092E+02  0.50528845952E+02  0.29999957755E+02 0.  0.
        -12    1    1    2    0    0 -0.29008786013E+02  0.23251556286E+02  0.16462754092E+02  0.40659154048E+02  0.00000000000E+00 0.  1.
         11    1    3    3    0    0  0.68732232831E+01 -0.12928481986E+02 -0.81593815208E+01  0.16761931626E+02  0.51100000000E-03 0. -1.
        -11    1    3    3    0    0 -0.35885763127E+01 -0.52519830162E+01 -0.36104426049E+00  0.63711505063E+01  0.51100000000E-03 0.  1.
         12    1    3    3    0    0  0.25724139042E+02 -0.50710912838E+01 -0.79423283103E+01  0.27395763820E+02  0.00000000000E+00 0. -1.
</event>
<event>
 7    1  0.5041278E-013  0.5052886E+02  0.7816164E-02  0.1300439E+00
        -11   -1    0    0    0    0  0.00000000000E+00  0.00000000000E+00  0.45593999997E+02  0.45594000000E+02  0.51100000000E-03 0.  1.
         11   -1    0    0    0    0 -0.00000000000E+00 -0.00000000000E+00 -0.45593999997E+02  0.45594000000E+02  0.51100000000E-03 0. -1.
    9900012    2    1    2    0    0  0.19077446942E+02  0.34340986886E+02 -0.10483954057E+02  0.50528860132E+02  0.30000000856E+02 0.  0.
        -12    1    1    2    0    0 -0.19077446942E+02 -0.34340986886E+02  0.10483954057E+02  0.40659139868E+02  0.00000000000E+00 0.  1.
         11    1    3    3    0    0 -0.91153240201E-01  0.88878975363E+01 -0.13436471820E+02  0.16110301263E+02  0.51100000000E-03 0. -1.
        -11    1    3    3    0    0  0.29687304987E+01  0.48443889813E-01 -0.23984608146E+01  0.38168471445E+01  0.51100000000E-03 0.  1.
        -12    1    3    3    0    0  0.16199869684E+02  0.25404645460E+02  0.53509785779E+01  0.30601711725E+02  0.00000000000E+00 0.  1.
</event>
<event>
 7    1  0.5041278E-013  0.5052889E+02  0.7816164E-02  0.1300439E+00
        -11   -1    0    0    0    0  0.00000000000E+00  0.00000000000E+00  0.45593999997E+02  0.45594000000E+02  0.51100000000E-03 0.  1.
         11   -1    0    0    0    0 -0.00000000000E+00 -0.00000000000E+00 -0.45593999997E+02  0.45594000000E+02  0.51100000000E-03 0. -1.
    9900012    2    1    2    0    0  0.39132647712E+02  0.26569070922E+01  0.10711688934E+02  0.50528885990E+02  0.30000079454E+02 0.  0.
        -12    1    1    2    0    0 -0.39132647712E+02 -0.26569070922E+01 -0.10711688934E+02  0.40659114010E+02  0.00000000000E+00 0.  1.
         11    1    3    3    0    0  0.80198427811E+01 -0.30922259988E+01 -0.28617133336E+01  0.90592021351E+01  0.51100000000E-03 0. -1.
        -11    1    3    3    0    0  0.65152896257E+01  0.11061531264E+02 -0.83672950838E-01  0.12837970020E+02  0.51100000000E-03 0.  1.
        -12    1    3    3    0    0  0.24597515306E+02 -0.53123981733E+01  0.13657075219E+02  0.28631713834E+02  0.00000000000E+00 0.  1.
</event>
<event>
 7    1  0.5041278E-013  0.5052887E+02  0.7816164E-02  0.1300439E+00
        -11   -1    0    0    0    0  0.00000000000E+00  0.00000000000E+00  0.45593999997E+02  0.45594000000E+02  0.51100000000E-03 0.  1.
         11   -1    0    0    0    0 -0.00000000000E+00 -0.00000000000E+00 -0.45593999997E+02  0.45594000000E+02  0.51100000000E-03 0. -1.
    9900012    2    1    2    0    0 -0.21345848758E+02 -0.10499123205E+02 -0.32974055553E+02  0.50528865886E+02  0.30000018346E+02 0.  0.
        -12    1    1    2    0    0  0.21345848758E+02  0.10499123205E+02  0.32974055553E+02  0.40659134114E+02  0.00000000000E+00 0.  1.
         11    1    3    3    0    0 -0.13007495083E+02 -0.27574709965E+01 -0.67534418436E+01  0.14913334692E+02  0.51100000000E-03 0. -1.
        -11    1    3    3    0    0 -0.20710715329E+01 -0.84810689581E+01 -0.86964218319E-01  0.87307176683E+01  0.51100000000E-03 0.  1.
        -12    1    3    3    0    0 -0.62672821426E+01  0.73941674922E+00 -0.26133649491E+02  0.26884813526E+02  0.00000000000E+00 0.  1.
</event>
<event>
 7    1  0.5041278E-013  0.5052886E+02  0.7816164E-02  0.1300439E+00
        -11   -1    0    0    0    0  0.00000000000E+00  0.00000000000E+00  0.45593999997E+02  0.45594000000E+02  0.51100000000E-03 0.  1.
         11   -1    0    0    0    0 -0.00000000000E+00 -0.00000000000E+00 -0.45593999997E+02  0.45594000000E+02  0.51100000000E-03 0. -1.
    9900012    2    1    2    0    0  0.40468119294E+02  0.21782005887E+01 -0.32791088555E+01  0.50528858447E+02  0.29999995734E+02 0.  0.
        -12    1    1    2    0    0 -0.40468119294E+02 -0.21782005887E+01  0.32791088555E+01  0.40659141553E+02  0.00000000000E+00 0.  1.
         11    1    3    3    0    0  0.15038997268E+02  0.89991682619E+00 -0.86168860609E+01  0.17356036839E+02  0.51100000000E-03 0. -1.
        -11    1    3    3    0    0 -0.17216056712E+01  0.33222101850E+01 -0.28915064536E+01  0.47288282304E+01  0.51100000000E-03 0.  1.
         12    1    3    3    0    0  0.27150727697E+02 -0.20439264224E+01  0.82292836590E+01  0.28443993377E+02  0.00000000000E+00 0. -1.
</event>
<event>
 7    1  0.5041278E-013  0.5052886E+02  0.7816164E-02  0.1300439E+00
        -11   -1    0    0    0    0  0.00000000000E+00  0.00000000000E+00  0.45593999997E+02  0.45594000000E+02  0.51100000000E-03 0. -1.
         11   -1    0    0    0    0 -0.00000000000E+00 -0.00000000000E+00 -0.45593999997E+02  0.45594000000E+02  0.51100000000E-03 0.  1.
    9900012    2    1    2    0    0 -0.14109991975E+02  0.22973070068E+02  0.30435366037E+02  0.50528864155E+02  0.30000013085E+02 0.  0.
        -12    1    1    2    0    0  0.14109991975E+02 -0.22973070068E+02 -0.30435366037E+02  0.40659135845E+02  0.00000000000E+00 0.  1.
         11    1    3    3    0    0  0.16471263757E+01 -0.14011445192E+01  0.11783801671E+02  0.11980576503E+02  0.51100000000E-03 0. -1.
        -11    1    3    3    0    0 -0.65881693607E+01  0.22499998297E+02  0.90231596640E+01  0.25121132727E+02  0.51100000000E-03 0.  1.
         12    1    3    3    0    0 -0.91689489900E+01  0.18742162906E+01  0.96284047021E+01  0.13427154926E+02  0.00000000000E+00 0. -1.
</event>
<event>
 7    1  0.5041278E-013  0.5052888E+02  0.7816164E-02  0.1300439E+00
        -11   -1    0    0    0    0  0.00000000000E+00  0.00000000000E+00  0.45593999997E+02  0.45594000000E+02  0.51100000000E-03 0.  1.
         11   -1    0    0    0    0 -0.00000000000E+00 -0.00000000000E+00 -0.45593999997E+02  0.45594000000E+02  0.51100000000E-03 0. -1.
    9900012    2    1    2    0    0 -0.12499162002E+00 -0.18195346517E+02 -0.36360389299E+02  0.50528878419E+02  0.30000056442E+02 0.  0.
        -12    1    1    2    0    0  0.12499162002E+00  0.18195346517E+02  0.36360389299E+02  0.40659121581E+02  0.00000000000E+00 0.  1.
         11    1    3    3    0    0 -0.23204889078E+01 -0.12826028216E+02 -0.58442385585E+01  0.14284494851E+02  0.51100000000E-03 0. -1.
        -11    1    3    3    0    0 -0.16117940673E+01 -0.66410218089E+01 -0.15577612382E+01  0.70091134331E+01  0.51100000000E-03 0.  1.
         12    1    3    3    0    0  0.38072913551E+01  0.12717035079E+01 -0.28958389502E+02  0.29235270134E+02  0.00000000000E+00 0. -1.
</event>
<event>
 7    1  0.5041278E-013  0.5052886E+02  0.7816164E-02  0.1300439E+00
        -11   -1    0    0    0    0  0.00000000000E+00  0.00000000000E+00  0.45593999997E+02  0.45594000000E+02  0.51100000000E-03 0.  1.
         11   -1    0    0    0    0 -0.00000000000E+00 -0.00000000000E+00 -0.45593999997E+02  0.45594000000E+02  0.51100000000E-03 0. -1.
    9900012    2    1    2    0    0  0.21921849543E+02  0.15614724573E+02 -0.30475865688E+02  0.50528862032E+02  0.30000006633E+02 0.  0.
        -12    1    1    2    0    0 -0.21921849543E+02 -0.15614724573E+02  0.30475865688E+02  0.40659137968E+02  0.00000000000E+00 0.  1.
         11    1    3    3    0    0  0.10682534353E+02  0.12019375005E+02 -0.19697632907E+02  0.25427911006E+02  0.51100000000E-03 0. -1.
        -11    1    3    3    0    0  0.11248868529E+02  0.48745541437E+01 -0.15754703881E+02  0.19962690598E+02  0.51100000000E-03 0.  1.
        -12    1    3    3    0    0 -0.95533397861E-02 -0.12792045759E+01  0.49764711003E+01  0.51382604279E+01  0.00000000000E+00 0.  1.
</event>
<event>
 7    1  0.5041278E-013  0.5052886E+02  0.7816164E-02  0.1300439E+00
        -11   -1    0    0    0    0  0.00000000000E+00  0.00000000000E+00  0.45593999997E+02  0.45594000000E+02  0.51100000000E-03 0. -1.
         11   -1    0    0    0    0 -0.00000000000E+00 -0.00000000000E+00 -0.45593999997E+02  0.45594000000E+02  0.51100000000E-03 0.  1.
    9900012    2    1    2    0    0  0.47851447332E+01 -0.26043945933E+02  0.30854188784E+02  0.50528859633E+02  0.29999999340E+02 0.  0.
        -12    1    1    2    0    0 -0.47851447332E+01  0.26043945933E+02 -0.30854188784E+02  0.40659140367E+02  0.00000000000E+00 0.  1.
         11    1    3    3    0    0  0.11739010208E+02 -0.85244458248E+01  0.38549097901E+01  0.15011024850E+02  0.51100000000E-03 0. -1.
        -11    1    3    3    0    0  0.95250625287E+00  0.10448891895E+00  0.92048848834E+01  0.92546254421E+01  0.51100000000E-03 0.  1.
         12    1    3    3    0    0 -0.79063717279E+01 -0.17623989027E+02  0.17794394111E+02  0.26263209341E+02  0.00000000000E+00 0. -1.
</event>
<event>
 7    1  0.5041278E-013  0.5052886E+02  0.7816164E-02  0.1300439E+00
        -11   -1    0    0    0    0  0.00000000000E+00  0.00000000000E+00  0.45593999997E+02  0.45594000000E+02  0.51100000000E-03 0.  1.
         11   -1    0    0    0    0 -0.00000000000E+00 -0.00000000000E+00 -0.45593999997E+02  0.45594000000E+02  0.51100000000E-03 0. -1.
    9900012    2    1    2    0    0  0.18367914049E+02 -0.31759044366E+02 -0.17525645229E+02  0.50528863188E+02  0.30000010147E+02 0.  0.
        -12    1    1    2    0    0 -0.18367914049E+02  0.31759044366E+02  0.17525645229E+02  0.40659136812E+02  0.00000000000E+00 0.  1.
         11    1    3    3    0    0  0.78601095003E+01 -0.17292900610E+01 -0.45862953413E+01  0.92631458312E+01  0.51100000000E-03 0. -1.
        -11    1    3    3    0    0 -0.36119800329E+01 -0.12725982487E+02  0.33218722075E+01  0.13639349883E+02  0.51100000000E-03 0.  1.
         12    1    3    3    0    0  0.14119784581E+02 -0.17303771819E+02 -0.16261222095E+02  0.27626367474E+02  0.00000000000E+00 0. -1.
</event>
<event>
 7    1  0.5041278E-013  0.5052885E+02  0.7816164E-02  0.1300439E+00
        -11   -1    0    0    0    0  0.00000000000E+00  0.00000000000E+00  0.45593999997E+02  0.45594000000E+02  0.51100000000E-03 0. -1.
         11   -1    0    0    0    0 -0.00000000000E+00 -0.00000000000E+00 -0.45593999997E+02  0.45594000000E+02  0.51100000000E-03 0.  1.
    9900012    2    1    2    0    0  0.10155808999E+02  0.15928061590E+02  0.36004482445E+02  0.50528851478E+02  0.29999974552E+02 0.  0.
        -12    1    1    2    0    0 -0.10155808999E+02 -0.15928061590E+02 -0.36004482445E+02  0.40659148522E+02  0.00000000000E+00 0.  1.
         11    1    3    3    0    0  0.17858308542E+02  0.75052024851E+01  0.14059224695E+02  0.23935518536E+02  0.51100000000E-03 0.  1.
        -11    1    3    3    0    0 -0.32800564506E+01 -0.14100473368E+01  0.93798013167E+01  0.10036317891E+02  0.51100000000E-03 0. -1.
        -12    1    3    3    0    0 -0.44224430924E+01  0.98329064420E+01  0.12565456433E+02  0.16557015050E+02  0.00000000000E+00 0.  1.
</event>
<event>
 7    1  0.5041278E-013  0.5052885E+02  0.7816164E-02  0.1300439E+00
        -11   -1    0    0    0    0  0.00000000000E+00  0.00000000000E+00  0.45593999997E+02  0.45594000000E+02  0.51100000000E-03 0.  1.
         11   -1    0    0    0    0 -0.00000000000E+00 -0.00000000000E+00 -0.45593999997E+02  0.45594000000E+02  0.51100000000E-03 0. -1.
    9900012    2    1    2    0    0  0.67874383114E+00  0.40342411952E+02 -0.50195018028E+01  0.50528852276E+02  0.29999976979E+02 0.  0.
        -12    1    1    2    0    0 -0.67874383114E+00 -0.40342411952E+02  0.50195018028E+01  0.40659147724E+02  0.00000000000E+00 0.  1.
         11    1    3    3    0    0 -0.51487326989E+01  0.20912373130E+02  0.43628333342E+01  0.21974328507E+02  0.51100000000E-03 0. -1.
        -11    1    3    3    0    0  0.69815324778E+01  0.85750621251E+01  0.35661850625E+01  0.11618569720E+02  0.51100000000E-03 0.  1.
         12    1    3    3    0    0 -0.11540559478E+01  0.10854976696E+02 -0.12948520199E+02  0.16935954049E+02  0.00000000000E+00 0. -1.
</event>
<event>
 7    1  0.5041278E-013  0.5052886E+02  0.7816164E-02  0.1300439E+00
        -11   -1    0    0    0    0  0.00000000000E+00  0.00000000000E+00  0.45593999997E+02  0.45594000000E+02  0.51100000000E-03 0.  1.
         11   -1    0    0    0    0 -0.00000000000E+00 -0.00000000000E+00 -0.45593999997E+02  0.45594000000E+02  0.51100000000E-03 0. -1.
    9900012    2    1    2    0    0 -0.28039049177E+02  0.29357897841E+02 -0.22564439416E+01  0.50528856088E+02  0.29999988566E+02 0.  0.
        -12    1    1    2    0    0  0.28039049177E+02 -0.29357897841E+02  0.22564439416E+01  0.40659143912E+02  0.00000000000E+00 0.  1.
         11    1    3    3    0    0 -0.17680653200E+02  0.97502134515E+01 -0.74526918402E+01  0.21522424953E+02  0.51100000000E-03 0. -1.
        -11    1    3    3    0    0  0.12044561854E+01  0.75584426495E+01 -0.52747653826E+01  0.92953708958E+01  0.51100000000E-03 0.  1.
         12    1    3    3    0    0 -0.11562852163E+02  0.12049241740E+02  0.10471013281E+02  0.19711060240E+02  0.00000000000E+00 0. -1.
</event>
<event>
 7    1  0.5041278E-013  0.5052886E+02  0.7816164E-02  0.1300439E+00
        -11   -1    0    0    0    0  0.00000000000E+00  0.00000000000E+00  0.45593999997E+02  0.45594000000E+02  0.51100000000E-03 0. -1.
         11   -1    0    0    0    0 -0.00000000000E+00 -0.00000000000E+00 -0.45593999997E+02  0.45594000000E+02  0.51100000000E-03 0.  1.
    9900012    2    1    2    0    0 -0.37387520561E+02  0.14924795906E+02  0.57087314630E+01  0.50528857836E+02  0.29999993879E+02 0.  0.
        -12    1    1    2    0    0  0.37387520561E+02 -0.14924795906E+02 -0.57087314630E+01  0.40659142164E+02  0.00000000000E+00 0.  1.
         11    1    3    3    0    0 -0.63119114970E+01 -0.60064907165E+01 -0.25147258373E+01  0.90687377165E+01  0.51100000000E-03 0.  1.
        -11    1    3    3    0    0  0.12268382200E+01  0.30203771459E+01  0.24451780045E+01  0.40751326182E+01  0.51100000000E-03 0. -1.
        -12    1    3    3    0    0 -0.32302447284E+02  0.17910909477E+02  0.57782792957E+01  0.37384987501E+02  0.00000000000E+00 0.  1.
</event>
<event>
 7    1  0.5041278E-013  0.5052885E+02  0.7816164E-02  0.1300439E+00
        -11   -1    0    0    0    0  0.00000000000E+00  0.00000000000E+00  0.45593999997E+02  0.45594000000E+02  0.51100000000E-03 0.  1.
         11   -1    0    0    0    0 -0.00000000000E+00 -0.00000000000E+00 -0.45593999997E+02  0.45594000000E+02  0.51100000000E-03 0. -1.
    9900012    2    1    2    0    0 -0.75667185404E+01  0.23987274725E+02 -0.31945603153E+02  0.50528854177E+02  0.29999982758E+02 0.  0.
        -12    1    1    2    0    0  0.75667185404E+01 -0.23987274725E+02  0.31945603153E+02  0.40659145823E+02  0.00000000000E+00 0.  1.
         11    1    3    3    0    0 -0.21506381359E+01  0.95485095289E+01 -0.12060650274E+01  0.98617377641E+01  0.51100000000E-03 0. -1.
        -11    1    3    3    0    0  0.31260548446E+01  0.17064388713E+02 -0.17089561685E+02  0.24351975277E+02  0.51100000000E-03 0.  1.
         12    1    3    3    0    0 -0.85421352491E+01 -0.26256235171E+01 -0.13649976441E+02  0.16315141137E+02  0.00000000000E+00 0. -1.
</event>
<event>
 7    1  0.5041278E-013  0.5052882E+02  0.7816164E-02  0.1300439E+00
        -11   -1    0    0    0    0  0.00000000000E+00  0.00000000000E+00  0.45593999997E+02  0.45594000000E+02  0.51100000000E-03 0. -1.
         11   -1    0    0    0    0 -0.00000000000E+00 -0.00000000000E+00 -0.45593999997E+02  0.45594000000E+02  0.51100000000E-03 0.  1.
    9900012    2    1    2    0    0 -0.31590630902E+02 -0.25578027548E+02  0.98266472517E+00  0.50528817962E+02  0.29999872677E+02 0.  0.
        -12    1    1    2    0    0  0.31590630902E+02  0.25578027548E+02 -0.98266472517E+00  0.40659182038E+02  0.00000000000E+00 0.  1.
         11    1    3    3    0    0 -0.31218046949E+01 -0.11938061037E+02  0.93283692655E+01  0.15468724553E+02  0.51100000000E-03 0. -1.
        -11    1    3    3    0    0  0.10933889438E+01 -0.76525270800E+00  0.78472189822E+00  0.15481924325E+01  0.51100000000E-03 0.  1.
        -12    1    3    3    0    0 -0.29562215151E+02 -0.12874713803E+02 -0.91304264385E+01  0.33511900977E+02  0.00000000000E+00 0.  1.
</event>
<event>
 7    1  0.7531165E-013  0.5052886E+02  0.7816164E-02  0.1300439E+00
        -11   -1    0    0    0    0  0.00000000000E+00  0.00000000000E+00  0.45593999997E+02  0.45594000000E+02  0.51100000000E-03 0.  1.
         11   -1    0    0    0    0 -0.00000000000E+00 -0.00000000000E+00 -0.45593999997E+02  0.45594000000E+02  0.51100000000E-03 0. -1.
    9900012    2    1    2    0    0  0.73908488634E+01  0.39626076538E+02 -0.53211965402E+01  0.50528859314E+02  0.29999998371E+02 0.  0.
        -12    1    1    2    0    0 -0.73908488634E+01 -0.39626076538E+02  0.53211965402E+01  0.40659140686E+02  0.00000000000E+00 0.  1.
         11    1    3    3    0    0  0.10680519744E+01  0.19953452518E+02  0.15001004169E+01  0.20038246029E+02  0.51100000000E-03 0. -1.
        -11    1    3    3    0    0 -0.31333941379E+01  0.17484259047E+02 -0.98651344177E+01  0.20318423919E+02  0.51100000000E-03 0.  1.
        -12    1    3    3    0    0  0.94561910269E+01  0.21883649730E+01  0.30438374607E+01  0.10172189365E+02  0.00000000000E+00 0.  1.
</event>
<event>
 7    1  0.5041278E-013  0.5052886E+02  0.7816164E-02  0.1300439E+00
        -11   -1    0    0    0    0  0.00000000000E+00  0.00000000000E+00  0.45593999997E+02  0.45594000000E+02  0.51100000000E-03 0. -1.
         11   -1    0    0    0    0 -0.00000000000E+00 -0.00000000000E+00 -0.45593999997E+02  0.45594000000E+02  0.51100000000E-03 0.  1.
    9900012    2    1    2    0    0  0.11433100160E+02  0.26157023084E+02  0.28952727299E+02  0.50528855224E+02  0.29999985938E+02 0.  0.
        -12    1    1    2    0    0 -0.11433100160E+02 -0.26157023084E+02 -0.28952727299E+02  0.40659144776E+02  0.00000000000E+00 0.  1.
         11    1    3    3    0    0 -0.45645287999E+01  0.91590238380E+01  0.77638265386E+00  0.10262816919E+02  0.51100000000E-03 0. -1.
        -11    1    3    3    0    0  0.10344294850E+02  0.77741334831E+01  0.36270073156E+01  0.13438629755E+02  0.51100000000E-03 0.  1.
         12    1    3    3    0    0  0.56533341100E+01  0.92238657627E+01  0.24549337330E+02  0.26827408550E+02  0.00000000000E+00 0. -1.
</event>
<event>
 7    1  0.5041278E-013  0.5052886E+02  0.7816164E-02  0.1300439E+00
        -11   -1    0    0    0    0  0.00000000000E+00  0.00000000000E+00  0.45593999997E+02  0.45594000000E+02  0.51100000000E-03 0.  1.
         11   -1    0    0    0    0 -0.00000000000E+00 -0.00000000000E+00 -0.45593999997E+02  0.45594000000E+02  0.51100000000E-03 0. -1.
    9900012    2    1    2    0    0  0.21003138818E+01  0.24511880490E+02 -0.32371622331E+02  0.50528861594E+02  0.30000005302E+02 0.  0.
        -12    1    1    2    0    0 -0.21003138818E+01 -0.24511880490E+02  0.32371622331E+02  0.40659138406E+02  0.00000000000E+00 0.  1.
         11    1    3    3    0    0 -0.29907248986E+01  0.15190962879E+02 -0.18078042881E+02  0.23801794539E+02  0.51100000000E-03 0. -1.
        -11    1    3    3    0    0  0.10515126670E+02  0.91605212459E+01 -0.15820767877E+02  0.21089801679E+02  0.51100000000E-03 0.  1.
         12    1    3    3    0    0 -0.54240878900E+01  0.16039636573E+00  0.15271884271E+01  0.56372653765E+01  0.00000000000E+00 0. -1.
</event>
<event>
 7    1  0.5041278E-013  0.5052886E+02  0.7816164E-02  0.1300439E+00
        -11   -1    0    0    0    0  0.00000000000E+00  0.00000000000E+00  0.45593999997E+02  0.45594000000E+02  0.51100000000E-03 0.  1.
         11   -1    0    0    0    0 -0.00000000000E+00 -0.00000000000E+00 -0.45593999997E+02  0.45594000000E+02  0.51100000000E-03 0. -1.
    9900012    2    1    2    0    0  0.38729504572E+02  0.32479546261E+01 -0.11943270412E+02  0.50528862752E+02  0.30000008821E+02 0.  0.
        -12    1    1    2    0    0 -0.38729504572E+02 -0.32479546261E+01  0.11943270412E+02  0.40659137248E+02  0.00000000000E+00 0.  1.
         11    1    3    3    0    0  0.26534452276E+02 -0.52925713093E-01 -0.12695265738E+02  0.29415127590E+02  0.51100000000E-03 0. -1.
        -11    1    3    3    0    0  0.11818018780E+02  0.81798735741E+01  0.43762621643E+01  0.15024232771E+02  0.51100000000E-03 0.  1.
         12    1    3    3    0    0  0.37703351638E+00 -0.48789932350E+01 -0.36242668375E+01  0.60895023909E+01  0.00000000000E+00 0. -1.
</event>
<event>
 7    1  0.5041278E-013  0.5052885E+02  0.7816164E-02  0.1300439E+00
        -11   -1    0    0    0    0  0.00000000000E+00  0.00000000000E+00  0.45593999997E+02  0.45594000000E+02  0.51100000000E-03 0. -1.
         11   -1    0    0    0    0 -0.00000000000E+00 -0.00000000000E+00 -0.45593999997E+02  0.45594000000E+02  0.51100000000E-03 0.  1.
    9900012    2    1    2    0    0 -0.34552848932E+02  0.20315305694E+02  0.68231379147E+01  0.50528853111E+02  0.29999979516E+02 0.  0.
        -12    1    1    2    0    0  0.34552848932E+02 -0.20315305694E+02 -0.68231379147E+01  0.40659146889E+02  0.00000000000E+00 0.  1.
         11    1    3    3    0    0  0.14622730185E+01  0.28007809948E+00  0.36372718985E+01  0.39301950648E+01  0.51100000000E-03 0.  1.
        -11    1    3    3    0    0 -0.28935779499E+02  0.24604864731E+02  0.15431079877E+01  0.38013943313E+02  0.51100000000E-03 0. -1.
         12    1    3    3    0    0 -0.70793424515E+01 -0.45696371372E+01  0.16427580285E+01  0.85847147333E+01  0.00000000000E+00 0. -1.
</event>
<event>
 7    1  0.5041278E-013  0.5052886E+02  0.7816164E-02  0.1300439E+00
        -11   -1    0    0    0    0  0.00000000000E+00  0.00000000000E+00  0.45593999997E+02  0.45594000000E+02  0.51100000000E-03 0. -1.
         11   -1    0    0    0    0 -0.00000000000E+00 -0.00000000000E+00 -0.45593999997E+02  0.45594000000E+02  0.51100000000E-03 0.  1.
    9900012    2    1    2    0    0 -0.24657511596E+02 -0.20646255458E+02 -0.24877799786E+02  0.50528860010E+02  0.30000000487E+02 0.  0.
        -12    1    1    2    0    0  0.24657511596E+02  0.20646255458E+02  0.24877799786E+02  0.40659139990E+02  0.00000000000E+00 0.  1.
         11    1    3    3    0    0  0.42239714239E+00 -0.14760170253E+02 -0.63570688288E+01  0.16076484989E+02  0.51100000000E-03 0. -1.
        -11    1    3    3    0    0 -0.16935068584E+02 -0.55113032171E+01 -0.19300438725E+02  0.26261720171E+02  0.51100000000E-03 0.  1.
        -12    1    3    3    0    0 -0.81448401540E+01 -0.37478198737E+00  0.77970776747E+00  0.81906548502E+01  0.00000000000E+00 0.  1.
</event>
<event>
 7    1  0.5041278E-013  0.5052886E+02  0.7816164E-02  0.1300439E+00
        -11   -1    0    0    0    0  0.00000000000E+00  0.00000000000E+00  0.45593999997E+02  0.45594000000E+02  0.51100000000E-03 0.  1.
         11   -1    0    0    0    0 -0.00000000000E+00 -0.00000000000E+00 -0.45593999997E+02  0.45594000000E+02  0.51100000000E-03 0. -1.
    9900012    2    1    2    0    0 -0.36032595321E+02 -0.16537442283E+02  0.90183416703E+01  0.50528863151E+02  0.30000010033E+02 0.  0.
        -12    1    1    2    0    0  0.36032595321E+02  0.16537442283E+02 -0.90183416703E+01  0.40659136849E+02  0.00000000000E+00 0.  1.
         11    1    3    3    0    0  0.11342916776E+01 -0.74875397091E+01  0.12685056920E+01  0.76784748132E+01  0.51100000000E-03 0. -1.
        -11    1    3    3    0    0 -0.12322399111E+02 -0.11823385052E+02  0.43395275551E+01  0.17620029898E+02  0.51100000000E-03 0.  1.
         12    1    3    3    0    0 -0.24844487888E+02  0.27734824781E+01  0.34103084233E+01  0.25230358440E+02  0.00000000000E+00 0. -1.
</event>
<event>
 7    1  0.5041278E-013  0.5052886E+02  0.7816164E-02  0.1300439E+00
        -11   -1    0    0    0    0  0.00000000000E+00  0.00000000000E+00  0.45593999997E+02  0.45594000000E+02  0.51100000000E-03 0.  1.
         11   -1    0    0    0    0 -0.00000000000E+00 -0.00000000000E+00 -0.45593999997E+02  0.45594000000E+02  0.51100000000E-03 0. -1.
    9900012    2    1    2    0    0  0.81350194562E+01 -0.17035181137E+02 -0.36010970931E+02  0.50528856314E+02  0.29999989251E+02 0.  0.
        -12    1    1    2    0    0 -0.81350194562E+01  0.17035181137E+02  0.36010970931E+02  0.40659143686E+02  0.00000000000E+00 0.  1.
         11    1    3    3    0    0 -0.32595796497E+01  0.31996660367E+01 -0.49931113306E+00  0.45947833581E+01  0.51100000000E-03 0. -1.
        -11    1    3    3    0    0  0.73030901193E+01 -0.54421926938E+01 -0.23701625931E+01  0.94111772688E+01  0.51100000000E-03 0.  1.
         12    1    3    3    0    0  0.40915089866E+01 -0.14792654480E+02 -0.33141497205E+02  0.36522895687E+02  0.00000000000E+00 0. -1.
</event>
<event>
 7    1  0.5041278E-013  0.5052888E+02  0.7816164E-02  0.1300439E+00
        -11   -1    0    0    0    0  0.00000000000E+00  0.00000000000E+00  0.45593999997E+02  0.45594000000E+02  0.51100000000E-03 0. -1.
         11   -1    0    0    0    0 -0.00000000000E+00 -0.00000000000E+00 -0.45593999997E+02  0.45594000000E+02  0.51100000000E-03 0.  1.
    9900012    2    1    2    0    0 -0.33189189230E+02  0.22342992702E+02  0.72410259473E+01  0.50528879726E+02  0.30000060417E+02 0.  0.
        -12    1    1    2    0    0  0.33189189230E+02 -0.22342992702E+02 -0.72410259473E+01  0.40659120274E+02  0.00000000000E+00 0.  1.
         11    1    3    3    0    0 -0.50555693072E+01  0.12869773490E+01  0.57793693703E+01  0.77856407762E+01  0.51100000000E-03 0.  1.
        -11    1    3    3    0    0 -0.21402938806E+02  0.25590592952E+02 -0.29758745668E+01  0.33493582473E+02  0.51100000000E-03 0. -1.
         12    1    3    3    0    0 -0.67306811170E+01 -0.45345775988E+01  0.44375311438E+01  0.92496564774E+01  0.00000000000E+00 0. -1.
</event>
<event>
 7    1  0.5041278E-013  0.5052885E+02  0.7816164E-02  0.1300439E+00
        -11   -1    0    0    0    0  0.00000000000E+00  0.00000000000E+00  0.45593999997E+02  0.45594000000E+02  0.51100000000E-03 0.  1.
         11   -1    0    0    0    0 -0.00000000000E+00 -0.00000000000E+00 -0.45593999997E+02  0.45594000000E+02  0.51100000000E-03 0. -1.
    9900012    2    1    2    0    0 -0.30654951277E+02  0.26705478747E+02  0.50803896843E+00  0.50528846830E+02  0.29999960426E+02 0.  0.
        -12    1    1    2    0    0  0.30654951277E+02 -0.26705478747E+02 -0.50803896843E+00  0.40659153170E+02  0.00000000000E+00 0.  1.
         11    1    3    3    0    0  0.98580330016E+00  0.71776573669E+01 -0.63193302171E+01  0.96137665916E+01  0.51100000000E-03 0.  1.
        -11    1    3    3    0    0 -0.10512192476E+02  0.13739105364E+02 -0.17518970548E+01  0.17387879411E+02  0.51100000000E-03 0. -1.
         12    1    3    3    0    0 -0.21128562101E+02  0.57887160154E+01  0.85792662403E+01  0.23527200828E+02  0.00000000000E+00 0. -1.
</event>
<event>
 7    1  0.5041278E-013  0.5052886E+02  0.7816164E-02  0.1300439E+00
        -11   -1    0    0    0    0  0.00000000000E+00  0.00000000000E+00  0.45593999997E+02  0.45594000000E+02  0.51100000000E-03 0.  1.
         11   -1    0    0    0    0 -0.00000000000E+00 -0.00000000000E+00 -0.45593999997E+02  0.45594000000E+02  0.51100000000E-03 0. -1.
    9900012    2    1    2    0    0  0.40604565969E+02 -0.67352128384E+00 -0.19952798530E+01  0.50528861419E+02  0.30000004769E+02 0.  0.
        -12    1    1    2    0    0 -0.40604565969E+02  0.67352128384E+00  0.19952798530E+01  0.40659138581E+02  0.00000000000E+00 0.  1.
         11    1    3    3    0    0  0.10070866602E+02  0.94940939048E+01 -0.67092826610E+01  0.15380983300E+02  0.51100000000E-03 0. -1.
        -11    1    3    3    0    0  0.21056342009E+01 -0.16313010003E+01  0.47728294756E+01  0.54657789752E+01  0.51100000000E-03 0.  1.
         12    1    3    3    0    0  0.28428065166E+02 -0.85363141883E+01 -0.58826667621E-01  0.29682099144E+02  0.00000000000E+00 0. -1.
</event>
<event>
 7    1  0.5041278E-013  0.5052886E+02  0.7816164E-02  0.1300439E+00
        -11   -1    0    0    0    0  0.00000000000E+00  0.00000000000E+00  0.45593999997E+02  0.45594000000E+02  0.51100000000E-03 0.  1.
         11   -1    0    0    0    0 -0.00000000000E+00 -0.00000000000E+00 -0.45593999997E+02  0.45594000000E+02  0.51100000000E-03 0. -1.
    9900012    2    1    2    0    0  0.15495576969E+02  0.19085835632E+02 -0.32384929541E+02  0.50528859715E+02  0.29999999590E+02 0.  0.
        -12    1    1    2    0    0 -0.15495576969E+02 -0.19085835632E+02  0.32384929541E+02  0.40659140285E+02  0.00000000000E+00 0.  1.
         11    1    3    3    0    0  0.19778465989E+01  0.27115884131E+00 -0.13985081687E+02  0.14126850829E+02  0.51100000000E-03 0. -1.
        -11    1    3    3    0    0 -0.39282800922E+01  0.92570088446E+01 -0.11663094624E+02  0.15399719923E+02  0.51100000000E-03 0.  1.
        -12    1    3    3    0    0  0.17446010462E+02  0.95576679458E+01 -0.67367532288E+01  0.21002288963E+02  0.00000000000E+00 0.  1.
</event>
<event>
 7    1  0.5041278E-013  0.5052886E+02  0.7816164E-02  0.1300439E+00
        -11   -1    0    0    0    0  0.00000000000E+00  0.00000000000E+00  0.45593999997E+02  0.45594000000E+02  0.51100000000E-03 0.  1.
         11   -1    0    0    0    0 -0.00000000000E+00 -0.00000000000E+00 -0.45593999997E+02  0.45594000000E+02  0.51100000000E-03 0. -1.
    9900012    2    1    2    0    0  0.82729321045E+00  0.99212104231E+01 -0.39421452412E+02  0.50528859077E+02  0.29999997649E+02 0.  0.
        -12    1    1    2    0    0 -0.82729321045E+00 -0.99212104231E+01  0.39421452412E+02  0.40659140923E+02  0.00000000000E+00 0.  1.
         11    1    3    3    0    0  0.15085596622E+01  0.80012576834E+01 -0.12527042185E+02  0.14940637970E+02  0.51100000000E-03 0. -1.
        -11    1    3    3    0    0  0.51342852793E+01 -0.54362844557E+00 -0.28587014997E+02  0.29049506776E+02  0.51100000000E-03 0.  1.
        -12    1    3    3    0    0 -0.58155517310E+01  0.24635811853E+01  0.16926047700E+01  0.65387143308E+01  0.00000000000E+00 0.  1.
</event>
<event>
 7    1  0.5041278E-013  0.5052889E+02  0.7816164E-02  0.1300439E+00
        -11   -1    0    0    0    0  0.00000000000E+00  0.00000000000E+00  0.45593999997E+02  0.45594000000E+02  0.51100000000E-03 0.  1.
         11   -1    0    0    0    0 -0.00000000000E+00 -0.00000000000E+00 -0.45593999997E+02  0.45594000000E+02  0.51100000000E-03 0. -1.
    9900012    2    1    2    0    0 -0.15205066860E+02  0.14763999244E+02 -0.34698606344E+02  0.50528892605E+02  0.30000099562E+02 0.  0.
        -12    1    1    2    0    0  0.15205066860E+02 -0.14763999244E+02  0.34698606344E+02  0.40659107395E+02  0.00000000000E+00 0.  1.
         11    1    3    3    0    0 -0.16053955676E+01 -0.28196194533E+01 -0.65720198798E+01  0.73293242766E+01  0.51100000000E-03 0. -1.
        -11    1    3    3    0    0  0.61009837194E+01  0.68258742531E+01 -0.33037551292E+01  0.97329008974E+01  0.51100000000E-03 0.  1.
         12    1    3    3    0    0 -0.19700655012E+02  0.10757744445E+02 -0.24822831335E+02  0.33466667431E+02  0.00000000000E+00 0. -1.
</event>
<event>
 7    1  0.5041278E-013  0.5052888E+02  0.7816164E-02  0.1300439E+00
        -11   -1    0    0    0    0  0.00000000000E+00  0.00000000000E+00  0.45593999997E+02  0.45594000000E+02  0.51100000000E-03 0.  1.
         11   -1    0    0    0    0 -0.00000000000E+00 -0.00000000000E+00 -0.45593999997E+02  0.45594000000E+02  0.51100000000E-03 0. -1.
    9900012    2    1    2    0    0  0.28029989953E+02  0.16702501193E+02 -0.24259232790E+02  0.50528877303E+02  0.30000053050E+02 0.  0.
        -12    1    1    2    0    0 -0.28029989953E+02 -0.16702501193E+02  0.24259232790E+02  0.40659122697E+02  0.00000000000E+00 0.  1.
         11    1    3    3    0    0  0.16874308048E+02  0.93972072129E+01 -0.21022747467E+02  0.28548304447E+02  0.51100000000E-03 0. -1.
        -11    1    3    3    0    0  0.57108954856E+01  0.12720012688E+02 -0.31812387715E+01  0.14301514969E+02  0.51100000000E-03 0.  1.
        -12    1    3    3    0    0  0.54447864202E+01 -0.54147187079E+01 -0.55246552401E-01  0.76790578868E+01  0.00000000000E+00 0.  1.
</event>
<event>
 7    1  0.5041278E-013  0.5052887E+02  0.7816164E-02  0.1300439E+00
        -11   -1    0    0    0    0  0.00000000000E+00  0.00000000000E+00  0.45593999997E+02  0.45594000000E+02  0.51100000000E-03 0. -1.
         11   -1    0    0    0    0 -0.00000000000E+00 -0.00000000000E+00 -0.45593999997E+02  0.45594000000E+02  0.51100000000E-03 0.  1.
    9900012    2    1    2    0    0 -0.48144747086E+01 -0.15198129393E+02  0.37403247758E+02  0.50528865152E+02  0.30000016116E+02 0.  0.
        -12    1    1    2    0    0  0.48144747086E+01  0.15198129393E+02 -0.37403247758E+02  0.40659134848E+02  0.00000000000E+00 0.  1.
         11    1    3    3    0    0 -0.55165024651E+01  0.50654495259E+01  0.31576391826E+01  0.81278080572E+01  0.51100000000E-03 0. -1.
        -11    1    3    3    0    0  0.86111874479E+00 -0.51594314282E+01  0.29177077478E+00  0.52389301008E+01  0.51100000000E-03 0.  1.
         12    1    3    3    0    0 -0.15909098829E+00 -0.15104147490E+02  0.33953837800E+02  0.37162126994E+02  0.00000000000E+00 0. -1.
</event>
<event>
 7    1  0.5041278E-013  0.5052897E+02  0.7816164E-02  0.1300438E+00
        -11   -1    0    0    0    0  0.00000000000E+00  0.00000000000E+00  0.45593999997E+02  0.45594000000E+02  0.51100000000E-03 0.  1.
         11   -1    0    0    0    0 -0.00000000000E+00 -0.00000000000E+00 -0.45593999997E+02  0.45594000000E+02  0.51100000000E-03 0. -1.
    9900012    2    1    2    0    0 -0.30881583262E+02 -0.10319143974E+02 -0.24351588488E+02  0.50528969281E+02  0.30000332624E+02 0.  0.
        -12    1    1    2    0    0  0.30881583262E+02  0.10319143974E+02  0.24351588488E+02  0.40659030719E+02  0.00000000000E+00 0.  1.
         11    1    3    3    0    0 -0.77161245279E+01 -0.17994173561E+02 -0.11305965899E+02  0.22608709053E+02  0.51100000000E-03 0.  1.
        -11    1    3    3    0    0 -0.97425640441E+01  0.37501675777E+01 -0.75984286815E+01  0.12911910382E+02  0.51100000000E-03 0. -1.
        -12    1    3    3    0    0 -0.13422894690E+02  0.39248620089E+01 -0.54471939077E+01  0.15008349846E+02  0.00000000000E+00 0.  1.
</event>
<event>
 7    1  0.5041278E-013  0.5052885E+02  0.7816164E-02  0.1300439E+00
        -11   -1    0    0    0    0  0.00000000000E+00  0.00000000000E+00  0.45593999997E+02  0.45594000000E+02  0.51100000000E-03 0.  1.
         11   -1    0    0    0    0 -0.00000000000E+00 -0.00000000000E+00 -0.45593999997E+02  0.45594000000E+02  0.51100000000E-03 0. -1.
    9900012    2    1    2    0    0  0.10068255562E+02 -0.20522722274E+02 -0.33624608009E+02  0.50528853878E+02  0.29999981848E+02 0.  0.
        -12    1    1    2    0    0 -0.10068255562E+02  0.20522722274E+02  0.33624608009E+02  0.40659146122E+02  0.00000000000E+00 0.  1.
         11    1    3    3    0    0  0.86331284555E+01 -0.13655702345E+02 -0.13423291760E+02  0.21004615574E+02  0.51100000000E-03 0. -1.
        -11    1    3    3    0    0  0.67463579636E+00 -0.88731508626E+01  0.30695359866E+00  0.89040530356E+01  0.51100000000E-03 0.  1.
         12    1    3    3    0    0  0.76049131008E+00  0.20061309342E+01 -0.20508269848E+02  0.20620185269E+02  0.00000000000E+00 0. -1.
</event>
<event>
 7    1  0.5041278E-013  0.5052886E+02  0.7816164E-02  0.1300439E+00
        -11   -1    0    0    0    0  0.00000000000E+00  0.00000000000E+00  0.45593999997E+02  0.45594000000E+02  0.51100000000E-03 0.  1.
         11   -1    0    0    0    0 -0.00000000000E+00 -0.00000000000E+00 -0.45593999997E+02  0.45594000000E+02  0.51100000000E-03 0. -1.
    9900012    2    1    2    0    0 -0.46388006659E+01  0.13384101344E+02 -0.38111847556E+02  0.50528861242E+02  0.30000004232E+02 0.  0.
        -12    1    1    2    0    0  0.46388006659E+01 -0.13384101344E+02  0.38111847556E+02  0.40659138758E+02  0.00000000000E+00 0.  1.
         11    1    3    3    0    0  0.15353477626E+01  0.66224200332E+01 -0.18689964284E+02  0.19887898457E+02  0.51100000000E-03 0. -1.
        -11    1    3    3    0    0 -0.98090640121E+01  0.12437244816E+02 -0.17560279551E+02  0.23648809982E+02  0.51100000000E-03 0.  1.
        -12    1    3    3    0    0  0.36349155836E+01 -0.56755635053E+01 -0.18616037208E+01  0.69921528026E+01  0.00000000000E+00 0.  1.
</event>
<event>
 7    1  0.5041278E-013  0.5052886E+02  0.7816164E-02  0.1300439E+00
        -11   -1    0    0    0    0  0.00000000000E+00  0.00000000000E+00  0.45593999997E+02  0.45594000000E+02  0.51100000000E-03 0.  1.
         11   -1    0    0    0    0 -0.00000000000E+00 -0.00000000000E+00 -0.45593999997E+02  0.45594000000E+02  0.51100000000E-03 0. -1.
    9900012    2    1    2    0    0 -0.19368787596E+02  0.92889130589E+00 -0.35737276878E+02  0.50528859199E+02  0.29999998022E+02 0.  0.
        -12    1    1    2    0    0  0.19368787596E+02 -0.92889130589E+00  0.35737276878E+02  0.40659140801E+02  0.00000000000E+00 0.  1.
         11    1    3    3    0    0 -0.86665548228E+01  0.44957251880E+01 -0.30935839231E+02  0.32439896218E+02  0.51100000000E-03 0. -1.
        -11    1    3    3    0    0 -0.90781657408E+01  0.31008902351E+01 -0.57139122897E+01  0.11165903787E+02  0.51100000000E-03 0.  1.
         12    1    3    3    0    0 -0.16240670323E+01 -0.66677241172E+01  0.91247464241E+00  0.69230591939E+01  0.00000000000E+00 0. -1.
</event>
<event>
 7    1  0.5041278E-013  0.5052886E+02  0.7816164E-02  0.1300439E+00
        -11   -1    0    0    0    0  0.00000000000E+00  0.00000000000E+00  0.45593999997E+02  0.45594000000E+02  0.51100000000E-03 0. -1.
         11   -1    0    0    0    0 -0.00000000000E+00 -0.00000000000E+00 -0.45593999997E+02  0.45594000000E+02  0.51100000000E-03 0.  1.
    9900012    2    1    2    0    0  0.30331422815E+02  0.26706590453E+02 -0.44641310044E+01  0.50528860200E+02  0.30000001065E+02 0.  0.
        -12    1    1    2    0    0 -0.30331422815E+02 -0.26706590453E+02  0.44641310044E+01  0.40659139800E+02  0.00000000000E+00 0.  1.
         11    1    3    3    0    0  0.43520787152E+01  0.22917567366E+01 -0.20167378562E+01  0.53160107153E+01  0.51100000000E-03 0. -1.
        -11    1    3    3    0    0  0.97003938709E+01 -0.27909997880E+01 -0.81826857039E+01  0.12993985788E+02  0.51100000000E-03 0.  1.
         12    1    3    3    0    0  0.16278950229E+02  0.27205833504E+02  0.57352925558E+01  0.32218863697E+02  0.00000000000E+00 0. -1.
</event>
<event>
 7    1  0.5041278E-013  0.5052887E+02  0.7816164E-02  0.1300439E+00
        -11   -1    0    0    0    0  0.00000000000E+00  0.00000000000E+00  0.45593999997E+02  0.45594000000E+02  0.51100000000E-03 0.  1.
         11   -1    0    0    0    0 -0.00000000000E+00 -0.00000000000E+00 -0.45593999997E+02  0.45594000000E+02  0.51100000000E-03 0. -1.
    9900012    2    1    2    0    0 -0.57384905434E+01 -0.13848718507E+02 -0.37794811273E+02  0.50528867728E+02  0.30000023945E+02 0.  0.
        -12    1    1    2    0    0  0.57384905434E+01  0.13848718507E+02  0.37794811273E+02  0.40659132272E+02  0.00000000000E+00 0.  1.
         11    1    3    3    0    0  0.31527593613E+01 -0.47324605735E+01 -0.99674070482E+00  0.57731765055E+01  0.51100000000E-03 0. -1.
        -11    1    3    3    0    0 -0.85171903377E+01 -0.20449650381E+01 -0.16649761887E+01  0.89160842989E+01  0.51100000000E-03 0.  1.
         12    1    3    3    0    0 -0.37405956698E+00 -0.70712928955E+01 -0.35133094379E+02  0.35839606923E+02  0.00000000000E+00 0. -1.
</event>
<event>
 7    1  0.5041278E-013  0.5052878E+02  0.7816164E-02  0.1300439E+00
        -11   -1    0    0    0    0  0.00000000000E+00  0.00000000000E+00  0.45593999997E+02  0.45594000000E+02  0.51100000000E-03 0.  1.
         11   -1    0    0    0    0 -0.00000000000E+00 -0.00000000000E+00 -0.45593999997E+02  0.45594000000E+02  0.51100000000E-03 0. -1.
    9900012    2    1    2    0    0 -0.30046150497E+02  0.24014004742E+02 -0.13180626013E+02  0.50528776132E+02  0.29999745531E+02 0.  0.
        -12    1    1    2    0    0  0.30046150497E+02 -0.24014004742E+02  0.13180626013E+02  0.40659223868E+02  0.00000000000E+00 0.  1.
         11    1    3    3    0    0 -0.10026561459E+02  0.11599456307E+02  0.27489104558E+01  0.15576772139E+02  0.51100000000E-03 0. -1.
        -11    1    3    3    0    0 -0.14960956095E+02 -0.68328289931E+00 -0.18884548851E+01  0.15095143090E+02  0.51100000000E-03 0.  1.
         12    1    3    3    0    0 -0.50586329435E+01  0.13097831334E+02 -0.14041081583E+02  0.19856860903E+02  0.00000000000E+00 0. -1.
</event>
<event>
 7    1  0.5041278E-013  0.5052886E+02  0.7816164E-02  0.1300439E+00
        -11   -1    0    0    0    0  0.00000000000E+00  0.00000000000E+00  0.45593999997E+02  0.45594000000E+02  0.51100000000E-03 0.  1.
         11   -1    0    0    0    0 -0.00000000000E+00 -0.00000000000E+00 -0.45593999997E+02  0.45594000000E+02  0.51100000000E-03 0. -1.
    9900012    2    1    2    0    0 -0.17628525464E+02  0.43397600600E+00 -0.36636220234E+02  0.50528857384E+02  0.29999992505E+02 0.  0.
        -12    1    1    2    0    0  0.17628525464E+02 -0.43397600600E+00  0.36636220234E+02  0.40659142616E+02  0.00000000000E+00 0.  1.
         11    1    3    3    0    0 -0.10916780937E+02  0.20742412733E+00 -0.11248265933E+02  0.15676179942E+02  0.51100000000E-03 0. -1.
        -11    1    3    3    0    0 -0.17921822033E+01 -0.65260531348E+01 -0.25616021079E+02  0.26494939568E+02  0.51100000000E-03 0.  1.
         12    1    3    3    0    0 -0.49195623233E+01  0.67526050134E+01  0.22806677772E+00  0.83577378743E+01  0.00000000000E+00 0. -1.
</event>
<event>
 7    1  0.5041278E-013  0.5052885E+02  0.7816164E-02  0.1300439E+00
        -11   -1    0    0    0    0  0.00000000000E+00  0.00000000000E+00  0.45593999997E+02  0.45594000000E+02  0.51100000000E-03 0.  1.
         11   -1    0    0    0    0 -0.00000000000E+00 -0.00000000000E+00 -0.45593999997E+02  0.45594000000E+02  0.51100000000E-03 0. -1.
    9900012    2    1    2    0    0 -0.20770676718E+02 -0.31830824169E+02  0.14441059794E+02  0.50528848674E+02  0.29999966028E+02 0.  0.
        -12    1    1    2    0    0  0.20770676718E+02  0.31830824169E+02 -0.14441059794E+02  0.40659151326E+02  0.00000000000E+00 0.  1.
         11    1    3    3    0    0 -0.14689783692E+02 -0.15932041140E+02 -0.36911234952E+00  0.21673853464E+02  0.51100000000E-03 0. -1.
        -11    1    3    3    0    0 -0.90361829774E+01 -0.48127770918E+00  0.59345419896E+01  0.10821414876E+02  0.51100000000E-03 0.  1.
        -12    1    3    3    0    0  0.29552899517E+01 -0.15417505320E+02  0.88756301543E+01  0.18033580333E+02  0.00000000000E+00 0.  1.
</event>
<event>
 7    1  0.5041278E-013  0.5052885E+02  0.7816164E-02  0.1300439E+00
        -11   -1    0    0    0    0  0.00000000000E+00  0.00000000000E+00  0.45593999997E+02  0.45594000000E+02  0.51100000000E-03 0.  1.
         11   -1    0    0    0    0 -0.00000000000E+00 -0.00000000000E+00 -0.45593999997E+02  0.45594000000E+02  0.51100000000E-03 0. -1.
    9900012    2    1    2    0    0  0.14727901759E+02 -0.22286508765E+02 -0.30652356218E+02  0.50528849678E+02  0.29999969082E+02 0.  0.
        -12    1    1    2    0    0 -0.14727901759E+02  0.22286508765E+02  0.30652356218E+02  0.40659150322E+02  0.00000000000E+00 0.  1.
         11    1    3    3    0    0  0.15952948915E+02 -0.13529684330E+02 -0.21221470321E+02  0.29797646551E+02  0.51100000000E-03 0. -1.
        -11    1    3    3    0    0  0.41189216157E+01  0.27471139792E+01 -0.44150883225E-01  0.49511715839E+01  0.51100000000E-03 0.  1.
         12    1    3    3    0    0 -0.53439687715E+01 -0.11503938415E+02 -0.93867350137E+01  0.15780031543E+02  0.00000000000E+00 0. -1.
</event>
<event>
 7    1  0.5041278E-013  0.5052886E+02  0.7816164E-02  0.1300439E+00
        -11   -1    0    0    0    0  0.00000000000E+00  0.00000000000E+00  0.45593999997E+02  0.45594000000E+02  0.51100000000E-03 0. -1.
         11   -1    0    0    0    0 -0.00000000000E+00 -0.00000000000E+00 -0.45593999997E+02  0.45594000000E+02  0.51100000000E-03 0.  1.
    9900012    2    1    2    0    0 -0.19312830646E+02 -0.28652238095E+02  0.21429646441E+02  0.50528856846E+02  0.29999990871E+02 0.  0.
        -12    1    1    2    0    0  0.19312830646E+02  0.28652238095E+02 -0.21429646441E+02  0.40659143154E+02  0.00000000000E+00 0.  1.
         11    1    3    3    0    0 -0.12218912936E+02 -0.23370168158E+02  0.12303146585E+02  0.29100412526E+02  0.51100000000E-03 0. -1.
        -11    1    3    3    0    0 -0.11147949471E+01 -0.10484077263E+02  0.19200330429E+01  0.10716583923E+02  0.51100000000E-03 0.  1.
        -12    1    3    3    0    0 -0.59791227631E+01  0.52020073261E+01  0.72064668131E+01  0.10711860397E+02  0.00000000000E+00 0.  1.
</event>
<event>
 7    1  0.5041278E-013  0.5052873E+02  0.7816164E-02  0.1300439E+00
        -11   -1    0    0    0    0  0.00000000000E+00  0.00000000000E+00  0.45593999997E+02  0.45594000000E+02  0.51100000000E-03 0.  1.
         11   -1    0    0    0    0 -0.00000000000E+00 -0.00000000000E+00 -0.45593999997E+02  0.45594000000E+02  0.51100000000E-03 0. -1.
    9900012    2    1    2    0    0  0.22769939164E+02 -0.33672114396E+02  0.94603290827E+00  0.50528728048E+02  0.29999599371E+02 0.  0.
        -12    1    1    2    0    0 -0.22769939164E+02  0.33672114396E+02 -0.94603290827E+00  0.40659271952E+02  0.00000000000E+00 0.  1.
         11    1    3    3    0    0 -0.10277275535E+01 -0.50279759452E+01 -0.13921884326E+01  0.53174199499E+01  0.51100000000E-03 0. -1.
        -11    1    3    3    0    0  0.15252407401E+02 -0.30740951918E+02  0.73361052139E+01  0.35092171439E+02  0.51100000000E-03 0.  1.
        -12    1    3    3    0    0  0.85452593165E+01  0.20968134671E+01 -0.49978838730E+01  0.10119136658E+02  0.00000000000E+00 0.  1.
</event>
<event>
 7    1  0.5041278E-013  0.5052886E+02  0.7816164E-02  0.1300439E+00
        -11   -1    0    0    0    0  0.00000000000E+00  0.00000000000E+00  0.45593999997E+02  0.45594000000E+02  0.51100000000E-03 0. -1.
         11   -1    0    0    0    0 -0.00000000000E+00 -0.00000000000E+00 -0.45593999997E+02  0.45594000000E+02  0.51100000000E-03 0.  1.
    9900012    2    1    2    0    0 -0.32461230374E+01 -0.97576469010E+01  0.39337216143E+02  0.50528861277E+02  0.30000004338E+02 0.  0.
        -12    1    1    2    0    0  0.32461230374E+01  0.97576469010E+01 -0.39337216143E+02  0.40659138723E+02  0.00000000000E+00 0.  1.
         11    1    3    3    0    0 -0.60060982954E+01  0.57445463918E+01  0.12452499817E+01  0.84037894880E+01  0.51100000000E-03 0.  1.
        -11    1    3    3    0    0  0.43427619213E+01 -0.28962124153E+01  0.95601076491E+01  0.10892349883E+02  0.51100000000E-03 0. -1.
        -12    1    3    3    0    0 -0.15827866633E+01 -0.12605980878E+02  0.28531858512E+02  0.31232721906E+02  0.00000000000E+00 0.  1.
</event>
<event>
 7    1  0.5041278E-013  0.5052885E+02  0.7816164E-02  0.1300439E+00
        -11   -1    0    0    0    0  0.00000000000E+00  0.00000000000E+00  0.45593999997E+02  0.45594000000E+02  0.51100000000E-03 0.  1.
         11   -1    0    0    0    0 -0.00000000000E+00 -0.00000000000E+00 -0.45593999997E+02  0.45594000000E+02  0.51100000000E-03 0. -1.
    9900012    2    1    2    0    0 -0.14458235922E+02  0.18148595587E+02 -0.33387937676E+02  0.50528849861E+02  0.29999969639E+02 0.  0.
        -12    1    1    2    0    0  0.14458235922E+02 -0.18148595587E+02  0.33387937676E+02  0.40659150139E+02  0.00000000000E+00 0.  1.
         11    1    3    3    0    0 -0.95020006683E+01  0.83833510157E+01 -0.91696540015E+01  0.15641328132E+02  0.51100000000E-03 0. -1.
        -11    1    3    3    0    0 -0.19572369598E+00  0.46160913288E+01  0.38141979185E+01  0.59912196541E+01  0.51100000000E-03 0.  1.
         12    1    3    3    0    0 -0.47605115576E+01  0.51491532426E+01 -0.28032481593E+02  0.28896302076E+02  0.00000000000E+00 0. -1.
</event>
<event>
 7    1  0.5041278E-013  0.5052884E+02  0.7816164E-02  0.1300439E+00
        -11   -1    0    0    0    0  0.00000000000E+00  0.00000000000E+00  0.45593999997E+02  0.45594000000E+02  0.51100000000E-03 0.  1.
         11   -1    0    0    0    0 -0.00000000000E+00 -0.00000000000E+00 -0.45593999997E+02  0.45594000000E+02  0.51100000000E-03 0. -1.
    9900012    2    1    2    0    0  0.83692492751E+01 -0.39376030995E+02 -0.57141086166E+01  0.50528841282E+02  0.29999943562E+02 0.  0.
        -12    1    1    2    0    0 -0.83692492751E+01  0.39376030995E+02  0.57141086166E+01  0.40659158718E+02  0.00000000000E+00 0.  1.
         11    1    3    3    0    0  0.16005933574E+02 -0.19887052426E+02 -0.37561239687E+01  0.25802969428E+02  0.51100000000E-03 0. -1.
        -11    1    3    3    0    0 -0.60806506986E+00 -0.52539704359E+01 -0.63400496718E+01  0.82565233950E+01  0.51100000000E-03 0.  1.
        -12    1    3    3    0    0 -0.70286192287E+01 -0.14235008133E+02  0.43820650238E+01  0.16469348459E+02  0.00000000000E+00 0.  1.
</event>
<event>
 7    1  0.5345806E-013  0.5052894E+02  0.7816164E-02  0.1300438E+00
        -11   -1    0    0    0    0  0.00000000000E+00  0.00000000000E+00  0.45593999997E+02  0.45594000000E+02  0.51100000000E-03 0. -1.
         11   -1    0    0    0    0 -0.00000000000E+00 -0.00000000000E+00 -0.45593999997E+02  0.45594000000E+02  0.51100000000E-03 0.  1.
    9900012    2    1    2    0    0  0.14840308212E+02 -0.13596250650E+02  0.35327978670E+02  0.50528943734E+02  0.30000254972E+02 0.  0.
        -12    1    1    2    0    0 -0.14840308212E+02  0.13596250650E+02 -0.35327978670E+02  0.40659056266E+02  0.00000000000E+00 0.  1.
         11    1    3    3    0    0  0.12554677591E+02 -0.76733047126E+01  0.12940209318E+02  0.19594605178E+02  0.51100000000E-03 0. -1.
        -11    1    3    3    0    0  0.24989468885E+01 -0.10700545138E+02  0.36238933134E+01  0.11570609526E+02  0.51100000000E-03 0.  1.
        -12    1    3    3    0    0 -0.21331626777E+00  0.47775992001E+01  0.18763876039E+02  0.19363729030E+02  0.00000000000E+00 0.  1.
</event>
<event>
 7    1  0.5041278E-013  0.5052886E+02  0.7816164E-02  0.1300439E+00
        -11   -1    0    0    0    0  0.00000000000E+00  0.00000000000E+00  0.45593999997E+02  0.45594000000E+02  0.51100000000E-03 0.  1.
         11   -1    0    0    0    0 -0.00000000000E+00 -0.00000000000E+00 -0.45593999997E+02  0.45594000000E+02  0.51100000000E-03 0. -1.
    9900012    2    1    2    0    0  0.14128622991E+01  0.29877756499E+02 -0.27540682853E+02  0.50528859265E+02  0.29999998222E+02 0.  0.
        -12    1    1    2    0    0 -0.14128622991E+01 -0.29877756499E+02  0.27540682853E+02  0.40659140735E+02  0.00000000000E+00 0.  1.
         11    1    3    3    0    0  0.55068272689E+01  0.14696564134E+02 -0.13326108789E+02  0.20588815401E+02  0.51100000000E-03 0. -1.
        -11    1    3    3    0    0  0.26899933935E+00  0.52234189788E+01  0.53976948974E+01  0.75160878746E+01  0.51100000000E-03 0.  1.
         12    1    3    3    0    0 -0.43629643091E+01  0.99577733865E+01 -0.19612268961E+02  0.22423955989E+02  0.00000000000E+00 0. -1.
</event>
<event>
 7    1  0.5041278E-013  0.5052887E+02  0.7816164E-02  0.1300439E+00
        -11   -1    0    0    0    0  0.00000000000E+00  0.00000000000E+00  0.45593999997E+02  0.45594000000E+02  0.51100000000E-03 0. -1.
         11   -1    0    0    0    0 -0.00000000000E+00 -0.00000000000E+00 -0.45593999997E+02  0.45594000000E+02  0.51100000000E-03 0.  1.
    9900012    2    1    2    0    0  0.75404554343E+01 -0.12886176876E+02  0.37818686167E+02  0.50528867618E+02  0.30000023612E+02 0.  0.
        -12    1    1    2    0    0 -0.75404554343E+01  0.12886176876E+02 -0.37818686167E+02  0.40659132382E+02  0.00000000000E+00 0.  1.
         11    1    3    3    0    0 -0.26148472222E+01 -0.37001311945E+01  0.24666205749E+02  0.25078877630E+02  0.51100000000E-03 0. -1.
        -11    1    3    3    0    0  0.10323884132E+02 -0.98362600994E+01  0.16631013758E+02  0.21907195512E+02  0.51100000000E-03 0.  1.
         12    1    3    3    0    0 -0.16858147538E+00  0.65021441823E+00 -0.34785333401E+01  0.35427944763E+01  0.00000000000E+00 0. -1.
</event>
<event>
 7    1  0.5041278E-013  0.5052887E+02  0.7816164E-02  0.1300439E+00
        -11   -1    0    0    0    0  0.00000000000E+00  0.00000000000E+00  0.45593999997E+02  0.45594000000E+02  0.51100000000E-03 0. -1.
         11   -1    0    0    0    0 -0.00000000000E+00 -0.00000000000E+00 -0.45593999997E+02  0.45594000000E+02  0.51100000000E-03 0.  1.
    9900012    2    1    2    0    0 -0.38255203898E+02 -0.12025041934E+01  0.13720724140E+02  0.50528869260E+02  0.30000028603E+02 0.  0.
        -12    1    1    2    0    0  0.38255203898E+02  0.12025041934E+01 -0.13720724140E+02  0.40659130740E+02  0.00000000000E+00 0.  1.
         11    1    3    3    0    0 -0.18933840828E+02 -0.27071681925E+01 -0.51516015694E+01  0.19808030874E+02  0.51100000000E-03 0. -1.
        -11    1    3    3    0    0 -0.18500629663E+02  0.28415006194E+01  0.90800633435E+01  0.20803725010E+02  0.51100000000E-03 0.  1.
         12    1    3    3    0    0 -0.82073340709E+00 -0.13368366203E+01  0.97922623659E+01  0.99171133763E+01  0.00000000000E+00 0. -1.
</event>
<event>
 7    1  0.5041278E-013  0.5052885E+02  0.7816164E-02  0.1300439E+00
        -11   -1    0    0    0    0  0.00000000000E+00  0.00000000000E+00  0.45593999997E+02  0.45594000000E+02  0.51100000000E-03 0. -1.
         11   -1    0    0    0    0 -0.00000000000E+00 -0.00000000000E+00 -0.45593999997E+02  0.45594000000E+02  0.51100000000E-03 0.  1.
    9900012    2    1    2    0    0 -0.38251808946E+02 -0.77276070475E+01  0.11412686623E+02  0.50528853252E+02  0.29999979945E+02 0.  0.
        -12    1    1    2    0    0  0.38251808946E+02  0.77276070475E+01 -0.11412686623E+02  0.40659146748E+02  0.00000000000E+00 0.  1.
         11    1    3    3    0    0 -0.33956164700E+01  0.64938790298E-01  0.55715658403E+01  0.65250880785E+01  0.51100000000E-03 0. -1.
        -11    1    3    3    0    0 -0.14081686295E+02  0.17068141285E+01  0.13822952483E+02  0.19806087927E+02  0.51100000000E-03 0.  1.
        -12    1    3    3    0    0 -0.20774506181E+02 -0.94993599662E+01 -0.79818316998E+01  0.24197677247E+02  0.00000000000E+00 0.  1.
</event>
<event>
 7    1  0.5041278E-013  0.5052886E+02  0.7816164E-02  0.1300439E+00
        -11   -1    0    0    0    0  0.00000000000E+00  0.00000000000E+00  0.45593999997E+02  0.45594000000E+02  0.51100000000E-03 0. -1.
         11   -1    0    0    0    0 -0.00000000000E+00 -0.00000000000E+00 -0.45593999997E+02  0.45594000000E+02  0.51100000000E-03 0.  1.
    9900012    2    1    2    0    0  0.23452072960E+02  0.24353513219E+02  0.22584788324E+02  0.50528855937E+02  0.29999988107E+02 0.  0.
        -12    1    1    2    0    0 -0.23452072960E+02 -0.24353513219E+02 -0.22584788324E+02  0.40659144063E+02  0.00000000000E+00 0.  1.
         11    1    3    3    0    0 -0.13330903914E+01 -0.51755166094E+01  0.40113348415E+01  0.66823580896E+01  0.51100000000E-03 0.  1.
        -11    1    3    3    0    0  0.14328483807E+02  0.10425711596E+02  0.60495851951E+01  0.18724272798E+02  0.51100000000E-03 0. -1.
        -12    1    3    3    0    0  0.10456679544E+02  0.19103318232E+02  0.12523868288E+02  0.25122225050E+02  0.00000000000E+00 0.  1.
</event>
<event>
 7    1  0.5041278E-013  0.5052889E+02  0.7816164E-02  0.1300439E+00
        -11   -1    0    0    0    0  0.00000000000E+00  0.00000000000E+00  0.45593999997E+02  0.45594000000E+02  0.51100000000E-03 0.  1.
         11   -1    0    0    0    0 -0.00000000000E+00 -0.00000000000E+00 -0.45593999997E+02  0.45594000000E+02  0.51100000000E-03 0. -1.
    9900012    2    1    2    0    0 -0.13738663119E+01  0.20606538295E+02 -0.35023507690E+02  0.50528892532E+02  0.30000099341E+02 0.  0.
        -12    1    1    2    0    0  0.13738663119E+01 -0.20606538295E+02  0.35023507690E+02  0.40659107468E+02  0.00000000000E+00 0.  1.
         11    1    3    3    0    0  0.57913513251E+01  0.19625088974E+02 -0.23166824005E+02  0.30909312547E+02  0.51100000000E-03 0. -1.
        -11    1    3    3    0    0 -0.77073222725E+01  0.65023019810E+01 -0.75806407628E+01  0.12615421606E+02  0.51100000000E-03 0.  1.
        -12    1    3    3    0    0  0.54210463552E+00 -0.55208526598E+01 -0.42760429220E+01  0.70041583790E+01  0.00000000000E+00 0.  1.
</event>
<event>
 7    1  0.5041278E-013  0.5052886E+02  0.7816164E-02  0.1300439E+00
        -11   -1    0    0    0    0  0.00000000000E+00  0.00000000000E+00  0.45593999997E+02  0.45594000000E+02  0.51100000000E-03 0.  1.
         11   -1    0    0    0    0 -0.00000000000E+00 -0.00000000000E+00 -0.45593999997E+02  0.45594000000E+02  0.51100000000E-03 0. -1.
    9900012    2    1    2    0    0 -0.30184369327E+01  0.35046068132E+02 -0.20391849520E+02  0.50528863513E+02  0.30000011133E+02 0.  0.
        -12    1    1    2    0    0  0.30184369327E+01 -0.35046068132E+02  0.20391849520E+02  0.40659136487E+02  0.00000000000E+00 0.  1.
         11    1    3    3    0    0 -0.42670927049E+01  0.16340518710E+02  0.38770873813E+01  0.17327793820E+02  0.51100000000E-03 0. -1.
        -11    1    3    3    0    0 -0.36642772521E+01  0.24239363194E+01 -0.10282569463E+02  0.11181843769E+02  0.51100000000E-03 0.  1.
        -12    1    3    3    0    0  0.49129330244E+01  0.16281613103E+02 -0.13986367438E+02  0.22019225923E+02  0.00000000000E+00 0.  1.
</event>
<event>
 7    1  0.5041278E-013  0.5052886E+02  0.7816164E-02  0.1300439E+00
        -11   -1    0    0    0    0  0.00000000000E+00  0.00000000000E+00  0.45593999997E+02  0.45594000000E+02  0.51100000000E-03 0. -1.
         11   -1    0    0    0    0 -0.00000000000E+00 -0.00000000000E+00 -0.45593999997E+02  0.45594000000E+02  0.51100000000E-03 0.  1.
    9900012    2    1    2    0    0 -0.26616977198E+02  0.20191808573E+02  0.23173106505E+02  0.50528862359E+02  0.30000007626E+02 0.  0.
        -12    1    1    2    0    0  0.26616977198E+02 -0.20191808573E+02 -0.23173106505E+02  0.40659137641E+02  0.00000000000E+00 0.  1.
         11    1    3    3    0    0 -0.66454904145E+01  0.91313166776E+01  0.13893020058E+02  0.17904175315E+02  0.51100000000E-03 0. -1.
        -11    1    3    3    0    0 -0.13909174952E+02 -0.44334339775E+01  0.51674170841E+01  0.15486209487E+02  0.51100000000E-03 0.  1.
         12    1    3    3    0    0 -0.60623118313E+01  0.15493925873E+02  0.41126693632E+01  0.17138477557E+02  0.00000000000E+00 0. -1.
</event>
<event>
 7    1  0.5041278E-013  0.5052885E+02  0.7816164E-02  0.1300439E+00
        -11   -1    0    0    0    0  0.00000000000E+00  0.00000000000E+00  0.45593999997E+02  0.45594000000E+02  0.51100000000E-03 0. -1.
         11   -1    0    0    0    0 -0.00000000000E+00 -0.00000000000E+00 -0.45593999997E+02  0.45594000000E+02  0.51100000000E-03 0.  1.
    9900012    2    1    2    0    0 -0.32357011020E+01  0.39930739923E+02  0.69450004510E+01  0.50528846250E+02  0.29999958661E+02 0.  0.
        -12    1    1    2    0    0  0.32357011020E+01 -0.39930739923E+02 -0.69450004510E+01  0.40659153750E+02  0.00000000000E+00 0.  1.
         11    1    3    3    0    0 -0.15642891705E+01  0.76960381473E+01 -0.95564096115E+01  0.12369356034E+02  0.51100000000E-03 0. -1.
        -11    1    3    3    0    0 -0.12113486563E+01  0.13524304551E+02  0.58547283937E+00  0.13591061690E+02  0.51100000000E-03 0.  1.
         12    1    3    3    0    0 -0.46006327523E+00  0.18710397224E+02  0.15915937223E+02  0.24568428525E+02  0.00000000000E+00 0. -1.
</event>
<event>
 7    1  0.5041278E-013  0.5052886E+02  0.7816164E-02  0.1300439E+00
        -11   -1    0    0    0    0  0.00000000000E+00  0.00000000000E+00  0.45593999997E+02  0.45594000000E+02  0.51100000000E-03 0. -1.
         11   -1    0    0    0    0 -0.00000000000E+00 -0.00000000000E+00 -0.45593999997E+02  0.45594000000E+02  0.51100000000E-03 0.  1.
    9900012    2    1    2    0    0 -0.31141424447E+02 -0.16793408029E+02  0.20033941940E+02  0.50528859583E+02  0.29999999187E+02 0.  0.
        -12    1    1    2    0    0  0.31141424447E+02  0.16793408029E+02 -0.20033941940E+02  0.40659140417E+02  0.00000000000E+00 0.  1.
         11    1    3    3    0    0 -0.11226646105E+02  0.34121772650E+01 -0.30486138414E+01  0.12123307431E+02  0.51100000000E-03 0. -1.
        -11    1    3    3    0    0  0.15858337367E+01 -0.10779940906E+01  0.14491318689E+01  0.24035231087E+01  0.51100000000E-03 0.  1.
         12    1    3    3    0    0 -0.21500612079E+02 -0.19127591204E+02  0.21633423912E+02  0.36002029043E+02  0.00000000000E+00 0. -1.
</event>
<event>
 7    1  0.5041278E-013  0.5052886E+02  0.7816164E-02  0.1300439E+00
        -11   -1    0    0    0    0  0.00000000000E+00  0.00000000000E+00  0.45593999997E+02  0.45594000000E+02  0.51100000000E-03 0.  1.
         11   -1    0    0    0    0 -0.00000000000E+00 -0.00000000000E+00 -0.45593999997E+02  0.45594000000E+02  0.51100000000E-03 0. -1.
    9900012    2    1    2    0    0  0.24075947466E+02 -0.29323177229E+02 -0.14617311756E+02  0.50528858689E+02  0.29999996470E+02 0.  0.
        -12    1    1    2    0    0 -0.24075947466E+02  0.29323177229E+02  0.14617311756E+02  0.40659141311E+02  0.00000000000E+00 0.  1.
         11    1    3    3    0    0  0.43746447494E+01 -0.56511789499E+01 -0.10021658088E+02  0.12308816811E+02  0.51100000000E-03 0.  1.
        -11    1    3    3    0    0  0.10363657340E+02 -0.26205355584E+02 -0.45469631058E+01  0.28544718049E+02  0.51100000000E-03 0. -1.
        -12    1    3    3    0    0  0.93376453770E+01  0.25333573045E+01 -0.48690562242E-01  0.96753238287E+01  0.00000000000E+00 0.  1.
</event>
<event>
 7    1  0.5041278E-013  0.5052879E+02  0.7816164E-02  0.1300439E+00
        -11   -1    0    0    0    0  0.00000000000E+00  0.00000000000E+00  0.45593999997E+02  0.45594000000E+02  0.51100000000E-03 0.  1.
         11   -1    0    0    0    0 -0.00000000000E+00 -0.00000000000E+00 -0.45593999997E+02  0.45594000000E+02  0.51100000000E-03 0. -1.
    9900012    2    1    2    0    0  0.36239411540E+02  0.14220922330E+02 -0.11732077124E+02  0.50528791765E+02  0.29999793048E+02 0.  0.
        -12    1    1    2    0    0 -0.36239411540E+02 -0.14220922330E+02  0.11732077124E+02  0.40659208235E+02  0.00000000000E+00 0.  1.
         11    1    3    3    0    0  0.15932764618E+02  0.56802540317E+01  0.77200439192E+00  0.16932639052E+02  0.51100000000E-03 0. -1.
        -11    1    3    3    0    0  0.13833740108E+02  0.13245180255E+02 -0.15911000629E+02  0.24899138673E+02  0.51100000000E-03 0.  1.
        -12    1    3    3    0    0  0.64729068141E+01 -0.47045119565E+01  0.34069191135E+01  0.86970140404E+01  0.00000000000E+00 0.  1.
</event>
<event>
 7    1  0.5041278E-013  0.5052887E+02  0.7816164E-02  0.1300439E+00
        -11   -1    0    0    0    0  0.00000000000E+00  0.00000000000E+00  0.45593999997E+02  0.45594000000E+02  0.51100000000E-03 0. -1.
         11   -1    0    0    0    0 -0.00000000000E+00 -0.00000000000E+00 -0.45593999997E+02  0.45594000000E+02  0.51100000000E-03 0.  1.
    9900012    2    1    2    0    0 -0.31099310609E+02  0.18548459133E+02  0.18491958270E+02  0.50528868465E+02  0.30000026186E+02 0.  0.
        -12    1    1    2    0    0  0.31099310609E+02 -0.18548459133E+02 -0.18491958270E+02  0.40659131535E+02  0.00000000000E+00 0.  1.
         11    1    3    3    0    0 -0.97312413306E+01  0.42567894799E+01  0.14702580383E+02  0.18137893612E+02  0.51100000000E-03 0. -1.
        -11    1    3    3    0    0 -0.18880944183E+02  0.29414923240E+01  0.69763395074E+01  0.20342363273E+02  0.51100000000E-03 0.  1.
        -12    1    3    3    0    0 -0.24871250951E+01  0.11350177329E+02 -0.31869616205E+01  0.12048611580E+02  0.00000000000E+00 0.  1.
</event>
<event>
 7    1  0.5041278E-013  0.5052886E+02  0.7816164E-02  0.1300439E+00
        -11   -1    0    0    0    0  0.00000000000E+00  0.00000000000E+00  0.45593999997E+02  0.45594000000E+02  0.51100000000E-03 0. -1.
         11   -1    0    0    0    0 -0.00000000000E+00 -0.00000000000E+00 -0.45593999997E+02  0.45594000000E+02  0.51100000000E-03 0.  1.
    9900012    2    1    2    0    0  0.37267212938E+02  0.88089989451E+01  0.13664640706E+02  0.50528855540E+02  0.29999986900E+02 0.  0.
        -12    1    1    2    0    0 -0.37267212938E+02 -0.88089989451E+01 -0.13664640706E+02  0.40659144460E+02  0.00000000000E+00 0.  1.
         11    1    3    3    0    0  0.10752691594E+01  0.21139446078E+01  0.94041647680E+01  0.96986226246E+01  0.51100000000E-03 0. -1.
        -11    1    3    3    0    0  0.17828615143E+02  0.44970355900E+01  0.10667545108E+02  0.21257454361E+02  0.51100000000E-03 0.  1.
        -12    1    3    3    0    0  0.18363328635E+02  0.21980187474E+01 -0.64070691702E+01  0.19572778554E+02  0.00000000000E+00 0.  1.
</event>
<event>
 7    1  0.5041278E-013  0.5052887E+02  0.7816164E-02  0.1300439E+00
        -11   -1    0    0    0    0  0.00000000000E+00  0.00000000000E+00  0.45593999997E+02  0.45594000000E+02  0.51100000000E-03 0.  1.
         11   -1    0    0    0    0 -0.00000000000E+00 -0.00000000000E+00 -0.45593999997E+02  0.45594000000E+02  0.51100000000E-03 0. -1.
    9900012    2    1    2    0    0  0.12340936814E+02 -0.36758076244E+02 -0.12235614754E+02  0.50528866229E+02  0.30000019389E+02 0.  0.
        -12    1    1    2    0    0 -0.12340936814E+02  0.36758076244E+02  0.12235614754E+02  0.40659133771E+02  0.00000000000E+00 0.  1.
         11    1    3    3    0    0  0.11916159270E+01 -0.55226688839E+01 -0.11371262087E+02  0.12697457298E+02  0.51100000000E-03 0. -1.
        -11    1    3    3    0    0  0.40702574275E+01 -0.11693948263E+01  0.48290263546E+01  0.64229257804E+01  0.51100000000E-03 0.  1.
         12    1    3    3    0    0  0.70790634592E+01 -0.30066012534E+02 -0.56933790220E+01  0.31408483151E+02  0.00000000000E+00 0. -1.
</event>
<event>
 7    1  0.5041278E-013  0.5052886E+02  0.7816164E-02  0.1300439E+00
        -11   -1    0    0    0    0  0.00000000000E+00  0.00000000000E+00  0.45593999997E+02  0.45594000000E+02  0.51100000000E-03 0.  1.
         11   -1    0    0    0    0 -0.00000000000E+00 -0.00000000000E+00 -0.45593999997E+02  0.45594000000E+02  0.51100000000E-03 0. -1.
    9900012    2    1    2    0    0 -0.14902548734E+02  0.34468495831E+02 -0.15588532261E+02  0.50528862015E+02  0.30000006581E+02 0.  0.
        -12    1    1    2    0    0  0.14902548734E+02 -0.34468495831E+02  0.15588532261E+02  0.40659137985E+02  0.00000000000E+00 0.  1.
         11    1    3    3    0    0  0.60671657458E+01  0.24455118749E+01 -0.16708014725E+01  0.67514891941E+01  0.51100000000E-03 0. -1.
        -11    1    3    3    0    0 -0.44793553764E+01  0.16102611893E+02  0.45909986745E+00  0.16720332153E+02  0.51100000000E-03 0.  1.
         12    1    3    3    0    0 -0.16490359103E+02  0.15920372063E+02 -0.14376830656E+02  0.27057040668E+02  0.00000000000E+00 0. -1.
</event>
<event>
 7    1  0.5041278E-013  0.5052885E+02  0.7816164E-02  0.1300439E+00
        -11   -1    0    0    0    0  0.00000000000E+00  0.00000000000E+00  0.45593999997E+02  0.45594000000E+02  0.51100000000E-03 0. -1.
         11   -1    0    0    0    0 -0.00000000000E+00 -0.00000000000E+00 -0.45593999997E+02  0.45594000000E+02  0.51100000000E-03 0.  1.
    9900012    2    1    2    0    0 -0.24206688473E+01 -0.22539374527E+02  0.33753269790E+02  0.50528852650E+02  0.29999978115E+02 0.  0.
        -12    1    1    2    0    0  0.24206688473E+01  0.22539374527E+02 -0.33753269790E+02  0.40659147350E+02  0.00000000000E+00 0.  1.
         11    1    3    3    0    0  0.11889681623E+02 -0.11211196707E+02  0.64749960288E+01  0.17577856369E+02  0.51100000000E-03 0. -1.
        -11    1    3    3    0    0 -0.23742218622E+01 -0.21619214621E+01  0.30477086649E+01  0.44271166944E+01  0.51100000000E-03 0.  1.
        -12    1    3    3    0    0 -0.11936128608E+02 -0.91662563580E+01  0.24230565096E+02  0.28523879586E+02  0.00000000000E+00 0.  1.
</event>
<event>
 7    1  0.5041278E-013  0.5052886E+02  0.7816164E-02  0.1300439E+00
        -11   -1    0    0    0    0  0.00000000000E+00  0.00000000000E+00  0.45593999997E+02  0.45594000000E+02  0.51100000000E-03 0.  1.
         11   -1    0    0    0    0 -0.00000000000E+00 -0.00000000000E+00 -0.45593999997E+02  0.45594000000E+02  0.51100000000E-03 0. -1.
    9900012    2    1    2    0    0  0.11921428282E+02 -0.28023108356E+02 -0.26939758673E+02  0.50528860171E+02  0.30000000977E+02 0.  0.
        -12    1    1    2    0    0 -0.11921428282E+02  0.28023108356E+02  0.26939758673E+02  0.40659139829E+02  0.00000000000E+00 0.  1.
         11    1    3    3    0    0 -0.59715486845E+01 -0.19239190083E+02 -0.17747663539E+02  0.26847446622E+02  0.51100000000E-03 0. -1.
        -11    1    3    3    0    0  0.20651499029E+01 -0.76101814478E+00 -0.49780013123E+01  0.54428384198E+01  0.51100000000E-03 0.  1.
        -12    1    3    3    0    0  0.15827827063E+02 -0.80229001284E+01 -0.42140938217E+01  0.18238575130E+02  0.00000000000E+00 0.  1.
</event>
<event>
 7    1  0.5041278E-013  0.5052887E+02  0.7816164E-02  0.1300439E+00
        -11   -1    0    0    0    0  0.00000000000E+00  0.00000000000E+00  0.45593999997E+02  0.45594000000E+02  0.51100000000E-03 0.  1.
         11   -1    0    0    0    0 -0.00000000000E+00 -0.00000000000E+00 -0.45593999997E+02  0.45594000000E+02  0.51100000000E-03 0. -1.
    9900012    2    1    2    0    0 -0.25634937343E+02  0.22146309557E+02 -0.22484576688E+02  0.50528865376E+02  0.30000016796E+02 0.  0.
        -12    1    1    2    0    0  0.25634937343E+02 -0.22146309557E+02  0.22484576688E+02  0.40659134624E+02  0.00000000000E+00 0.  1.
         11    1    3    3    0    0 -0.15190723576E+02  0.10792310358E+02 -0.20728673575E+02  0.27873104493E+02  0.51100000000E-03 0. -1.
        -11    1    3    3    0    0 -0.11209739162E+02  0.20400958276E+00 -0.23826011284E+01  0.11461965817E+02  0.51100000000E-03 0.  1.
         12    1    3    3    0    0  0.76552539556E+00  0.11149989616E+02  0.62669801522E+00  0.11193795066E+02  0.00000000000E+00 0. -1.
</event>
<event>
 7    1  0.8494639E-013  0.5052883E+02  0.7816164E-02  0.1300439E+00
        -11   -1    0    0    0    0  0.00000000000E+00  0.00000000000E+00  0.45593999997E+02  0.45594000000E+02  0.51100000000E-03 0.  1.
         11   -1    0    0    0    0 -0.00000000000E+00 -0.00000000000E+00 -0.45593999997E+02  0.45594000000E+02  0.51100000000E-03 0. -1.
    9900012    2    1    2    0    0 -0.36397543837E+02 -0.14264453449E+02 -0.11176429544E+02  0.50528826288E+02  0.29999897986E+02 0.  0.
        -12    1    1    2    0    0  0.36397543837E+02  0.14264453449E+02  0.11176429544E+02  0.40659173712E+02  0.00000000000E+00 0.  1.
         11    1    3    3    0    0 -0.10118058688E+02 -0.52049098964E+01 -0.11152871965E+02  0.15932757199E+02  0.51100000000E-03 0. -1.
        -11    1    3    3    0    0  0.23995691651E+01 -0.38146873423E+01  0.27989148030E+01  0.53050632450E+01  0.51100000000E-03 0.  1.
         12    1    3    3    0    0 -0.28679054314E+02 -0.52448562102E+01 -0.28224723828E+01  0.29291005844E+02  0.00000000000E+00 0. -1.
</event>
<event>
 7    1  0.5041278E-013  0.5052886E+02  0.7816164E-02  0.1300439E+00
        -11   -1    0    0    0    0  0.00000000000E+00  0.00000000000E+00  0.45593999997E+02  0.45594000000E+02  0.51100000000E-03 0. -1.
         11   -1    0    0    0    0 -0.00000000000E+00 -0.00000000000E+00 -0.45593999997E+02  0.45594000000E+02  0.51100000000E-03 0.  1.
    9900012    2    1    2    0    0 -0.10923324928E+02 -0.22303680836E+02  0.32193047990E+02  0.50528861480E+02  0.30000004955E+02 0.  0.
        -12    1    1    2    0    0  0.10923324928E+02  0.22303680836E+02 -0.32193047990E+02  0.40659138520E+02  0.00000000000E+00 0.  1.
         11    1    3    3    0    0  0.86702077782E-01  0.28043127975E+01  0.21678028784E+01  0.35455686564E+01  0.51100000000E-03 0. -1.
        -11    1    3    3    0    0 -0.91284262573E+01 -0.10137606771E+02  0.29670978330E+00  0.13645045765E+02  0.51100000000E-03 0.  1.
        -12    1    3    3    0    0 -0.18816007487E+01 -0.14970386863E+02  0.29728535328E+02  0.33338247059E+02  0.00000000000E+00 0.  1.
</event>
<event>
 7    1  0.5041278E-013  0.5052887E+02  0.7816164E-02  0.1300439E+00
        -11   -1    0    0    0    0  0.00000000000E+00  0.00000000000E+00  0.45593999997E+02  0.45594000000E+02  0.51100000000E-03 0.  1.
         11   -1    0    0    0    0 -0.00000000000E+00 -0.00000000000E+00 -0.45593999997E+02  0.45594000000E+02  0.51100000000E-03 0. -1.
    9900012    2    1    2    0    0  0.17262835849E+01 -0.15091470140E+02 -0.37715152379E+02  0.50528865171E+02  0.30000016175E+02 0.  0.
        -12    1    1    2    0    0 -0.17262835849E+01  0.15091470140E+02  0.37715152379E+02  0.40659134829E+02  0.00000000000E+00 0.  1.
         11    1    3    3    0    0  0.77329581442E+01 -0.47180253958E+01 -0.11749705165E+02  0.14836238642E+02  0.51100000000E-03 0.  1.
        -11    1    3    3    0    0 -0.13811981918E+02 -0.39417031893E+01 -0.14668375130E+02  0.20529712559E+02  0.51100000000E-03 0. -1.
         12    1    3    3    0    0  0.78053073591E+01 -0.64317415551E+01 -0.11297072084E+02  0.15162913971E+02  0.00000000000E+00 0. -1.
</event>
<event>
 7    1  0.5041278E-013  0.5052884E+02  0.7816164E-02  0.1300439E+00
        -11   -1    0    0    0    0  0.00000000000E+00  0.00000000000E+00  0.45593999997E+02  0.45594000000E+02  0.51100000000E-03 0.  1.
         11   -1    0    0    0    0 -0.00000000000E+00 -0.00000000000E+00 -0.45593999997E+02  0.45594000000E+02  0.51100000000E-03 0. -1.
    9900012    2    1    2    0    0  0.24019947085E+02 -0.74483303431E+01 -0.31948889743E+02  0.50528843114E+02  0.29999949129E+02 0.  0.
        -12    1    1    2    0    0 -0.24019947085E+02  0.74483303431E+01  0.31948889743E+02  0.40659156886E+02  0.00000000000E+00 0.  1.
         11    1    3    3    0    0 -0.15422001050E+00 -0.11457553005E+02 -0.58308883151E+01  0.12856848894E+02  0.51100000000E-03 0. -1.
        -11    1    3    3    0    0  0.12965081784E+01  0.39765052426E+01 -0.51946063631E+01  0.66691425933E+01  0.51100000000E-03 0.  1.
        -12    1    3    3    0    0  0.22877658917E+02  0.32717419181E-01 -0.20923395065E+02  0.31002851627E+02  0.00000000000E+00 0.  1.
</event>
<event>
 7    1  0.5041278E-013  0.5052885E+02  0.7816164E-02  0.1300439E+00
        -11   -1    0    0    0    0  0.00000000000E+00  0.00000000000E+00  0.45593999997E+02  0.45594000000E+02  0.51100000000E-03 0. -1.
         11   -1    0    0    0    0 -0.00000000000E+00 -0.00000000000E+00 -0.45593999997E+02  0.45594000000E+02  0.51100000000E-03 0.  1.
    9900012    2    1    2    0    0  0.27761933713E+02 -0.28262635686E+02  0.91468490826E+01  0.50528851121E+02  0.29999973468E+02 0.  0.
        -12    1    1    2    0    0 -0.27761933713E+02  0.28262635686E+02 -0.91468490826E+01  0.40659148879E+02  0.00000000000E+00 0.  1.
         11    1    3    3    0    0  0.17630277754E+02 -0.13633665689E+02 -0.32113822334E+00  0.22289160231E+02  0.51100000000E-03 0. -1.
        -11    1    3    3    0    0  0.30437239474E+01 -0.10375094674E+02 -0.47369972744E+01  0.11804490179E+02  0.51100000000E-03 0.  1.
         12    1    3    3    0    0  0.70879320118E+01 -0.42538753237E+01  0.14204984580E+02  0.16435200711E+02  0.00000000000E+00 0. -1.
</event>
<event>
 7    1  0.5041278E-013  0.5052886E+02  0.7816164E-02  0.1300439E+00
        -11   -1    0    0    0    0  0.00000000000E+00  0.00000000000E+00  0.45593999997E+02  0.45594000000E+02  0.51100000000E-03 0. -1.
         11   -1    0    0    0    0 -0.00000000000E+00 -0.00000000000E+00 -0.45593999997E+02  0.45594000000E+02  0.51100000000E-03 0.  1.
    9900012    2    1    2    0    0  0.25405680980E+02  0.22932018382E+02  0.21950839345E+02  0.50528862760E+02  0.30000008845E+02 0.  0.
        -12    1    1    2    0    0 -0.25405680980E+02 -0.22932018382E+02 -0.21950839345E+02  0.40659137240E+02  0.00000000000E+00 0.  1.
         11    1    3    3    0    0 -0.49661373051E+01  0.26923065529E+01  0.68309306879E+01  0.88641214247E+01  0.51100000000E-03 0.  1.
        -11    1    3    3    0    0  0.35414096060E+01  0.88498096003E+01  0.22050986859E+01  0.97838219748E+01  0.51100000000E-03 0. -1.
         12    1    3    3    0    0  0.26830408679E+02  0.11389902229E+02  0.12914809971E+02  0.31880919360E+02  0.00000000000E+00 0. -1.
</event>
<event>
 7    1  0.5041278E-013  0.5052886E+02  0.7816164E-02  0.1300439E+00
        -11   -1    0    0    0    0  0.00000000000E+00  0.00000000000E+00  0.45593999997E+02  0.45594000000E+02  0.51100000000E-03 0. -1.
         11   -1    0    0    0    0 -0.00000000000E+00 -0.00000000000E+00 -0.45593999997E+02  0.45594000000E+02  0.51100000000E-03 0.  1.
    9900012    2    1    2    0    0 -0.36048977078E+02  0.11677186128E+02  0.14740420645E+02  0.50528862957E+02  0.30000009446E+02 0.  0.
        -12    1    1    2    0    0  0.36048977078E+02 -0.11677186128E+02 -0.14740420645E+02  0.40659137043E+02  0.00000000000E+00 0.  1.
         11    1    3    3    0    0 -0.18181509014E+02  0.66350606829E+00  0.13080096760E+02  0.22407508605E+02  0.51100000000E-03 0. -1.
        -11    1    3    3    0    0 -0.34469678684E+01  0.11362549935E+02  0.56578516493E+01  0.13152962178E+02  0.51100000000E-03 0.  1.
        -12    1    3    3    0    0 -0.14420500195E+02 -0.34886987529E+00 -0.39975277641E+01  0.14968392175E+02  0.00000000000E+00 0.  1.
</event>
<event>
 7    1  0.5041278E-013  0.5052889E+02  0.7816164E-02  0.1300439E+00
        -11   -1    0    0    0    0  0.00000000000E+00  0.00000000000E+00  0.45593999997E+02  0.45594000000E+02  0.51100000000E-03 0.  1.
         11   -1    0    0    0    0 -0.00000000000E+00 -0.00000000000E+00 -0.45593999997E+02  0.45594000000E+02  0.51100000000E-03 0. -1.
    9900012    2    1    2    0    0  0.25144538614E+02  0.96745192236E+00 -0.31937116899E+02  0.50528890059E+02  0.30000091825E+02 0.  0.
        -12    1    1    2    0    0 -0.25144538614E+02 -0.96745192236E+00  0.31937116899E+02  0.40659109941E+02  0.00000000000E+00 0.  1.
         11    1    3    3    0    0  0.26017750434E+01 -0.80430559004E+00 -0.17170268717E+02  0.17384886222E+02  0.51100000000E-03 0. -1.
        -11    1    3    3    0    0 -0.21197357161E+01  0.19706681143E+01 -0.65282404990E+01  0.71410599071E+01  0.51100000000E-03 0.  1.
        -12    1    3    3    0    0  0.24662499287E+02 -0.19891060187E+00 -0.82386076826E+01  0.26002943931E+02  0.00000000000E+00 0.  1.
</event>
<event>
 7    1  0.5041278E-013  0.5052886E+02  0.7816164E-02  0.1300439E+00
        -11   -1    0    0    0    0  0.00000000000E+00  0.00000000000E+00  0.45593999997E+02  0.45594000000E+02  0.51100000000E-03 0.  1.
         11   -1    0    0    0    0 -0.00000000000E+00 -0.00000000000E+00 -0.45593999997E+02  0.45594000000E+02  0.51100000000E-03 0. -1.
    9900012    2    1    2    0    0 -0.82346160018E+01  0.67402775079E+01 -0.39241888287E+02  0.50528855420E+02  0.29999986536E+02 0.  0.
        -12    1    1    2    0    0  0.82346160018E+01 -0.67402775079E+01  0.39241888287E+02  0.40659144580E+02  0.00000000000E+00 0.  1.
         11    1    3    3    0    0 -0.63771004080E+01  0.51491236816E+01 -0.20755505208E+02  0.22315283575E+02  0.51100000000E-03 0. -1.
        -11    1    3    3    0    0  0.38441997902E+01 -0.15635900128E+01 -0.20867277590E+02  0.21275947924E+02  0.51100000000E-03 0.  1.
        -12    1    3    3    0    0 -0.57017153839E+01  0.31547438391E+01  0.23808945114E+01  0.69376239221E+01  0.00000000000E+00 0.  1.
</event>
<event>
 7    1  0.5041278E-013  0.5052886E+02  0.7816164E-02  0.1300439E+00
        -11   -1    0    0    0    0  0.00000000000E+00  0.00000000000E+00  0.45593999997E+02  0.45594000000E+02  0.51100000000E-03 0.  1.
         11   -1    0    0    0    0 -0.00000000000E+00 -0.00000000000E+00 -0.45593999997E+02  0.45594000000E+02  0.51100000000E-03 0. -1.
    9900012    2    1    2    0    0 -0.26313615826E+02  0.17884694844E+02  0.25315937589E+02  0.50528863468E+02  0.30000010998E+02 0.  0.
        -12    1    1    2    0    0  0.26313615826E+02 -0.17884694844E+02 -0.25315937589E+02  0.40659136532E+02  0.00000000000E+00 0.  1.
         11    1    3    3    0    0 -0.11512253776E+02  0.14129883065E+02  0.11247887447E+02  0.21417295691E+02  0.51100000000E-03 0. -1.
        -11    1    3    3    0    0 -0.98496757369E+01  0.40122877803E+01 -0.32313661273E+01  0.11115587824E+02  0.51100000000E-03 0.  1.
        -12    1    3    3    0    0 -0.49516863124E+01 -0.25747600135E+00  0.17299416269E+02  0.17995979953E+02  0.00000000000E+00 0.  1.
</event>
<event>
 7    1  0.5041278E-013  0.5052887E+02  0.7816164E-02  0.1300439E+00
        -11   -1    0    0    0    0  0.00000000000E+00  0.00000000000E+00  0.45593999997E+02  0.45594000000E+02  0.51100000000E-03 0. -1.
         11   -1    0    0    0    0 -0.00000000000E+00 -0.00000000000E+00 -0.45593999997E+02  0.45594000000E+02  0.51100000000E-03 0.  1.
    9900012    2    1    2    0    0  0.39717673733E+02 -0.16605898805E+01 -0.85389426848E+01  0.50528871779E+02  0.30000036260E+02 0.  0.
        -12    1    1    2    0    0 -0.39717673733E+02  0.16605898805E+01  0.85389426848E+01  0.40659128221E+02  0.00000000000E+00 0.  1.
         11    1    3    3    0    0  0.17047177163E+02  0.20319102978E+01 -0.18101304760E+01  0.17263009045E+02  0.51100000000E-03 0. -1.
        -11    1    3    3    0    0  0.19121717509E+02  0.76775688789E+01 -0.52470295131E+01  0.21263030437E+02  0.51100000000E-03 0.  1.
         12    1    3    3    0    0  0.35487790602E+01 -0.11370069057E+02 -0.14817826957E+01  0.12002832297E+02  0.00000000000E+00 0. -1.
</event>
<event>
 7    1  0.5041278E-013  0.5052886E+02  0.7816164E-02  0.1300439E+00
        -11   -1    0    0    0    0  0.00000000000E+00  0.00000000000E+00  0.45593999997E+02  0.45594000000E+02  0.51100000000E-03 0. -1.
         11   -1    0    0    0    0 -0.00000000000E+00 -0.00000000000E+00 -0.45593999997E+02  0.45594000000E+02  0.51100000000E-03 0.  1.
    9900012    2    1    2    0    0 -0.31608900349E+02  0.20977375334E+02 -0.14628485637E+02  0.50528862661E+02  0.30000008543E+02 0.  0.
        -12    1    1    2    0    0  0.31608900349E+02 -0.20977375334E+02  0.14628485637E+02  0.40659137339E+02  0.00000000000E+00 0.  1.
         11    1    3    3    0    0  0.34581221832E+01  0.30337517668E+01  0.39525841369E-01  0.46004153475E+01  0.51100000000E-03 0. -1.
        -11    1    3    3    0    0 -0.22093045500E+02  0.16440710117E+02 -0.17412971586E+02  0.32582375425E+02  0.51100000000E-03 0.  1.
         12    1    3    3    0    0 -0.12973977032E+02  0.15029134502E+01  0.27449601068E+01  0.13346071888E+02  0.00000000000E+00 0. -1.
</event>
<event>
 7    1  0.5041278E-013  0.5052885E+02  0.7816164E-02  0.1300439E+00
        -11   -1    0    0    0    0  0.00000000000E+00  0.00000000000E+00  0.45593999997E+02  0.45594000000E+02  0.51100000000E-03 0.  1.
         11   -1    0    0    0    0 -0.00000000000E+00 -0.00000000000E+00 -0.45593999997E+02  0.45594000000E+02  0.51100000000E-03 0. -1.
    9900012    2    1    2    0    0 -0.39554792940E+02  0.35876052807E+01  0.87013813894E+01  0.50528848580E+02  0.29999965743E+02 0.  0.
        -12    1    1    2    0    0  0.39554792940E+02 -0.35876052807E+01 -0.87013813894E+01  0.40659151420E+02  0.00000000000E+00 0.  1.
         11    1    3    3    0    0 -0.11021809364E+02 -0.25272305243E+01 -0.49332719455E+01  0.12337112633E+02  0.51100000000E-03 0. -1.
        -11    1    3    3    0    0 -0.45217767085E+01 -0.49831956927E+01 -0.25332933488E+01  0.71900124732E+01  0.51100000000E-03 0.  1.
        -12    1    3    3    0    0 -0.24011206867E+02  0.11098031498E+02  0.16167946684E+02  0.31001723473E+02  0.00000000000E+00 0.  1.
</event>
<event>
 7    1  0.6010645E-013  0.5052886E+02  0.7816164E-02  0.1300439E+00
        -11   -1    0    0    0    0  0.00000000000E+00  0.00000000000E+00  0.45593999997E+02  0.45594000000E+02  0.51100000000E-03 0.  1.
         11   -1    0    0    0    0 -0.00000000000E+00 -0.00000000000E+00 -0.45593999997E+02  0.45594000000E+02  0.51100000000E-03 0. -1.
    9900012    2    1    2    0    0 -0.18608688831E+02  0.35745745547E+02 -0.53966614807E+01  0.50528861054E+02  0.30000003660E+02 0.  0.
        -12    1    1    2    0    0  0.18608688831E+02 -0.35745745547E+02  0.53966614807E+01  0.40659138946E+02  0.00000000000E+00 0.  1.
         11    1    3    3    0    0 -0.99392868751E+01  0.12918105526E+02 -0.68575587150E+01  0.17683127148E+02  0.51100000000E-03 0.  1.
        -11    1    3    3    0    0 -0.10344292633E+02  0.25737306250E+02  0.47542697592E+01  0.28142786008E+02  0.51100000000E-03 0. -1.
        -12    1    3    3    0    0  0.16748906775E+01 -0.29096662285E+01 -0.32933725248E+01  0.47029478979E+01  0.00000000000E+00 0.  1.
</event>
<event>
 7    1  0.5041278E-013  0.5052886E+02  0.7816164E-02  0.1300439E+00
        -11   -1    0    0    0    0  0.00000000000E+00  0.00000000000E+00  0.45593999997E+02  0.45594000000E+02  0.51100000000E-03 0.  1.
         11   -1    0    0    0    0 -0.00000000000E+00 -0.00000000000E+00 -0.45593999997E+02  0.45594000000E+02  0.51100000000E-03 0. -1.
    9900012    2    1    2    0    0 -0.11515448826E+02 -0.11148080121E+02 -0.37366831655E+02  0.50528863758E+02  0.30000011879E+02 0.  0.
        -12    1    1    2    0    0  0.11515448826E+02  0.11148080121E+02  0.37366831655E+02  0.40659136242E+02  0.00000000000E+00 0.  1.
         11    1    3    3    0    0 -0.64444174128E+01 -0.27907598703E+01 -0.12012870185E+02  0.13915024499E+02  0.51100000000E-03 0. -1.
        -11    1    3    3    0    0 -0.10536107690E+02  0.52343029011E+01 -0.11128414007E+02  0.16194106665E+02  0.51100000000E-03 0.  1.
        -12    1    3    3    0    0  0.54650762774E+01 -0.13591623151E+02 -0.14225547462E+02  0.20419732594E+02  0.00000000000E+00 0.  1.
</event>
<event>
 7    1  0.5041278E-013  0.5052886E+02  0.7816164E-02  0.1300439E+00
        -11   -1    0    0    0    0  0.00000000000E+00  0.00000000000E+00  0.45593999997E+02  0.45594000000E+02  0.51100000000E-03 0.  1.
         11   -1    0    0    0    0 -0.00000000000E+00 -0.00000000000E+00 -0.45593999997E+02  0.45594000000E+02  0.51100000000E-03 0. -1.
    9900012    2    1    2    0    0  0.34629926376E+02  0.13031107911E+02 -0.16855974628E+02  0.50528862591E+02  0.30000008331E+02 0.  0.
        -12    1    1    2    0    0 -0.34629926376E+02 -0.13031107911E+02  0.16855974628E+02  0.40659137409E+02  0.00000000000E+00 0.  1.
         11    1    3    3    0    0  0.26133210016E+02  0.11214012145E+02 -0.21530863840E+02  0.35668989782E+02  0.51100000000E-03 0. -1.
        -11    1    3    3    0    0 -0.18754021920E+01 -0.63582951704E-01 -0.17074570734E+01  0.25370427848E+01  0.51100000000E-03 0.  1.
        -12    1    3    3    0    0  0.10372118552E+02  0.18806787180E+01  0.63823462851E+01  0.12322830024E+02  0.00000000000E+00 0.  1.
</event>
<event>
 7    1  0.5041278E-013  0.5052885E+02  0.7816164E-02  0.1300439E+00
        -11   -1    0    0    0    0  0.00000000000E+00  0.00000000000E+00  0.45593999997E+02  0.45594000000E+02  0.51100000000E-03 0. -1.
         11   -1    0    0    0    0 -0.00000000000E+00 -0.00000000000E+00 -0.45593999997E+02  0.45594000000E+02  0.51100000000E-03 0.  1.
    9900012    2    1    2    0    0  0.15943109399E+02 -0.32148098170E+02  0.19117614104E+02  0.50528854383E+02  0.29999983384E+02 0.  0.
        -12    1    1    2    0    0 -0.15943109399E+02  0.32148098170E+02 -0.19117614104E+02  0.40659145617E+02  0.00000000000E+00 0.  1.
         11    1    3    3    0    0 -0.50181916958E+01 -0.50902309979E+01  0.65844687252E+01  0.97184323922E+01  0.51100000000E-03 0. -1.
        -11    1    3    3    0    0  0.63220159130E+01 -0.11652246841E+02 -0.40416955613E+01  0.13859222378E+02  0.51100000000E-03 0.  1.
         12    1    3    3    0    0  0.14639285182E+02 -0.15405620331E+02  0.16574840940E+02  0.26951199613E+02  0.00000000000E+00 0. -1.
</event>
<event>
 7    1  0.5041278E-013  0.5052887E+02  0.7816164E-02  0.1300439E+00
        -11   -1    0    0    0    0  0.00000000000E+00  0.00000000000E+00  0.45593999997E+02  0.45594000000E+02  0.51100000000E-03 0. -1.
         11   -1    0    0    0    0 -0.00000000000E+00 -0.00000000000E+00 -0.45593999997E+02  0.45594000000E+02  0.51100000000E-03 0.  1.
    9900012    2    1    2    0    0  0.30183336331E+02  0.11227968095E+02 -0.24820625818E+02  0.50528874018E+02  0.30000043065E+02 0.  0.
        -12    1    1    2    0    0 -0.30183336331E+02 -0.11227968095E+02  0.24820625818E+02  0.40659125982E+02  0.00000000000E+00 0.  1.
         11    1    3    3    0    0  0.26919767780E+02  0.67189152210E+01 -0.98268712061E+01  0.29434420617E+02  0.51100000000E-03 0. -1.
        -11    1    3    3    0    0  0.81422708327E+01  0.36362797578E+01 -0.12972867676E+02  0.15742121864E+02  0.51100000000E-03 0.  1.
         12    1    3    3    0    0 -0.48787022821E+01  0.87277311644E+00 -0.20208869359E+01  0.53523315367E+01  0.00000000000E+00 0. -1.
</event>
<event>
 7    1  0.5041278E-013  0.5052887E+02  0.7816164E-02  0.1300439E+00
        -11   -1    0    0    0    0  0.00000000000E+00  0.00000000000E+00  0.45593999997E+02  0.45594000000E+02  0.51100000000E-03 0. -1.
         11   -1    0    0    0    0 -0.00000000000E+00 -0.00000000000E+00 -0.45593999997E+02  0.45594000000E+02  0.51100000000E-03 0.  1.
    9900012    2    1    2    0    0 -0.10593215308E+02 -0.36805320069E+02  0.13649805981E+02  0.50528868194E+02  0.30000025361E+02 0.  0.
        -12    1    1    2    0    0  0.10593215308E+02  0.36805320069E+02 -0.13649805981E+02  0.40659131806E+02  0.00000000000E+00 0.  1.
         11    1    3    3    0    0  0.20961175996E+01 -0.10689867709E+02  0.11621993217E+02  0.15929146469E+02  0.51100000000E-03 0. -1.
        -11    1    3    3    0    0  0.12822114186E+01 -0.74539884973E+01  0.75025675679E+01  0.10653381201E+02  0.51100000000E-03 0.  1.
        -12    1    3    3    0    0 -0.13971544326E+02 -0.18661463862E+02 -0.54747548034E+01  0.23946340524E+02  0.00000000000E+00 0.  1.
</event>
<event>
 7    1  0.5041278E-013  0.5052887E+02  0.7816164E-02  0.1300439E+00
        -11   -1    0    0    0    0  0.00000000000E+00  0.00000000000E+00  0.45593999997E+02  0.45594000000E+02  0.51100000000E-03 0.  1.
         11   -1    0    0    0    0 -0.00000000000E+00 -0.00000000000E+00 -0.45593999997E+02  0.45594000000E+02  0.51100000000E-03 0. -1.
    9900012    2    1    2    0    0 -0.16344938251E+01 -0.37072998851E+02 -0.16615828549E+02  0.50528873445E+02  0.30000041323E+02 0.  0.
        -12    1    1    2    0    0  0.16344938251E+01  0.37072998851E+02  0.16615828549E+02  0.40659126555E+02  0.00000000000E+00 0.  1.
         11    1    3    3    0    0  0.10092130130E+02 -0.55442308482E+01 -0.50236787255E+01  0.12562919026E+02  0.51100000000E-03 0.  1.
        -11    1    3    3    0    0 -0.35620740799E+01 -0.25111578440E+02 -0.55904726616E+01  0.25971775610E+02  0.51100000000E-03 0. -1.
         12    1    3    3    0    0 -0.81645498748E+01 -0.64171895624E+01 -0.60016771620E+01  0.11994178809E+02  0.00000000000E+00 0. -1.
</event>
<event>
 7    1  0.5041278E-013  0.5052887E+02  0.7816164E-02  0.1300439E+00
        -11   -1    0    0    0    0  0.00000000000E+00  0.00000000000E+00  0.45593999997E+02  0.45594000000E+02  0.51100000000E-03 0.  1.
         11   -1    0    0    0    0 -0.00000000000E+00 -0.00000000000E+00 -0.45593999997E+02  0.45594000000E+02  0.51100000000E-03 0. -1.
    9900012    2    1    2    0    0 -0.24239634201E+02  0.29130415415E+02 -0.14731739046E+02  0.50528866908E+02  0.30000021455E+02 0.  0.
        -12    1    1    2    0    0  0.24239634201E+02 -0.29130415415E+02  0.14731739046E+02  0.40659133092E+02  0.00000000000E+00 0.  1.
         11    1    3    3    0    0 -0.19915166856E+01  0.31935130758E+01  0.39429558669E+01  0.54508316525E+01  0.51100000000E-03 0. -1.
        -11    1    3    3    0    0  0.39042469234E+01  0.70279829152E+01 -0.73017492657E+01  0.10860535461E+02  0.51100000000E-03 0.  1.
         12    1    3    3    0    0 -0.26152364439E+02  0.18908919424E+02 -0.11372945647E+02  0.34217499795E+02  0.00000000000E+00 0. -1.
</event>
<event>
 7    1  0.5041278E-013  0.5052886E+02  0.7816164E-02  0.1300439E+00
        -11   -1    0    0    0    0  0.00000000000E+00  0.00000000000E+00  0.45593999997E+02  0.45594000000E+02  0.51100000000E-03 0.  1.
         11   -1    0    0    0    0 -0.00000000000E+00 -0.00000000000E+00 -0.45593999997E+02  0.45594000000E+02  0.51100000000E-03 0. -1.
    9900012    2    1    2    0    0  0.24863267627E+02  0.31893680264E+02 -0.42162592468E+01  0.50528858839E+02  0.29999996929E+02 0.  0.
        -12    1    1    2    0    0 -0.24863267627E+02 -0.31893680264E+02  0.42162592468E+01  0.40659141161E+02  0.00000000000E+00 0.  1.
         11    1    3    3    0    0  0.25862128274E+02  0.31524040818E+02 -0.11064293049E+02  0.42249655730E+02  0.51100000000E-03 0. -1.
        -11    1    3    3    0    0 -0.87681485664E+00  0.19954830211E+01  0.13954050663E+01  0.25880325231E+01  0.51100000000E-03 0.  1.
        -12    1    3    3    0    0 -0.12204579043E+00 -0.16258435756E+01  0.54526287361E+01  0.56911705861E+01  0.00000000000E+00 0.  1.
</event>
<event>
 7    1  0.5041278E-013  0.5052875E+02  0.7816164E-02  0.1300439E+00
        -11   -1    0    0    0    0  0.00000000000E+00  0.00000000000E+00  0.45593999997E+02  0.45594000000E+02  0.51100000000E-03 0.  1.
         11   -1    0    0    0    0 -0.00000000000E+00 -0.00000000000E+00 -0.45593999997E+02  0.45594000000E+02  0.51100000000E-03 0. -1.
    9900012    2    1    2    0    0  0.34564302325E+02  0.11373658019E+02 -0.18141758378E+02  0.50528751495E+02  0.29999670641E+02 0.  0.
        -12    1    1    2    0    0 -0.34564302325E+02 -0.11373658019E+02  0.18141758378E+02  0.40659248505E+02  0.00000000000E+00 0.  1.
         11    1    3    3    0    0  0.49880999509E+01 -0.56510806521E+01 -0.20747735029E+01  0.78179625866E+01  0.51100000000E-03 0. -1.
        -11    1    3    3    0    0  0.16677263071E+02 -0.32679712104E+00 -0.12392259688E+02  0.20779942260E+02  0.51100000000E-03 0.  1.
         12    1    3    3    0    0  0.12898939304E+02  0.17351535792E+02 -0.36747251873E+01  0.21930846648E+02  0.00000000000E+00 0. -1.
</event>
<event>
 7    1  0.5041278E-013  0.5052874E+02  0.7816164E-02  0.1300439E+00
        -11   -1    0    0    0    0  0.00000000000E+00  0.00000000000E+00  0.45593999997E+02  0.45594000000E+02  0.51100000000E-03 0. -1.
         11   -1    0    0    0    0 -0.00000000000E+00 -0.00000000000E+00 -0.45593999997E+02  0.45594000000E+02  0.51100000000E-03 0.  1.
    9900012    2    1    2    0    0  0.37356996697E+01  0.37705982119E+02  0.14747164985E+02  0.50528740111E+02  0.29999636040E+02 0.  0.
        -12    1    1    2    0    0 -0.37356996697E+01 -0.37705982119E+02 -0.14747164985E+02  0.40659259889E+02  0.00000000000E+00 0.  1.
         11    1    3    3    0    0 -0.79595738315E+01  0.12206088659E+02  0.11125057817E+02  0.18333311965E+02  0.51100000000E-03 0. -1.
        -11    1    3    3    0    0  0.40251527076E+00  0.42603574300E+01 -0.50551168473E+01  0.66232069706E+01  0.51100000000E-03 0.  1.
        -12    1    3    3    0    0  0.11292758230E+02  0.21239536030E+02  0.86772240159E+01  0.25572221176E+02  0.00000000000E+00 0.  1.
</event>
<event>
 7    1  0.5041278E-013  0.5052884E+02  0.7816164E-02  0.1300439E+00
        -11   -1    0    0    0    0  0.00000000000E+00  0.00000000000E+00  0.45593999997E+02  0.45594000000E+02  0.51100000000E-03 0.  1.
         11   -1    0    0    0    0 -0.00000000000E+00 -0.00000000000E+00 -0.45593999997E+02  0.45594000000E+02  0.51100000000E-03 0. -1.
    9900012    2    1    2    0    0  0.32517830421E+02 -0.30193532875E+01 -0.24220681965E+02  0.50528840830E+02  0.29999942187E+02 0.  0.
        -12    1    1    2    0    0 -0.32517830421E+02  0.30193532875E+01  0.24220681965E+02  0.40659159170E+02  0.00000000000E+00 0.  1.
         11    1    3    3    0    0  0.13223543196E+02  0.78669819765E+01 -0.16123854228E+02  0.22287444347E+02  0.51100000000E-03 0. -1.
        -11    1    3    3    0    0  0.16531389947E+02 -0.80483419386E+00 -0.58084794718E+01  0.17540611326E+02  0.51100000000E-03 0.  1.
        -12    1    3    3    0    0  0.27628972783E+01 -0.10081501070E+02 -0.22883482647E+01  0.10700785157E+02  0.00000000000E+00 0.  1.
</event>
<event>
 7    1  0.5041278E-013  0.5052885E+02  0.7816164E-02  0.1300439E+00
        -11   -1    0    0    0    0  0.00000000000E+00  0.00000000000E+00  0.45593999997E+02  0.45594000000E+02  0.51100000000E-03 0.  1.
         11   -1    0    0    0    0 -0.00000000000E+00 -0.00000000000E+00 -0.45593999997E+02  0.45594000000E+02  0.51100000000E-03 0. -1.
    9900012    2    1    2    0    0 -0.21054839905E+02  0.30486725108E+02 -0.16745733636E+02  0.50528852367E+02  0.29999977256E+02 0.  0.
        -12    1    1    2    0    0  0.21054839905E+02 -0.30486725108E+02  0.16745733636E+02  0.40659147633E+02  0.00000000000E+00 0.  1.
         11    1    3    3    0    0 -0.18278536449E+02  0.11151635475E+02 -0.14241597684E+02  0.25715500643E+02  0.51100000000E-03 0. -1.
        -11    1    3    3    0    0  0.21846925555E+01 -0.11452492654E+01 -0.28092693546E+01  0.37385120047E+01  0.51100000000E-03 0.  1.
         12    1    3    3    0    0 -0.49609960118E+01  0.20480338898E+02  0.30513340265E+00  0.21074839720E+02  0.00000000000E+00 0. -1.
</event>
<event>
 7    1  0.5041278E-013  0.5052886E+02  0.7816164E-02  0.1300439E+00
        -11   -1    0    0    0    0  0.00000000000E+00  0.00000000000E+00  0.45593999997E+02  0.45594000000E+02  0.51100000000E-03 0. -1.
         11   -1    0    0    0    0 -0.00000000000E+00 -0.00000000000E+00 -0.45593999997E+02  0.45594000000E+02  0.51100000000E-03 0.  1.
    9900012    2    1    2    0    0  0.15927620926E+02  0.69138758259E+00  0.37403192180E+02  0.50528856989E+02  0.29999991304E+02 0.  0.
        -12    1    1    2    0    0 -0.15927620926E+02 -0.69138758259E+00 -0.37403192180E+02  0.40659143011E+02  0.00000000000E+00 0.  1.
         11    1    3    3    0    0  0.43423497013E+01 -0.71626936691E+00  0.18990532326E+02  0.19493828793E+02  0.51100000000E-03 0. -1.
        -11    1    3    3    0    0 -0.62097823832E+01 -0.94310558392E+00  0.16940918269E+01  0.65054433184E+01  0.51100000000E-03 0.  1.
        -12    1    3    3    0    0  0.17795053607E+02  0.23507625334E+01  0.16718568027E+02  0.24529584877E+02  0.00000000000E+00 0.  1.
</event>
<event>
 7    1  0.5041278E-013  0.5052885E+02  0.7816164E-02  0.1300439E+00
        -11   -1    0    0    0    0  0.00000000000E+00  0.00000000000E+00  0.45593999997E+02  0.45594000000E+02  0.51100000000E-03 0.  1.
         11   -1    0    0    0    0 -0.00000000000E+00 -0.00000000000E+00 -0.45593999997E+02  0.45594000000E+02  0.51100000000E-03 0. -1.
    9900012    2    1    2    0    0 -0.31226810569E+02  0.62888920026E+01 -0.25268604398E+02  0.50528853069E+02  0.29999979388E+02 0.  0.
        -12    1    1    2    0    0  0.31226810569E+02 -0.62888920026E+01  0.25268604398E+02  0.40659146931E+02  0.00000000000E+00 0.  1.
         11    1    3    3    0    0 -0.10914752719E+02  0.38963906806E+01  0.20264478066E+01  0.11765210505E+02  0.51100000000E-03 0. -1.
        -11    1    3    3    0    0 -0.54010755006E+00 -0.58427286800E+01 -0.39032146599E+01  0.70472888074E+01  0.51100000000E-03 0.  1.
        -12    1    3    3    0    0 -0.19771950300E+02  0.82352300020E+01 -0.23391837545E+02  0.31716353756E+02  0.00000000000E+00 0.  1.
</event>
<event>
 7    1  0.5041278E-013  0.5052885E+02  0.7816164E-02  0.1300439E+00
        -11   -1    0    0    0    0  0.00000000000E+00  0.00000000000E+00  0.45593999997E+02  0.45594000000E+02  0.51100000000E-03 0.  1.
         11   -1    0    0    0    0 -0.00000000000E+00 -0.00000000000E+00 -0.45593999997E+02  0.45594000000E+02  0.51100000000E-03 0. -1.
    9900012    2    1    2    0    0  0.22111137190E+02  0.30907265598E+02 -0.14456996968E+02  0.50528853232E+02  0.29999979884E+02 0.  0.
        -12    1    1    2    0    0 -0.22111137190E+02 -0.30907265598E+02  0.14456996968E+02  0.40659146768E+02  0.00000000000E+00 0.  1.
         11    1    3    3    0    0  0.56038118207E+00  0.11711937485E+02  0.58403174482E+01  0.13099344063E+02  0.51100000000E-03 0. -1.
        -11    1    3    3    0    0 -0.18689836091E+00 -0.11380787334E+01  0.34857928736E+00  0.12048493605E+01  0.51100000000E-03 0.  1.
         12    1    3    3    0    0  0.21737654369E+02  0.20333406846E+02 -0.20645893704E+02  0.36224659809E+02  0.00000000000E+00 0. -1.
</event>
<event>
 7    1  0.5041278E-013  0.5052883E+02  0.7816164E-02  0.1300439E+00
        -11   -1    0    0    0    0  0.00000000000E+00  0.00000000000E+00  0.45593999997E+02  0.45594000000E+02  0.51100000000E-03 0. -1.
         11   -1    0    0    0    0 -0.00000000000E+00 -0.00000000000E+00 -0.45593999997E+02  0.45594000000E+02  0.51100000000E-03 0.  1.
    9900012    2    1    2    0    0 -0.40769038664E+01  0.37415731428E+02  0.15382126794E+02  0.50528832176E+02  0.29999915881E+02 0.  0.
        -12    1    1    2    0    0  0.40769038664E+01 -0.37415731428E+02 -0.15382126794E+02  0.40659167824E+02  0.00000000000E+00 0.  1.
         11    1    3    3    0    0  0.10491898732E+02  0.15182223384E+02  0.11651104800E+01  0.18491547490E+02  0.51100000000E-03 0. -1.
        -11    1    3    3    0    0  0.15557299805E+01  0.42541919161E+01  0.27860229566E+01  0.53179289960E+01  0.51100000000E-03 0.  1.
        -12    1    3    3    0    0 -0.16124532579E+02  0.17979316128E+02  0.11430993358E+02  0.26719355690E+02  0.00000000000E+00 0.  1.
</event>
<event>
 7    1  0.5041278E-013  0.5052886E+02  0.7816164E-02  0.1300439E+00
        -11   -1    0    0    0    0  0.00000000000E+00  0.00000000000E+00  0.45593999997E+02  0.45594000000E+02  0.51100000000E-03 0.  1.
         11   -1    0    0    0    0 -0.00000000000E+00 -0.00000000000E+00 -0.45593999997E+02  0.45594000000E+02  0.51100000000E-03 0. -1.
    9900012    2    1    2    0    0 -0.16500003703E+02 -0.36910146121E+02  0.43077799091E+01  0.50528856175E+02  0.29999988829E+02 0.  0.
        -12    1    1    2    0    0  0.16500003703E+02  0.36910146121E+02 -0.43077799091E+01  0.40659143825E+02  0.00000000000E+00 0.  1.
         11    1    3    3    0    0 -0.60649706009E+01 -0.19691553185E+02 -0.94776372930E+01  0.22679654850E+02  0.51100000000E-03 0. -1.
        -11    1    3    3    0    0 -0.13055202631E+01 -0.14563901478E+02  0.73259575754E+01  0.16354854449E+02  0.51100000000E-03 0.  1.
        -12    1    3    3    0    0 -0.91295128390E+01 -0.26546914584E+01  0.64594596267E+01  0.11494346875E+02  0.00000000000E+00 0.  1.
</event>
<event>
 7    1  0.5041278E-013  0.5052887E+02  0.7816164E-02  0.1300439E+00
        -11   -1    0    0    0    0  0.00000000000E+00  0.00000000000E+00  0.45593999997E+02  0.45594000000E+02  0.51100000000E-03 0. -1.
         11   -1    0    0    0    0 -0.00000000000E+00 -0.00000000000E+00 -0.45593999997E+02  0.45594000000E+02  0.51100000000E-03 0.  1.
    9900012    2    1    2    0    0  0.40599787304E+02 -0.19152694081E+01  0.10741755042E+01  0.50528870164E+02  0.30000031349E+02 0.  0.
        -12    1    1    2    0    0 -0.40599787304E+02  0.19152694081E+01 -0.10741755042E+01  0.40659129836E+02  0.00000000000E+00 0.  1.
         11    1    3    3    0    0  0.28751913422E+02  0.32535311348E+01  0.14424871950E+01  0.28971343770E+02  0.51100000000E-03 0. -1.
        -11    1    3    3    0    0  0.87215783491E+01  0.28113264159E+01 -0.63124908380E+01  0.11127309916E+02  0.51100000000E-03 0.  1.
         12    1    3    3    0    0  0.31262955325E+01 -0.79801269587E+01  0.59441791472E+01  0.10430216478E+02  0.00000000000E+00 0. -1.
</event>
<event>
 7    1  0.5041278E-013  0.5052886E+02  0.7816164E-02  0.1300439E+00
        -11   -1    0    0    0    0  0.00000000000E+00  0.00000000000E+00  0.45593999997E+02  0.45594000000E+02  0.51100000000E-03 0. -1.
         11   -1    0    0    0    0 -0.00000000000E+00 -0.00000000000E+00 -0.45593999997E+02  0.45594000000E+02  0.51100000000E-03 0.  1.
    9900012    2    1    2    0    0  0.58253184452E+00 -0.12156352224E+02  0.38794969560E+02  0.50528857044E+02  0.29999991470E+02 0.  0.
        -12    1    1    2    0    0 -0.58253184452E+00  0.12156352224E+02 -0.38794969560E+02  0.40659142956E+02  0.00000000000E+00 0.  1.
         11    1    3    3    0    0  0.13329244328E+01  0.47421270100E+01  0.36400231297E+01  0.61248856943E+01  0.51100000000E-03 0. -1.
        -11    1    3    3    0    0 -0.62915816130E+01 -0.56537057372E+01  0.29432202822E+02  0.30623568553E+02  0.51100000000E-03 0.  1.
        -12    1    3    3    0    0  0.55411890247E+01 -0.11244773497E+02  0.57227436091E+01  0.13780402796E+02  0.00000000000E+00 0.  1.
</event>
<event>
 7    1  0.5041278E-013  0.5052886E+02  0.7816164E-02  0.1300439E+00
        -11   -1    0    0    0    0  0.00000000000E+00  0.00000000000E+00  0.45593999997E+02  0.45594000000E+02  0.51100000000E-03 0.  1.
         11   -1    0    0    0    0 -0.00000000000E+00 -0.00000000000E+00 -0.45593999997E+02  0.45594000000E+02  0.51100000000E-03 0. -1.
    9900012    2    1    2    0    0 -0.32778348580E+02 -0.23577189337E+02  0.47814227251E+01  0.50528855937E+02  0.29999988106E+02 0.  0.
        -12    1    1    2    0    0  0.32778348580E+02  0.23577189337E+02 -0.47814227251E+01  0.40659144063E+02  0.00000000000E+00 0.  1.
         11    1    3    3    0    0 -0.94358585242E+01 -0.19577506922E+02  0.67815021979E+01  0.22766268374E+02  0.51100000000E-03 0. -1.
        -11    1    3    3    0    0 -0.75384348170E+01 -0.40529737145E+01 -0.71374619121E+01  0.11144413768E+02  0.51100000000E-03 0.  1.
        -12    1    3    3    0    0 -0.15804055239E+02  0.53291299784E-01  0.51373824393E+01  0.16618173795E+02  0.00000000000E+00 0.  1.
</event>
<event>
 7    1  0.5041278E-013  0.5052888E+02  0.7816164E-02  0.1300439E+00
        -11   -1    0    0    0    0  0.00000000000E+00  0.00000000000E+00  0.45593999997E+02  0.45594000000E+02  0.51100000000E-03 0.  1.
         11   -1    0    0    0    0 -0.00000000000E+00 -0.00000000000E+00 -0.45593999997E+02  0.45594000000E+02  0.51100000000E-03 0. -1.
    9900012    2    1    2    0    0  0.39787449798E+02 -0.73850439922E+01 -0.39476744273E+01  0.50528878396E+02  0.30000056372E+02 0.  0.
        -12    1    1    2    0    0 -0.39787449798E+02  0.73850439922E+01  0.39476744273E+01  0.40659121604E+02  0.00000000000E+00 0.  1.
         11    1    3    3    0    0  0.36625337220E+00  0.61703038699E+01 -0.41734422570E+01  0.74581775195E+01  0.51100000000E-03 0. -1.
        -11    1    3    3    0    0  0.59854633589E+01 -0.51872888158E+00  0.36346914870E+01  0.70218112863E+01  0.51100000000E-03 0.  1.
         12    1    3    3    0    0  0.33435733067E+02 -0.13036618980E+02 -0.34089236573E+01  0.36048889590E+02  0.00000000000E+00 0. -1.
</event>
<event>
 7    1  0.5041278E-013  0.5052891E+02  0.7816164E-02  0.1300439E+00
        -11   -1    0    0    0    0  0.00000000000E+00  0.00000000000E+00  0.45593999997E+02  0.45594000000E+02  0.51100000000E-03 0. -1.
         11   -1    0    0    0    0 -0.00000000000E+00 -0.00000000000E+00 -0.45593999997E+02  0.45594000000E+02  0.51100000000E-03 0.  1.
    9900012    2    1    2    0    0 -0.30181527427E+02 -0.26234514458E+02 -0.73476148758E+01  0.50528907646E+02  0.30000145282E+02 0.  0.
        -12    1    1    2    0    0  0.30181527427E+02  0.26234514458E+02  0.73476148758E+01  0.40659092354E+02  0.00000000000E+00 0.  1.
         11    1    3    3    0    0 -0.14247100409E+02 -0.62431893967E+01 -0.69855219792E+01  0.17051533699E+02  0.51100000000E-03 0. -1.
        -11    1    3    3    0    0 -0.16829716600E+02 -0.86526717822E+01  0.67168388736E+01  0.20080438604E+02  0.51100000000E-03 0.  1.
        -12    1    3    3    0    0  0.89528958120E+00 -0.11338653279E+02 -0.70789317703E+01  0.13396935344E+02  0.00000000000E+00 0.  1.
</event>
<event>
 7    1  0.5041278E-013  0.5052885E+02  0.7816164E-02  0.1300439E+00
        -11   -1    0    0    0    0  0.00000000000E+00  0.00000000000E+00  0.45593999997E+02  0.45594000000E+02  0.51100000000E-03 0.  1.
         11   -1    0    0    0    0 -0.00000000000E+00 -0.00000000000E+00 -0.45593999997E+02  0.45594000000E+02  0.51100000000E-03 0. -1.
    9900012    2    1    2    0    0  0.67780989381E+01  0.39930036946E+02 -0.35799234349E+01  0.50528851859E+02  0.29999975710E+02 0.  0.
        -12    1    1    2    0    0 -0.67780989381E+01 -0.39930036946E+02  0.35799234349E+01  0.40659148141E+02  0.00000000000E+00 0.  1.
         11    1    3    3    0    0 -0.20501616332E+01  0.11508822339E+02 -0.10821208994E+01  0.11739980420E+02  0.51100000000E-03 0. -1.
        -11    1    3    3    0    0 -0.27723665038E+00  0.10700461888E+02  0.10505178563E+02  0.14997850569E+02  0.51100000000E-03 0.  1.
        -12    1    3    3    0    0  0.91054972217E+01  0.17720752719E+02 -0.13002981099E+02  0.23791020870E+02  0.00000000000E+00 0.  1.
</event>
<event>
 7    1  0.5041278E-013  0.5052887E+02  0.7816164E-02  0.1300439E+00
        -11   -1    0    0    0    0  0.00000000000E+00  0.00000000000E+00  0.45593999997E+02  0.45594000000E+02  0.51100000000E-03 0. -1.
         11   -1    0    0    0    0 -0.00000000000E+00 -0.00000000000E+00 -0.45593999997E+02  0.45594000000E+02  0.51100000000E-03 0.  1.
    9900012    2    1    2    0    0 -0.15849507363E+01 -0.25824011016E+02 -0.31365157511E+02  0.50528871634E+02  0.30000035818E+02 0.  0.
        -12    1    1    2    0    0  0.15849507363E+01  0.25824011016E+02  0.31365157511E+02  0.40659128366E+02  0.00000000000E+00 0.  1.
         11    1    3    3    0    0 -0.18973908772E+00 -0.12610127813E+02 -0.10075894073E+02  0.16142334590E+02  0.51100000000E-03 0. -1.
        -11    1    3    3    0    0 -0.46320750478E+01 -0.85245798457E+01  0.24225923548E+01  0.99996767334E+01  0.51100000000E-03 0.  1.
        -12    1    3    3    0    0  0.32368633992E+01 -0.46893033577E+01 -0.23711855793E+02  0.24386860310E+02  0.00000000000E+00 0.  1.
</event>
<event>
 7    1  0.5041278E-013  0.5052886E+02  0.7816164E-02  0.1300439E+00
        -11   -1    0    0    0    0  0.00000000000E+00  0.00000000000E+00  0.45593999997E+02  0.45594000000E+02  0.51100000000E-03 0.  1.
         11   -1    0    0    0    0 -0.00000000000E+00 -0.00000000000E+00 -0.45593999997E+02  0.45594000000E+02  0.51100000000E-03 0. -1.
    9900012    2    1    2    0    0 -0.28013993072E+02 -0.29041643885E+02  0.49964560319E+01  0.50528862524E+02  0.30000008129E+02 0.  0.
        -12    1    1    2    0    0  0.28013993072E+02  0.29041643885E+02 -0.49964560319E+01  0.40659137476E+02  0.00000000000E+00 0.  1.
         11    1    3    3    0    0 -0.24239753417E+02 -0.15906999461E+02 -0.82651224271E+01  0.30148143004E+02  0.51100000000E-03 0. -1.
        -11    1    3    3    0    0  0.13282847174E+01 -0.34347420457E+01  0.76948349756E+00  0.37621667062E+01  0.51100000000E-03 0.  1.
        -12    1    3    3    0    0 -0.51025243726E+01 -0.96999023782E+01  0.12492094961E+02  0.16618552814E+02  0.00000000000E+00 0.  1.
</event>
<event>
 7    1  0.5388143E-013  0.5052886E+02  0.7816164E-02  0.1300439E+00
        -11   -1    0    0    0    0  0.00000000000E+00  0.00000000000E+00  0.45593999997E+02  0.45594000000E+02  0.51100000000E-03 0.  1.
         11   -1    0    0    0    0 -0.00000000000E+00 -0.00000000000E+00 -0.45593999997E+02  0.45594000000E+02  0.51100000000E-03 0. -1.
    9900012    2    1    2    0    0 -0.16891005911E+02  0.31055096410E+02 -0.20085826282E+02  0.50528861899E+02  0.30000006228E+02 0.  0.
        -12    1    1    2    0    0  0.16891005911E+02 -0.31055096410E+02  0.20085826282E+02  0.40659138101E+02  0.00000000000E+00 0.  1.
         11    1    3    3    0    0 -0.18376414583E+02  0.17012856435E+02 -0.70145958803E+01  0.26006430985E+02  0.51100000000E-03 0. -1.
        -11    1    3    3    0    0  0.32819734870E+01  0.12520730034E+02 -0.18719707346E+01  0.13078390774E+02  0.51100000000E-03 0.  1.
        -12    1    3    3    0    0 -0.17965648154E+01  0.15215099416E+01 -0.11199259667E+02  0.11444040140E+02  0.00000000000E+00 0.  1.
</event>
<event>
 7    1  0.5041278E-013  0.5052886E+02  0.7816164E-02  0.1300439E+00
        -11   -1    0    0    0    0  0.00000000000E+00  0.00000000000E+00  0.45593999997E+02  0.45594000000E+02  0.51100000000E-03 0.  1.
         11   -1    0    0    0    0 -0.00000000000E+00 -0.00000000000E+00 -0.45593999997E+02  0.45594000000E+02  0.51100000000E-03 0. -1.
    9900012    2    1    2    0    0  0.14785744303E+02 -0.37395935963E+02  0.60076166748E+01  0.50528859340E+02  0.29999998449E+02 0.  0.
        -12    1    1    2    0    0 -0.14785744303E+02  0.37395935963E+02 -0.60076166748E+01  0.40659140660E+02  0.00000000000E+00 0.  1.
         11    1    3    3    0    0  0.20030428673E+02 -0.31143689710E+02  0.60554506839E+01  0.37520873722E+02  0.51100000000E-03 0. -1.
        -11    1    3    3    0    0  0.18073301741E+00  0.24705468035E+01 -0.10424191825E+01  0.26875460824E+01  0.51100000000E-03 0.  1.
        -12    1    3    3    0    0 -0.54254173880E+01 -0.87227930560E+01  0.99458517347E+00  0.10320439535E+02  0.00000000000E+00 0.  1.
</event>
<event>
 7    1  0.5041278E-013  0.5052886E+02  0.7816164E-02  0.1300439E+00
        -11   -1    0    0    0    0  0.00000000000E+00  0.00000000000E+00  0.45593999997E+02  0.45594000000E+02  0.51100000000E-03 0.  1.
         11   -1    0    0    0    0 -0.00000000000E+00 -0.00000000000E+00 -0.45593999997E+02  0.45594000000E+02  0.51100000000E-03 0. -1.
    9900012    2    1    2    0    0 -0.27762610029E+02  0.21346010513E+02 -0.20657951280E+02  0.50528860418E+02  0.30000001727E+02 0.  0.
        -12    1    1    2    0    0  0.27762610029E+02 -0.21346010513E+02  0.20657951280E+02  0.40659139582E+02  0.00000000000E+00 0.  1.
         11    1    3    3    0    0 -0.72085220930E+01  0.10858153477E+02  0.94951790528E+00  0.13067665140E+02  0.51100000000E-03 0. -1.
        -11    1    3    3    0    0 -0.20155088789E+02  0.84405992420E-01 -0.13387991638E+02  0.24196550349E+02  0.51100000000E-03 0.  1.
         12    1    3    3    0    0 -0.39899914707E+00  0.10403451043E+02 -0.82194775476E+01  0.13264644929E+02  0.00000000000E+00 0. -1.
</event>
<event>
 7    1  0.5041278E-013  0.5052885E+02  0.7816164E-02  0.1300439E+00
        -11   -1    0    0    0    0  0.00000000000E+00  0.00000000000E+00  0.45593999997E+02  0.45594000000E+02  0.51100000000E-03 0.  1.
         11   -1    0    0    0    0 -0.00000000000E+00 -0.00000000000E+00 -0.45593999997E+02  0.45594000000E+02  0.51100000000E-03 0. -1.
    9900012    2    1    2    0    0 -0.32861702917E+02  0.17073652534E+02 -0.16785857283E+02  0.50528854237E+02  0.29999982939E+02 0.  0.
        -12    1    1    2    0    0  0.32861702917E+02 -0.17073652534E+02  0.16785857283E+02  0.40659145763E+02  0.00000000000E+00 0.  1.
         11    1    3    3    0    0 -0.15310187524E-01  0.22512868637E+01 -0.97582938872E+01  0.10014630637E+02  0.51100000000E-03 0. -1.
        -11    1    3    3    0    0 -0.50821449056E+01 -0.14739374485E+01  0.38376068095E+01  0.65366592942E+01  0.51100000000E-03 0.  1.
        -12    1    3    3    0    0 -0.27764247824E+02  0.16296303119E+02 -0.10865170205E+02  0.33977564306E+02  0.00000000000E+00 0.  1.
</event>
<event>
 7    1  0.5041278E-013  0.5052884E+02  0.7816164E-02  0.1300439E+00
        -11   -1    0    0    0    0  0.00000000000E+00  0.00000000000E+00  0.45593999997E+02  0.45594000000E+02  0.51100000000E-03 0. -1.
         11   -1    0    0    0    0 -0.00000000000E+00 -0.00000000000E+00 -0.45593999997E+02  0.45594000000E+02  0.51100000000E-03 0.  1.
    9900012    2    1    2    0    0 -0.13938566715E+02 -0.38129158417E+02  0.22473441445E+01  0.50528844581E+02  0.29999953589E+02 0.  0.
        -12    1    1    2    0    0  0.13938566715E+02  0.38129158417E+02 -0.22473441445E+01  0.40659155419E+02  0.00000000000E+00 0.  1.
         11    1    3    3    0    0 -0.78424957950E+01 -0.27814526156E+02 -0.18914209088E+01  0.28960836985E+02  0.51100000000E-03 0. -1.
        -11    1    3    3    0    0  0.14173643162E+01 -0.48498799568E+01 -0.59814609032E+01  0.78299509576E+01  0.51100000000E-03 0.  1.
        -12    1    3    3    0    0 -0.75134352360E+01 -0.54647523046E+01  0.10120225957E+02  0.13738056639E+02  0.00000000000E+00 0.  1.
</event>
<event>
 7    1  0.5041278E-013  0.5052885E+02  0.7816164E-02  0.1300439E+00
        -11   -1    0    0    0    0  0.00000000000E+00  0.00000000000E+00  0.45593999997E+02  0.45594000000E+02  0.51100000000E-03 0.  1.
         11   -1    0    0    0    0 -0.00000000000E+00 -0.00000000000E+00 -0.45593999997E+02  0.45594000000E+02  0.51100000000E-03 0. -1.
    9900012    2    1    2    0    0  0.35002226021E+02  0.20493257276E+02  0.28349682097E+01  0.50528850169E+02  0.29999970575E+02 0.  0.
        -12    1    1    2    0    0 -0.35002226021E+02 -0.20493257276E+02 -0.28349682097E+01  0.40659149831E+02  0.00000000000E+00 0.  1.
         11    1    3    3    0    0  0.22482461199E+02  0.73398176785E+01 -0.20683717132E+01  0.23740516990E+02  0.51100000000E-03 0. -1.
        -11    1    3    3    0    0  0.17826689744E+01 -0.31755274679E+01  0.62131082827E+01  0.72017080033E+01  0.51100000000E-03 0.  1.
         12    1    3    3    0    0  0.10737095847E+02  0.16328967065E+02 -0.13097683598E+01  0.19586625176E+02  0.00000000000E+00 0. -1.
</event>
<event>
 7    1  0.5041278E-013  0.5052886E+02  0.7816164E-02  0.1300439E+00
        -11   -1    0    0    0    0  0.00000000000E+00  0.00000000000E+00  0.45593999997E+02  0.45594000000E+02  0.51100000000E-03 0.  1.
         11   -1    0    0    0    0 -0.00000000000E+00 -0.00000000000E+00 -0.45593999997E+02  0.45594000000E+02  0.51100000000E-03 0. -1.
    9900012    2    1    2    0    0  0.10271831949E+02  0.20634544364E+02 -0.33494340494E+02  0.50528858373E+02  0.29999995510E+02 0.  0.
        -12    1    1    2    0    0 -0.10271831949E+02 -0.20634544364E+02  0.33494340494E+02  0.40659141627E+02  0.00000000000E+00 0.  1.
         11    1    3    3    0    0  0.23958935713E+01  0.26507867423E+02 -0.22137690118E+02  0.34619137271E+02  0.51100000000E-03 0. -1.
        -11    1    3    3    0    0  0.39224726457E+01 -0.16698353666E+01 -0.15594345314E+01  0.45393808087E+01  0.51100000000E-03 0.  1.
        -12    1    3    3    0    0  0.39534657320E+01 -0.42034876924E+01 -0.97972158447E+01  0.11370340293E+02  0.00000000000E+00 0.  1.
</event>
<event>
 7    1  0.5239440E-013  0.5052886E+02  0.7816164E-02  0.1300439E+00
        -11   -1    0    0    0    0  0.00000000000E+00  0.00000000000E+00  0.45593999997E+02  0.45594000000E+02  0.51100000000E-03 0. -1.
         11   -1    0    0    0    0 -0.00000000000E+00 -0.00000000000E+00 -0.45593999997E+02  0.45594000000E+02  0.51100000000E-03 0.  1.
    9900012    2    1    2    0    0 -0.16574677681E+02 -0.94111522094E+01  0.35914841560E+02  0.50528861169E+02  0.30000004010E+02 0.  0.
        -12    1    1    2    0    0  0.16574677681E+02  0.94111522094E+01 -0.35914841560E+02  0.40659138831E+02  0.00000000000E+00 0.  1.
         11    1    3    3    0    0 -0.41935742065E+01 -0.13106026197E+02  0.89420593336E+01  0.16410801708E+02  0.51100000000E-03 0. -1.
        -11    1    3    3    0    0  0.22627225112E+01  0.33290366613E+01  0.76926370709E+00  0.40980684679E+01  0.51100000000E-03 0.  1.
         12    1    3    3    0    0 -0.14643825986E+02  0.36583732640E+00  0.26203518520E+02  0.30019990994E+02  0.00000000000E+00 0. -1.
</event>
<event>
 7    1  0.5041278E-013  0.5052885E+02  0.7816164E-02  0.1300439E+00
        -11   -1    0    0    0    0  0.00000000000E+00  0.00000000000E+00  0.45593999997E+02  0.45594000000E+02  0.51100000000E-03 0.  1.
         11   -1    0    0    0    0 -0.00000000000E+00 -0.00000000000E+00 -0.45593999997E+02  0.45594000000E+02  0.51100000000E-03 0. -1.
    9900012    2    1    2    0    0 -0.16299570310E+02 -0.14010511220E+02 -0.34513706870E+02  0.50528851228E+02  0.29999973792E+02 0.  0.
        -12    1    1    2    0    0  0.16299570310E+02  0.14010511220E+02  0.34513706870E+02  0.40659148772E+02  0.00000000000E+00 0.  1.
         11    1    3    3    0    0  0.14118429606E+01 -0.20844221353E+01  0.99810658219E+00  0.27081974067E+01  0.51100000000E-03 0.  1.
        -11    1    3    3    0    0 -0.12227700629E+02 -0.18996292764E+02 -0.21443460122E+02  0.31147998069E+02  0.51100000000E-03 0. -1.
        -12    1    3    3    0    0 -0.54837126423E+01  0.70702036786E+01 -0.14068353331E+02  0.16672655752E+02  0.00000000000E+00 0.  1.
</event>
<event>
 7    1  0.5041278E-013  0.5052886E+02  0.7816164E-02  0.1300439E+00
        -11   -1    0    0    0    0  0.00000000000E+00  0.00000000000E+00  0.45593999997E+02  0.45594000000E+02  0.51100000000E-03 0.  1.
         11   -1    0    0    0    0 -0.00000000000E+00 -0.00000000000E+00 -0.45593999997E+02  0.45594000000E+02  0.51100000000E-03 0. -1.
    9900012    2    1    2    0    0  0.93140863675E+01 -0.52440485008E+01 -0.39228988047E+02  0.50528858928E+02  0.29999997197E+02 0.  0.
        -12    1    1    2    0    0 -0.93140863675E+01  0.52440485008E+01  0.39228988047E+02  0.40659141072E+02  0.00000000000E+00 0.  1.
         11    1    3    3    0    0  0.92501120305E+01 -0.75485995591E+01 -0.28344018560E+02  0.30755963914E+02  0.51100000000E-03 0. -1.
        -11    1    3    3    0    0 -0.21338805973E+01  0.32920606178E+01 -0.14725469411E+02  0.15239112807E+02  0.51100000000E-03 0.  1.
        -12    1    3    3    0    0  0.21978549343E+01 -0.98750955955E+00  0.38404999235E+01  0.45337822075E+01  0.00000000000E+00 0.  1.
</event>
<event>
 7    1  0.5041278E-013  0.5052886E+02  0.7816164E-02  0.1300439E+00
        -11   -1    0    0    0    0  0.00000000000E+00  0.00000000000E+00  0.45593999997E+02  0.45594000000E+02  0.51100000000E-03 0.  1.
         11   -1    0    0    0    0 -0.00000000000E+00 -0.00000000000E+00 -0.45593999997E+02  0.45594000000E+02  0.51100000000E-03 0. -1.
    9900012    2    1    2    0    0 -0.25270435126E+02  0.15722659951E+02 -0.27701424276E+02  0.50528857924E+02  0.29999994146E+02 0.  0.
        -12    1    1    2    0    0  0.25270435126E+02 -0.15722659951E+02  0.27701424276E+02  0.40659142076E+02  0.00000000000E+00 0.  1.
         11    1    3    3    0    0 -0.16276221508E+01  0.14533222212E+02 -0.11497620119E+02  0.18602660304E+02  0.51100000000E-03 0. -1.
        -11    1    3    3    0    0  0.17332596873E+01  0.94355797725E+00 -0.21457610608E+01  0.29152669845E+01  0.51100000000E-03 0.  1.
         12    1    3    3    0    0 -0.25376072663E+02  0.24587976266E+00 -0.14058043096E+02  0.29010930636E+02  0.00000000000E+00 0. -1.
</event>
<event>
 7    1  0.5041278E-013  0.5052888E+02  0.7816164E-02  0.1300439E+00
        -11   -1    0    0    0    0  0.00000000000E+00  0.00000000000E+00  0.45593999997E+02  0.45594000000E+02  0.51100000000E-03 0. -1.
         11   -1    0    0    0    0 -0.00000000000E+00 -0.00000000000E+00 -0.45593999997E+02  0.45594000000E+02  0.51100000000E-03 0.  1.
    9900012    2    1    2    0    0 -0.20846548711E+02 -0.63567881838E+01  0.34324582997E+02  0.50528876214E+02  0.30000049739E+02 0.  0.
        -12    1    1    2    0    0  0.20846548711E+02  0.63567881838E+01 -0.34324582997E+02  0.40659123786E+02  0.00000000000E+00 0.  1.
         11    1    3    3    0    0 -0.67032300895E+01 -0.14913688642E+02  0.22548016940E+02  0.27852548729E+02  0.51100000000E-03 0.  1.
        -11    1    3    3    0    0 -0.24011705792E+01  0.36529236235E+01  0.84655135446E+01  0.95275595503E+01  0.51100000000E-03 0. -1.
        -12    1    3    3    0    0 -0.11742148042E+02  0.49039768342E+01  0.33110525121E+01  0.13148767934E+02  0.00000000000E+00 0.  1.
</event>
<event>
 7    1  0.5041278E-013  0.5052885E+02  0.7816164E-02  0.1300439E+00
        -11   -1    0    0    0    0  0.00000000000E+00  0.00000000000E+00  0.45593999997E+02  0.45594000000E+02  0.51100000000E-03 0.  1.
         11   -1    0    0    0    0 -0.00000000000E+00 -0.00000000000E+00 -0.45593999997E+02  0.45594000000E+02  0.51100000000E-03 0. -1.
    9900012    2    1    2    0    0 -0.33635038951E+02  0.16927081165E+02 -0.15340284337E+02  0.50528852867E+02  0.29999978775E+02 0.  0.
        -12    1    1    2    0    0  0.33635038951E+02 -0.16927081165E+02  0.15340284337E+02  0.40659147133E+02  0.00000000000E+00 0.  1.
         11    1    3    3    0    0 -0.21215923738E+02  0.96046290643E+01 -0.12644616591E+02  0.26500012236E+02  0.51100000000E-03 0. -1.
        -11    1    3    3    0    0 -0.10141648761E+02 -0.46757265966E+01 -0.37266210324E+01  0.11772984472E+02  0.51100000000E-03 0.  1.
        -12    1    3    3    0    0 -0.22774664513E+01  0.11998178698E+02  0.10309532861E+01  0.12255856159E+02  0.00000000000E+00 0.  1.
</event>
<event>
 7    1  0.5041278E-013  0.5052886E+02  0.7816164E-02  0.1300439E+00
        -11   -1    0    0    0    0  0.00000000000E+00  0.00000000000E+00  0.45593999997E+02  0.45594000000E+02  0.51100000000E-03 0. -1.
         11   -1    0    0    0    0 -0.00000000000E+00 -0.00000000000E+00 -0.45593999997E+02  0.45594000000E+02  0.51100000000E-03 0.  1.
    9900012    2    1    2    0    0 -0.34727373094E+02  0.19744376819E+02  0.75719785290E+01  0.50528859370E+02  0.29999998540E+02 0.  0.
        -12    1    1    2    0    0  0.34727373094E+02 -0.19744376819E+02 -0.75719785290E+01  0.40659140630E+02  0.00000000000E+00 0.  1.
         11    1    3    3    0    0 -0.16368073960E+02  0.10717123344E+02  0.10135999696E+01  0.19590762188E+02  0.51100000000E-03 0. -1.
        -11    1    3    3    0    0  0.22251140922E+01  0.91546538592E+01  0.38434938912E+01  0.10175031477E+02  0.51100000000E-03 0.  1.
         12    1    3    3    0    0 -0.20584413226E+02 -0.12740038404E+00  0.27148846681E+01  0.20763065705E+02  0.00000000000E+00 0. -1.
</event>
<event>
 7    1  0.5041278E-013  0.5052886E+02  0.7816164E-02  0.1300439E+00
        -11   -1    0    0    0    0  0.00000000000E+00  0.00000000000E+00  0.45593999997E+02  0.45594000000E+02  0.51100000000E-03 0. -1.
         11   -1    0    0    0    0 -0.00000000000E+00 -0.00000000000E+00 -0.45593999997E+02  0.45594000000E+02  0.51100000000E-03 0.  1.
    9900012    2    1    2    0    0  0.24138832585E+02 -0.25851980837E+02  0.20053866800E+02  0.50528859264E+02  0.29999998218E+02 0.  0.
        -12    1    1    2    0    0 -0.24138832585E+02  0.25851980837E+02 -0.20053866800E+02  0.40659140736E+02  0.00000000000E+00 0.  1.
         11    1    3    3    0    0  0.14231826510E+02 -0.12521191994E+02  0.41196502545E+01  0.19398367283E+02  0.51100000000E-03 0. -1.
        -11    1    3    3    0    0 -0.24159441160E+01 -0.46887283164E+01 -0.36619915048E+01  0.64211479689E+01  0.51100000000E-03 0.  1.
         12    1    3    3    0    0  0.12322950191E+02 -0.86420605270E+01  0.19596208050E+02  0.24709344012E+02  0.00000000000E+00 0. -1.
</event>
<event>
 7    1  0.5041278E-013  0.5052883E+02  0.7816164E-02  0.1300439E+00
        -11   -1    0    0    0    0  0.00000000000E+00  0.00000000000E+00  0.45593999997E+02  0.45594000000E+02  0.51100000000E-03 0.  1.
         11   -1    0    0    0    0 -0.00000000000E+00 -0.00000000000E+00 -0.45593999997E+02  0.45594000000E+02  0.51100000000E-03 0. -1.
    9900012    2    1    2    0    0  0.92673281705E+01 -0.26268737561E+02 -0.29618206343E+02  0.50528830168E+02  0.29999909778E+02 0.  0.
        -12    1    1    2    0    0 -0.92673281705E+01  0.26268737561E+02  0.29618206343E+02  0.40659169832E+02  0.00000000000E+00 0.  1.
         11    1    3    3    0    0 -0.18802774290E+01  0.10173299855E+01 -0.79534199832E+01  0.82357327057E+01  0.51100000000E-03 0. -1.
        -11    1    3    3    0    0 -0.51280578392E+01 -0.84423432122E+00 -0.41006263836E+01  0.66200336698E+01  0.51100000000E-03 0.  1.
         12    1    3    3    0    0  0.16275663439E+02 -0.26441833225E+02 -0.17564159976E+02  0.35673063792E+02  0.00000000000E+00 0. -1.
</event>
<event>
 7    1  0.5041278E-013  0.5052886E+02  0.7816164E-02  0.1300439E+00
        -11   -1    0    0    0    0  0.00000000000E+00  0.00000000000E+00  0.45593999997E+02  0.45594000000E+02  0.51100000000E-03 0.  1.
         11   -1    0    0    0    0 -0.00000000000E+00 -0.00000000000E+00 -0.45593999997E+02  0.45594000000E+02  0.51100000000E-03 0. -1.
    9900012    2    1    2    0    0 -0.19444947173E+02  0.35177804025E+02  0.61303798775E+01  0.50528862970E+02  0.30000009485E+02 0.  0.
        -12    1    1    2    0    0  0.19444947173E+02 -0.35177804025E+02 -0.61303798775E+01  0.40659137030E+02  0.00000000000E+00 0.  1.
         11    1    3    3    0    0 -0.64885078365E+01  0.25340865442E+02 -0.39669794494E+01  0.26457458713E+02  0.51100000000E-03 0. -1.
        -11    1    3    3    0    0 -0.77096747929E+01  0.13426070958E+02  0.67919436632E+01  0.16906477036E+02  0.51100000000E-03 0.  1.
        -12    1    3    3    0    0 -0.52467645435E+01 -0.35891323757E+01  0.33054156637E+01  0.71649272219E+01  0.00000000000E+00 0.  1.
</event>
<event>
 7    1  0.5041278E-013  0.5052884E+02  0.7816164E-02  0.1300439E+00
        -11   -1    0    0    0    0  0.00000000000E+00  0.00000000000E+00  0.45593999997E+02  0.45594000000E+02  0.51100000000E-03 0. -1.
         11   -1    0    0    0    0 -0.00000000000E+00 -0.00000000000E+00 -0.45593999997E+02  0.45594000000E+02  0.51100000000E-03 0.  1.
    9900012    2    1    2    0    0 -0.29733434308E+02 -0.27407379450E+02 -0.42338768456E+01  0.50528840181E+02  0.29999940214E+02 0.  0.
        -12    1    1    2    0    0  0.29733434308E+02  0.27407379450E+02  0.42338768456E+01  0.40659159819E+02  0.00000000000E+00 0.  1.
         11    1    3    3    0    0 -0.77694176237E+01 -0.33102108900E+00  0.72234077203E+01  0.10613719637E+02  0.51100000000E-03 0. -1.
        -11    1    3    3    0    0 -0.12274765468E+02 -0.14092972582E+02  0.20784732768E+01  0.18804302564E+02  0.51100000000E-03 0.  1.
        -12    1    3    3    0    0 -0.96892512158E+01 -0.12983385780E+02 -0.13535757843E+02  0.21110817980E+02  0.00000000000E+00 0.  1.
</event>
<event>
 7    1  0.5041278E-013  0.5052886E+02  0.7816164E-02  0.1300439E+00
        -11   -1    0    0    0    0  0.00000000000E+00  0.00000000000E+00  0.45593999997E+02  0.45594000000E+02  0.51100000000E-03 0. -1.
         11   -1    0    0    0    0 -0.00000000000E+00 -0.00000000000E+00 -0.45593999997E+02  0.45594000000E+02  0.51100000000E-03 0.  1.
    9900012    2    1    2    0    0 -0.16147140778E+02 -0.11675371500E+02  0.35441805531E+02  0.50528855466E+02  0.29999986674E+02 0.  0.
        -12    1    1    2    0    0  0.16147140778E+02  0.11675371500E+02 -0.35441805531E+02  0.40659144534E+02  0.00000000000E+00 0.  1.
         11    1    3    3    0    0 -0.16467981830E+02 -0.10367534450E+02  0.37001494920E+02  0.41806588269E+02  0.51100000000E-03 0. -1.
        -11    1    3    3    0    0 -0.15196160947E+01 -0.45810324040E+01 -0.89107264143E+00  0.49080649624E+01  0.51100000000E-03 0.  1.
        -12    1    3    3    0    0  0.18404571461E+01  0.32731953534E+01 -0.66861674808E+00  0.38142022343E+01  0.00000000000E+00 0.  1.
</event>
<event>
 7    1  0.5041278E-013  0.5052886E+02  0.7816164E-02  0.1300439E+00
        -11   -1    0    0    0    0  0.00000000000E+00  0.00000000000E+00  0.45593999997E+02  0.45594000000E+02  0.51100000000E-03 0.  1.
         11   -1    0    0    0    0 -0.00000000000E+00 -0.00000000000E+00 -0.45593999997E+02  0.45594000000E+02  0.51100000000E-03 0. -1.
    9900012    2    1    2    0    0 -0.18872575125E+02 -0.34860989352E+02 -0.90389747278E+01  0.50528859151E+02  0.29999997876E+02 0.  0.
        -12    1    1    2    0    0  0.18872575125E+02  0.34860989352E+02  0.90389747278E+01  0.40659140849E+02  0.00000000000E+00 0.  1.
         11    1    3    3    0    0 -0.63768600510E+01 -0.22506024978E+02  0.18377653488E+01  0.23464076504E+02  0.51100000000E-03 0. -1.
        -11    1    3    3    0    0 -0.10892631423E+02 -0.76035120526E+01  0.18252749790E+01  0.13408745052E+02  0.51100000000E-03 0.  1.
        -12    1    3    3    0    0 -0.16030836509E+01 -0.47514523207E+01 -0.12702015056E+02  0.13656037596E+02  0.00000000000E+00 0.  1.
</event>
<event>
 7    1  0.5041278E-013  0.5052886E+02  0.7816164E-02  0.1300439E+00
        -11   -1    0    0    0    0  0.00000000000E+00  0.00000000000E+00  0.45593999997E+02  0.45594000000E+02  0.51100000000E-03 0.  1.
         11   -1    0    0    0    0 -0.00000000000E+00 -0.00000000000E+00 -0.45593999997E+02  0.45594000000E+02  0.51100000000E-03 0. -1.
    9900012    2    1    2    0    0 -0.38800717661E+00 -0.15260453514E+02 -0.37684662100E+02  0.50528858978E+02  0.29999997350E+02 0.  0.
        -12    1    1    2    0    0  0.38800717661E+00  0.15260453514E+02  0.37684662100E+02  0.40659141022E+02  0.00000000000E+00 0.  1.
         11    1    3    3    0    0  0.44717402776E+01  0.14749956910E+00 -0.24669916064E+02  0.25072354818E+02  0.51100000000E-03 0. -1.
        -11    1    3    3    0    0  0.18284366303E+01 -0.43365649676E+00  0.23326000371E+01  0.29953733762E+01  0.51100000000E-03 0.  1.
        -12    1    3    3    0    0 -0.66881840845E+01 -0.14974296587E+02 -0.15347346073E+02  0.22461130784E+02  0.00000000000E+00 0.  1.
</event>
<event>
 7    1  0.7259173E-013  0.5052887E+02  0.7816164E-02  0.1300439E+00
        -11   -1    0    0    0    0  0.00000000000E+00  0.00000000000E+00  0.45593999997E+02  0.45594000000E+02  0.51100000000E-03 0.  1.
         11   -1    0    0    0    0 -0.00000000000E+00 -0.00000000000E+00 -0.45593999997E+02  0.45594000000E+02  0.51100000000E-03 0. -1.
    9900012    2    1    2    0    0  0.24233598978E+00  0.32689022724E+02 -0.24177142297E+02  0.50528866425E+02  0.30000019987E+02 0.  0.
        -12    1    1    2    0    0 -0.24233598978E+00 -0.32689022724E+02  0.24177142297E+02  0.40659133575E+02  0.00000000000E+00 0.  1.
         11    1    3    3    0    0 -0.50695753480E+01  0.16568708550E+02 -0.10292403722E+01  0.17357477733E+02  0.51100000000E-03 0. -1.
        -11    1    3    3    0    0  0.22182821023E+01 -0.24343111533E+01  0.64389187303E-01  0.32940541138E+01  0.51100000000E-03 0.  1.
         12    1    3    3    0    0  0.30936292355E+01  0.18554625327E+02 -0.23212291112E+02  0.29877334579E+02  0.00000000000E+00 0. -1.
</event>
<event>
 7    1  0.5444076E-013  0.5052887E+02  0.7816164E-02  0.1300439E+00
        -11   -1    0    0    0    0  0.00000000000E+00  0.00000000000E+00  0.45593999997E+02  0.45594000000E+02  0.51100000000E-03 0.  1.
         11   -1    0    0    0    0 -0.00000000000E+00 -0.00000000000E+00 -0.45593999997E+02  0.45594000000E+02  0.51100000000E-03 0. -1.
    9900012    2    1    2    0    0  0.11219553632E+02  0.11328713683E+02 -0.37402500243E+02  0.50528866194E+02  0.30000019285E+02 0.  0.
        -12    1    1    2    0    0 -0.11219553632E+02 -0.11328713683E+02  0.37402500243E+02  0.40659133806E+02  0.00000000000E+00 0.  1.
         11    1    3    3    0    0 -0.23762087163E+01  0.56946390790E+01 -0.15308870876E+01  0.63575858342E+01  0.51100000000E-03 0. -1.
        -11    1    3    3    0    0  0.78806035922E+01 -0.14445374541E+01 -0.93118794522E+00  0.80658361429E+01  0.51100000000E-03 0.  1.
         12    1    3    3    0    0  0.57151587557E+01  0.70786120579E+01 -0.34940425210E+02  0.36105444217E+02  0.00000000000E+00 0. -1.
</event>
<event>
 7    1  0.5041278E-013  0.5052886E+02  0.7816164E-02  0.1300439E+00
        -11   -1    0    0    0    0  0.00000000000E+00  0.00000000000E+00  0.45593999997E+02  0.45594000000E+02  0.51100000000E-03 0.  1.
         11   -1    0    0    0    0 -0.00000000000E+00 -0.00000000000E+00 -0.45593999997E+02  0.45594000000E+02  0.51100000000E-03 0. -1.
    9900012    2    1    2    0    0  0.11709862667E+02 -0.10883121796E-01 -0.38936415897E+02  0.50528862220E+02  0.30000007202E+02 0.  0.
        -12    1    1    2    0    0 -0.11709862667E+02  0.10883121796E-01  0.38936415897E+02  0.40659137780E+02  0.00000000000E+00 0.  1.
         11    1    3    3    0    0 -0.35897672631E+01  0.34782687317E+01 -0.20136635637E+02  0.20747743911E+02  0.51100000000E-03 0. -1.
        -11    1    3    3    0    0  0.75134494248E+01  0.22575680217E+01 -0.18505028720E+02  0.20099368742E+02  0.51100000000E-03 0.  1.
        -12    1    3    3    0    0  0.77861805056E+01 -0.57467198751E+01 -0.29475153993E+00  0.96817495660E+01  0.00000000000E+00 0.  1.
</event>
<event>
 7    1  0.5041278E-013  0.5052886E+02  0.7816164E-02  0.1300439E+00
        -11   -1    0    0    0    0  0.00000000000E+00  0.00000000000E+00  0.45593999997E+02  0.45594000000E+02  0.51100000000E-03 0. -1.
         11   -1    0    0    0    0 -0.00000000000E+00 -0.00000000000E+00 -0.45593999997E+02  0.45594000000E+02  0.51100000000E-03 0.  1.
    9900012    2    1    2    0    0  0.10939692190E+02  0.37246411814E+02 -0.12091061802E+02  0.50528857932E+02  0.29999994169E+02 0.  0.
        -12    1    1    2    0    0 -0.10939692190E+02 -0.37246411814E+02  0.12091061802E+02  0.40659142068E+02  0.00000000000E+00 0.  1.
         11    1    3    3    0    0  0.14005078400E+02  0.26452037802E+02 -0.61179942926E+01  0.30549670691E+02  0.51100000000E-03 0. -1.
        -11    1    3    3    0    0 -0.10432333266E+00  0.58351494869E+01  0.49306542760E+01  0.76401050217E+01  0.51100000000E-03 0.  1.
        -12    1    3    3    0    0 -0.29610628772E+01  0.49592245248E+01 -0.10903721785E+02  0.12339082219E+02  0.00000000000E+00 0.  1.
</event>
<event>
 7    1  0.5041278E-013  0.5052886E+02  0.7816164E-02  0.1300439E+00
        -11   -1    0    0    0    0  0.00000000000E+00  0.00000000000E+00  0.45593999997E+02  0.45594000000E+02  0.51100000000E-03 0.  1.
         11   -1    0    0    0    0 -0.00000000000E+00 -0.00000000000E+00 -0.45593999997E+02  0.45594000000E+02  0.51100000000E-03 0. -1.
    9900012    2    1    2    0    0  0.93354818895E+01 -0.24374449758E+02 -0.31175322683E+02  0.50528858746E+02  0.29999996644E+02 0.  0.
        -12    1    1    2    0    0 -0.93354818895E+01  0.24374449758E+02  0.31175322683E+02  0.40659141254E+02  0.00000000000E+00 0.  1.
         11    1    3    3    0    0 -0.74617241059E+00 -0.16156653082E+02 -0.94395832731E+01  0.18726984400E+02  0.51100000000E-03 0. -1.
        -11    1    3    3    0    0  0.17469395342E+01 -0.11182131743E+02 -0.40382446995E+01  0.12016625507E+02  0.51100000000E-03 0.  1.
        -12    1    3    3    0    0  0.83347147658E+01  0.29643350666E+01 -0.17697494710E+02  0.19785248840E+02  0.00000000000E+00 0.  1.
</event>
<event>
 7    1  0.5041278E-013  0.5052886E+02  0.7816164E-02  0.1300439E+00
        -11   -1    0    0    0    0  0.00000000000E+00  0.00000000000E+00  0.45593999997E+02  0.45594000000E+02  0.51100000000E-03 0.  1.
         11   -1    0    0    0    0 -0.00000000000E+00 -0.00000000000E+00 -0.45593999997E+02  0.45594000000E+02  0.51100000000E-03 0. -1.
    9900012    2    1    2    0    0  0.16568347547E+02  0.28608980353E+02 -0.23668164051E+02  0.50528857279E+02  0.29999992185E+02 0.  0.
        -12    1    1    2    0    0 -0.16568347547E+02 -0.28608980353E+02  0.23668164051E+02  0.40659142721E+02  0.00000000000E+00 0.  1.
         11    1    3    3    0    0  0.13469569399E+02  0.11842669568E+01 -0.10047088136E+02  0.16845645381E+02  0.51100000000E-03 0. -1.
        -11    1    3    3    0    0  0.47064504685E+01  0.10091911157E+02 -0.11729740055E+02  0.16173563269E+02  0.51100000000E-03 0.  1.
        -12    1    3    3    0    0 -0.16076723208E+01  0.17332802239E+02 -0.18913358602E+01  0.17509648628E+02  0.00000000000E+00 0.  1.
</event>
<event>
 7    1  0.5041278E-013  0.5052886E+02  0.7816164E-02  0.1300439E+00
        -11   -1    0    0    0    0  0.00000000000E+00  0.00000000000E+00  0.45593999997E+02  0.45594000000E+02  0.51100000000E-03 0. -1.
         11   -1    0    0    0    0 -0.00000000000E+00 -0.00000000000E+00 -0.45593999997E+02  0.45594000000E+02  0.51100000000E-03 0.  1.
    9900012    2    1    2    0    0 -0.11965502491E+02 -0.22596867881E+02 -0.31612877270E+02  0.50528859611E+02  0.29999999273E+02 0.  0.
        -12    1    1    2    0    0  0.11965502491E+02  0.22596867881E+02  0.31612877270E+02  0.40659140389E+02  0.00000000000E+00 0.  1.
         11    1    3    3    0    0  0.53935581187E+00 -0.71937032096E+01 -0.29848970980E+01  0.78070405088E+01  0.51100000000E-03 0. -1.
        -11    1    3    3    0    0 -0.18279028745E+02 -0.17421510993E+02 -0.20359330478E+02  0.32436619351E+02  0.51100000000E-03 0.  1.
        -12    1    3    3    0    0  0.57741704423E+01  0.20183463209E+01 -0.82686496938E+01  0.10285199751E+02  0.00000000000E+00 0.  1.
</event>
<event>
 7    1  0.5041278E-013  0.5052886E+02  0.7816164E-02  0.1300439E+00
        -11   -1    0    0    0    0  0.00000000000E+00  0.00000000000E+00  0.45593999997E+02  0.45594000000E+02  0.51100000000E-03 0.  1.
         11   -1    0    0    0    0 -0.00000000000E+00 -0.00000000000E+00 -0.45593999997E+02  0.45594000000E+02  0.51100000000E-03 0. -1.
    9900012    2    1    2    0    0 -0.42647245231E+01  0.28921160830E+02 -0.28258519223E+02  0.50528864155E+02  0.30000013084E+02 0.  0.
        -12    1    1    2    0    0  0.42647245231E+01 -0.28921160830E+02  0.28258519223E+02  0.40659135845E+02  0.00000000000E+00 0.  1.
         11    1    3    3    0    0  0.30383132971E+01 -0.73570764916E+00 -0.62709110800E+00  0.31883941029E+01  0.51100000000E-03 0.  1.
        -11    1    3    3    0    0  0.28706655931E+01  0.26826086008E+02 -0.14973392312E+02  0.30855827473E+02  0.51100000000E-03 0. -1.
        -12    1    3    3    0    0 -0.10173703413E+02  0.28307824710E+01 -0.12658035803E+02  0.16484642579E+02  0.00000000000E+00 0.  1.
</event>
<event>
 7    1  0.5041278E-013  0.5052886E+02  0.7816164E-02  0.1300439E+00
        -11   -1    0    0    0    0  0.00000000000E+00  0.00000000000E+00  0.45593999997E+02  0.45594000000E+02  0.51100000000E-03 0.  1.
         11   -1    0    0    0    0 -0.00000000000E+00 -0.00000000000E+00 -0.45593999997E+02  0.45594000000E+02  0.51100000000E-03 0. -1.
    9900012    2    1    2    0    0  0.67354665240E+01  0.39987088951E+02 -0.29718589977E+01  0.50528859109E+02  0.29999997748E+02 0.  0.
        -12    1    1    2    0    0 -0.67354665240E+01 -0.39987088951E+02  0.29718589977E+01  0.40659140891E+02  0.00000000000E+00 0.  1.
         11    1    3    3    0    0 -0.53804598042E+01  0.19554268272E+02 -0.10202642919E+02  0.22702702002E+02  0.51100000000E-03 0. -1.
        -11    1    3    3    0    0  0.39759123450E+01  0.44717578187E+01 -0.35092767330E+01  0.69368235104E+01  0.51100000000E-03 0.  1.
         12    1    3    3    0    0  0.81400139831E+01  0.15961062860E+02  0.10740060655E+02  0.20889333597E+02  0.00000000000E+00 0. -1.
</event>
<event>
 7    1  0.5041278E-013  0.5052886E+02  0.7816164E-02  0.1300439E+00
        -11   -1    0    0    0    0  0.00000000000E+00  0.00000000000E+00  0.45593999997E+02  0.45594000000E+02  0.51100000000E-03 0.  1.
         11   -1    0    0    0    0 -0.00000000000E+00 -0.00000000000E+00 -0.45593999997E+02  0.45594000000E+02  0.51100000000E-03 0. -1.
    9900012    2    1    2    0    0  0.15807447671E+02  0.28252141789E+02 -0.24598919576E+02  0.50528858816E+02  0.29999996856E+02 0.  0.
        -12    1    1    2    0    0 -0.15807447671E+02 -0.28252141789E+02  0.24598919576E+02  0.40659141184E+02  0.00000000000E+00 0.  1.
         11    1    3    3    0    0 -0.37355185251E+01  0.16006366790E+02 -0.61942492022E+01  0.17564925275E+02  0.51100000000E-03 0. -1.
        -11    1    3    3    0    0  0.73489604635E+01  0.63223759000E+01 -0.16687532472E+02  0.19299051717E+02  0.51100000000E-03 0.  1.
        -12    1    3    3    0    0  0.12194005732E+02  0.59233990992E+01 -0.17171379024E+01  0.13664881824E+02  0.00000000000E+00 0.  1.
</event>
<event>
 7    1  0.5041278E-013  0.5052887E+02  0.7816164E-02  0.1300439E+00
        -11   -1    0    0    0    0  0.00000000000E+00  0.00000000000E+00  0.45593999997E+02  0.45594000000E+02  0.51100000000E-03 0. -1.
         11   -1    0    0    0    0 -0.00000000000E+00 -0.00000000000E+00 -0.45593999997E+02  0.45594000000E+02  0.51100000000E-03 0.  1.
    9900012    2    1    2    0    0 -0.16221011422E+02  0.35900957836E+02  0.10058079646E+02  0.50528868784E+02  0.30000027155E+02 0.  0.
        -12    1    1    2    0    0  0.16221011422E+02 -0.35900957836E+02 -0.10058079646E+02  0.40659131216E+02  0.00000000000E+00 0.  1.
         11    1    3    3    0    0  0.99285996751E+00  0.17414498719E+02  0.13845468289E+02  0.22269879411E+02  0.51100000000E-03 0. -1.
        -11    1    3    3    0    0 -0.34487998201E+01 -0.11597427386E+01  0.10510837724E+01  0.37873474591E+01  0.51100000000E-03 0.  1.
         12    1    3    3    0    0 -0.13765071570E+02  0.19646201855E+02 -0.48384724151E+01  0.24471641914E+02  0.00000000000E+00 0. -1.
</event>
<event>
 7    1  0.5041278E-013  0.5052887E+02  0.7816164E-02  0.1300439E+00
        -11   -1    0    0    0    0  0.00000000000E+00  0.00000000000E+00  0.45593999997E+02  0.45594000000E+02  0.51100000000E-03 0.  1.
         11   -1    0    0    0    0 -0.00000000000E+00 -0.00000000000E+00 -0.45593999997E+02  0.45594000000E+02  0.51100000000E-03 0. -1.
    9900012    2    1    2    0    0  0.29453214859E+02 -0.42998381646E+01 -0.27698092100E+02  0.50528870893E+02  0.30000033568E+02 0.  0.
        -12    1    1    2    0    0 -0.29453214859E+02  0.42998381646E+01  0.27698092100E+02  0.40659129107E+02  0.00000000000E+00 0.  1.
         11    1    3    3    0    0  0.16074805283E+02 -0.41829807330E+01 -0.81349686156E+01  0.18495253643E+02  0.51100000000E-03 0. -1.
        -11    1    3    3    0    0  0.14657971432E+02  0.63193457759E+01 -0.61585799248E+01  0.17109014130E+02  0.51100000000E-03 0.  1.
        -12    1    3    3    0    0 -0.12795618563E+01 -0.64362032074E+01 -0.13404543559E+02  0.14924603120E+02  0.00000000000E+00 0.  1.
</event>
<event>
 7    1  0.5041278E-013  0.5052887E+02  0.7816164E-02  0.1300439E+00
        -11   -1    0    0    0    0  0.00000000000E+00  0.00000000000E+00  0.45593999997E+02  0.45594000000E+02  0.51100000000E-03 0. -1.
         11   -1    0    0    0    0 -0.00000000000E+00 -0.00000000000E+00 -0.45593999997E+02  0.45594000000E+02  0.51100000000E-03 0.  1.
    9900012    2    1    2    0    0  0.20634891367E+02  0.33353256549E+02  0.10720361831E+02  0.50528872834E+02  0.30000039465E+02 0.  0.
        -12    1    1    2    0    0 -0.20634891367E+02 -0.33353256549E+02 -0.10720361831E+02  0.40659127166E+02  0.00000000000E+00 0.  1.
         11    1    3    3    0    0 -0.42211308902E+01  0.10485262859E+02 -0.23551993727E+01  0.11545806492E+02  0.51100000000E-03 0. -1.
        -11    1    3    3    0    0  0.43941446940E+01  0.57838584463E+01  0.96936231947E+01  0.12113127467E+02  0.51100000000E-03 0.  1.
        -12    1    3    3    0    0  0.20461877563E+02  0.17084135244E+02  0.33819380086E+01  0.26869938875E+02  0.00000000000E+00 0.  1.
</event>
<event>
 7    1  0.5041278E-013  0.5052886E+02  0.7816164E-02  0.1300439E+00
        -11   -1    0    0    0    0  0.00000000000E+00  0.00000000000E+00  0.45593999997E+02  0.45594000000E+02  0.51100000000E-03 0.  1.
         11   -1    0    0    0    0 -0.00000000000E+00 -0.00000000000E+00 -0.45593999997E+02  0.45594000000E+02  0.51100000000E-03 0. -1.
    9900012    2    1    2    0    0  0.47532689948E+01  0.31176371600E+02 -0.25663322168E+02  0.50528858138E+02  0.29999994795E+02 0.  0.
        -12    1    1    2    0    0 -0.47532689948E+01 -0.31176371600E+02  0.25663322168E+02  0.40659141862E+02  0.00000000000E+00 0.  1.
         11    1    3    3    0    0  0.14358085159E+01  0.92948654716E+01 -0.12801374782E+02  0.15884938363E+02  0.51100000000E-03 0. -1.
        -11    1    3    3    0    0  0.13236560360E+02  0.11582099372E+02 -0.48130535141E+01  0.18235049778E+02  0.51100000000E-03 0.  1.
         12    1    3    3    0    0 -0.99190998813E+01  0.10299406757E+02 -0.80488938723E+01  0.16408869997E+02  0.00000000000E+00 0. -1.
</event>
<event>
 7    1  0.5041278E-013  0.5052885E+02  0.7816164E-02  0.1300439E+00
        -11   -1    0    0    0    0  0.00000000000E+00  0.00000000000E+00  0.45593999997E+02  0.45594000000E+02  0.51100000000E-03 0. -1.
         11   -1    0    0    0    0 -0.00000000000E+00 -0.00000000000E+00 -0.45593999997E+02  0.45594000000E+02  0.51100000000E-03 0.  1.
    9900012    2    1    2    0    0  0.16191255344E+02  0.17496809499E+02  0.32937380549E+02  0.50528854292E+02  0.29999983106E+02 0.  0.
        -12    1    1    2    0    0 -0.16191255344E+02 -0.17496809499E+02 -0.32937380549E+02  0.40659145708E+02  0.00000000000E+00 0.  1.
         11    1    3    3    0    0  0.32058757764E+01 -0.37450556583E+01  0.16291631193E+02  0.17021172949E+02  0.51100000000E-03 0. -1.
        -11    1    3    3    0    0 -0.33732937112E+01  0.24916628719E+01  0.22158971144E+01  0.47431734748E+01  0.51100000000E-03 0.  1.
        -12    1    3    3    0    0  0.16358673279E+02  0.18750202285E+02  0.14429852242E+02  0.28764507868E+02  0.00000000000E+00 0.  1.
</event>
<event>
 7    1  0.5041278E-013  0.5052886E+02  0.7816164E-02  0.1300439E+00
        -11   -1    0    0    0    0  0.00000000000E+00  0.00000000000E+00  0.45593999997E+02  0.45594000000E+02  0.51100000000E-03 0.  1.
         11   -1    0    0    0    0 -0.00000000000E+00 -0.00000000000E+00 -0.45593999997E+02  0.45594000000E+02  0.51100000000E-03 0. -1.
    9900012    2    1    2    0    0  0.18623487908E+02  0.21091620306E+02 -0.29350891507E+02  0.50528861037E+02  0.30000003608E+02 0.  0.
        -12    1    1    2    0    0 -0.18623487908E+02 -0.21091620306E+02  0.29350891507E+02  0.40659138963E+02  0.00000000000E+00 0.  1.
         11    1    3    3    0    0  0.12331970190E+02  0.24323366003E+01 -0.67578464299E+01  0.14271027949E+02  0.51100000000E-03 0. -1.
        -11    1    3    3    0    0  0.31567661811E+01 -0.18348122860E+01 -0.12834117968E+02  0.13343398859E+02  0.51100000000E-03 0.  1.
        -12    1    3    3    0    0  0.31347515373E+01  0.20494095991E+02 -0.97589271090E+01  0.22914434229E+02  0.00000000000E+00 0.  1.
</event>
<event>
 7    1  0.5041278E-013  0.5052888E+02  0.7816164E-02  0.1300439E+00
        -11   -1    0    0    0    0  0.00000000000E+00  0.00000000000E+00  0.45593999997E+02  0.45594000000E+02  0.51100000000E-03 0.  1.
         11   -1    0    0    0    0 -0.00000000000E+00 -0.00000000000E+00 -0.45593999997E+02  0.45594000000E+02  0.51100000000E-03 0. -1.
    9900012    2    1    2    0    0 -0.14246985747E+02 -0.27786208959E+02 -0.26040619914E+02  0.50528881752E+02  0.30000066574E+02 0.  0.
        -12    1    1    2    0    0  0.14246985747E+02  0.27786208959E+02  0.26040619914E+02  0.40659118248E+02  0.00000000000E+00 0.  1.
         11    1    3    3    0    0  0.43014216289E+01 -0.11470491315E+02 -0.90272163134E+01  0.15217261044E+02  0.51100000000E-03 0. -1.
        -11    1    3    3    0    0  0.16267289471E+01  0.26213203613E+00  0.23025382688E+01  0.28313676928E+01  0.51100000000E-03 0.  1.
         12    1    3    3    0    0 -0.20175136323E+02 -0.16577849681E+02 -0.19315941869E+02  0.32480253016E+02  0.00000000000E+00 0. -1.
</event>
<event>
 7    1  0.5041278E-013  0.5052884E+02  0.7816164E-02  0.1300439E+00
        -11   -1    0    0    0    0  0.00000000000E+00  0.00000000000E+00  0.45593999997E+02  0.45594000000E+02  0.51100000000E-03 0.  1.
         11   -1    0    0    0    0 -0.00000000000E+00 -0.00000000000E+00 -0.45593999997E+02  0.45594000000E+02  0.51100000000E-03 0. -1.
    9900012    2    1    2    0    0  0.66776586456E+01 -0.25269842270E+02 -0.31145004945E+02  0.50528838838E+02  0.29999936133E+02 0.  0.
        -12    1    1    2    0    0 -0.66776586456E+01  0.25269842270E+02  0.31145004945E+02  0.40659161162E+02  0.00000000000E+00 0.  1.
         11    1    3    3    0    0 -0.98274070044E+01 -0.13353143390E+02 -0.17547275762E+02  0.24141069855E+02  0.51100000000E-03 0. -1.
        -11    1    3    3    0    0  0.15909805204E+01  0.12050285647E+01 -0.36764044039E+01  0.41832119789E+01  0.51100000000E-03 0.  1.
        -12    1    3    3    0    0  0.14914085130E+02 -0.13121727445E+02 -0.99213247787E+01  0.22204557004E+02  0.00000000000E+00 0.  1.
</event>
<event>
 7    1  0.5041278E-013  0.5052886E+02  0.7816164E-02  0.1300439E+00
        -11   -1    0    0    0    0  0.00000000000E+00  0.00000000000E+00  0.45593999997E+02  0.45594000000E+02  0.51100000000E-03 0.  1.
         11   -1    0    0    0    0 -0.00000000000E+00 -0.00000000000E+00 -0.45593999997E+02  0.45594000000E+02  0.51100000000E-03 0. -1.
    9900012    2    1    2    0    0  0.25408210925E+02 -0.16631023311E+02 -0.27036971723E+02  0.50528856395E+02  0.29999989497E+02 0.  0.
        -12    1    1    2    0    0 -0.25408210925E+02  0.16631023311E+02  0.27036971723E+02  0.40659143605E+02  0.00000000000E+00 0.  1.
         11    1    3    3    0    0  0.15613755065E+02 -0.20717002694E+01 -0.11461789434E+02  0.19479576652E+02  0.51100000000E-03 0. -1.
        -11    1    3    3    0    0  0.46999366463E+01  0.13323817653E+01  0.32688353320E+01  0.58779188780E+01  0.51100000000E-03 0.  1.
        -12    1    3    3    0    0  0.50945192131E+01 -0.15891704807E+02 -0.18844017621E+02  0.25171360865E+02  0.00000000000E+00 0.  1.
</event>
<event>
 7    1  0.5041278E-013  0.5052887E+02  0.7816164E-02  0.1300439E+00
        -11   -1    0    0    0    0  0.00000000000E+00  0.00000000000E+00  0.45593999997E+02  0.45594000000E+02  0.51100000000E-03 0.  1.
         11   -1    0    0    0    0 -0.00000000000E+00 -0.00000000000E+00 -0.45593999997E+02  0.45594000000E+02  0.51100000000E-03 0. -1.
    9900012    2    1    2    0    0 -0.47595640541E+01  0.79602615044E+01 -0.39587193783E+02  0.50528866650E+02  0.30000020668E+02 0.  0.
        -12    1    1    2    0    0  0.47595640541E+01 -0.79602615044E+01  0.39587193783E+02  0.40659133350E+02  0.00000000000E+00 0.  1.
         11    1    3    3    0    0  0.10092487892E+01  0.11003310514E+02 -0.68627762611E+01  0.13007271953E+02  0.51100000000E-03 0. -1.
        -11    1    3    3    0    0 -0.76156756289E+01  0.31795441437E+01 -0.64980519232E+01  0.10503937133E+02  0.51100000000E-03 0.  1.
         12    1    3    3    0    0  0.18468627856E+01 -0.62225931533E+01 -0.26226365599E+02  0.27017657563E+02  0.00000000000E+00 0. -1.
</event>
<event>
 7    1  0.5041278E-013  0.5052885E+02  0.7816164E-02  0.1300439E+00
        -11   -1    0    0    0    0  0.00000000000E+00  0.00000000000E+00  0.45593999997E+02  0.45594000000E+02  0.51100000000E-03 0.  1.
         11   -1    0    0    0    0 -0.00000000000E+00 -0.00000000000E+00 -0.45593999997E+02  0.45594000000E+02  0.51100000000E-03 0. -1.
    9900012    2    1    2    0    0  0.47926955821E+01 -0.37983259993E+02 -0.13691907390E+02  0.50528852215E+02  0.29999976793E+02 0.  0.
        -12    1    1    2    0    0 -0.47926955821E+01  0.37983259993E+02  0.13691907390E+02  0.40659147785E+02  0.00000000000E+00 0.  1.
         11    1    3    3    0    0  0.17493916966E+01 -0.73913386576E+01  0.12528921239E+01  0.76981814343E+01  0.51100000000E-03 0. -1.
        -11    1    3    3    0    0  0.10113683191E+02 -0.29404891736E+02 -0.16911074074E+02  0.35396591252E+02  0.51100000000E-03 0.  1.
        -12    1    3    3    0    0 -0.70703793053E+01 -0.11870295989E+01  0.19662745594E+01  0.74340795283E+01  0.00000000000E+00 0.  1.
</event>
<event>
 7    1  0.5041278E-013  0.5052886E+02  0.7816164E-02  0.1300439E+00
        -11   -1    0    0    0    0  0.00000000000E+00  0.00000000000E+00  0.45593999997E+02  0.45594000000E+02  0.51100000000E-03 0. -1.
         11   -1    0    0    0    0 -0.00000000000E+00 -0.00000000000E+00 -0.45593999997E+02  0.45594000000E+02  0.51100000000E-03 0.  1.
    9900012    2    1    2    0    0 -0.26704436839E+02  0.65129247103E+01  0.29960312987E+02  0.50528862165E+02  0.30000007038E+02 0.  0.
        -12    1    1    2    0    0  0.26704436839E+02 -0.65129247103E+01 -0.29960312987E+02  0.40659137835E+02  0.00000000000E+00 0.  1.
         11    1    3    3    0    0 -0.22742183560E+01  0.72409842651E+01  0.10140880455E+02  0.12666545658E+02  0.51100000000E-03 0. -1.
        -11    1    3    3    0    0 -0.22700550845E+01  0.80487059217E+01  0.62033963800E+01  0.10412345750E+02  0.51100000000E-03 0.  1.
         12    1    3    3    0    0 -0.22160163399E+02 -0.87767654765E+01  0.13616036152E+02  0.27449970757E+02  0.00000000000E+00 0. -1.
</event>
<event>
 7    1  0.5041278E-013  0.5052885E+02  0.7816164E-02  0.1300439E+00
        -11   -1    0    0    0    0  0.00000000000E+00  0.00000000000E+00  0.45593999997E+02  0.45594000000E+02  0.51100000000E-03 0.  1.
         11   -1    0    0    0    0 -0.00000000000E+00 -0.00000000000E+00 -0.45593999997E+02  0.45594000000E+02  0.51100000000E-03 0. -1.
    9900012    2    1    2    0    0 -0.20779034377E+02  0.22194624139E+02 -0.26996236506E+02  0.50528851020E+02  0.29999973160E+02 0.  0.
        -12    1    1    2    0    0  0.20779034377E+02 -0.22194624139E+02  0.26996236506E+02  0.40659148980E+02  0.00000000000E+00 0.  1.
         11    1    3    3    0    0 -0.24424370103E+01  0.49940040899E+01  0.55166633125E+01  0.78319314198E+01  0.51100000000E-03 0. -1.
        -11    1    3    3    0    0 -0.11747970117E+02  0.35069014016E+01 -0.11879919234E+02  0.17071779069E+02  0.51100000000E-03 0.  1.
        -12    1    3    3    0    0 -0.65886272488E+01  0.13693718648E+02 -0.20632980584E+02  0.25625140531E+02  0.00000000000E+00 0.  1.
</event>
<event>
 7    1  0.5041278E-013  0.5052886E+02  0.7816164E-02  0.1300439E+00
        -11   -1    0    0    0    0  0.00000000000E+00  0.00000000000E+00  0.45593999997E+02  0.45594000000E+02  0.51100000000E-03 0.  1.
         11   -1    0    0    0    0 -0.00000000000E+00 -0.00000000000E+00 -0.45593999997E+02  0.45594000000E+02  0.51100000000E-03 0. -1.
    9900012    2    1    2    0    0 -0.33161244398E+02  0.50932205534E+01 -0.22968602116E+02  0.50528859468E+02  0.29999998839E+02 0.  0.
        -12    1    1    2    0    0  0.33161244398E+02 -0.50932205534E+01  0.22968602116E+02  0.40659140532E+02  0.00000000000E+00 0.  1.
         11    1    3    3    0    0 -0.68539263222E+01 -0.12821083248E+01  0.24897313772E+01  0.74039766598E+01  0.51100000000E-03 0. -1.
        -11    1    3    3    0    0  0.16817105149E+01  0.38224021389E+01 -0.10471633396E+02  0.11273598122E+02  0.51100000000E-03 0.  1.
         12    1    3    3    0    0 -0.27989028591E+02  0.25529267392E+01 -0.14986700097E+02  0.31851284687E+02  0.00000000000E+00 0. -1.
</event>
<event>
 7    1  0.5041278E-013  0.5052886E+02  0.7816164E-02  0.1300439E+00
        -11   -1    0    0    0    0  0.00000000000E+00  0.00000000000E+00  0.45593999997E+02  0.45594000000E+02  0.51100000000E-03 0.  1.
         11   -1    0    0    0    0 -0.00000000000E+00 -0.00000000000E+00 -0.45593999997E+02  0.45594000000E+02  0.51100000000E-03 0. -1.
    9900012    2    1    2    0    0 -0.27164198031E+01  0.30158548116E+02 -0.27133899641E+02  0.50528862395E+02  0.30000007737E+02 0.  0.
        -12    1    1    2    0    0  0.27164198031E+01 -0.30158548116E+02  0.27133899641E+02  0.40659137605E+02  0.00000000000E+00 0.  1.
         11    1    3    3    0    0 -0.81083448482E+00  0.12252323141E+02 -0.30111909344E+01  0.12642948470E+02  0.51100000000E-03 0. -1.
        -11    1    3    3    0    0  0.64171202726E+01  0.18995339182E+02 -0.12785364093E+02  0.23779568509E+02  0.51100000000E-03 0.  1.
        -12    1    3    3    0    0 -0.83227055909E+01 -0.10891142064E+01 -0.11337344614E+02  0.14106345416E+02  0.00000000000E+00 0.  1.
</event>
<event>
 7    1  0.5041278E-013  0.5052882E+02  0.7816164E-02  0.1300439E+00
        -11   -1    0    0    0    0  0.00000000000E+00  0.00000000000E+00  0.45593999997E+02  0.45594000000E+02  0.51100000000E-03 0.  1.
         11   -1    0    0    0    0 -0.00000000000E+00 -0.00000000000E+00 -0.45593999997E+02  0.45594000000E+02  0.51100000000E-03 0. -1.
    9900012    2    1    2    0    0  0.84661356292E+01 -0.63713906395E+01 -0.39254287971E+02  0.50528816594E+02  0.29999868518E+02 0.  0.
        -12    1    1    2    0    0 -0.84661356292E+01  0.63713906395E+01  0.39254287971E+02  0.40659183406E+02  0.00000000000E+00 0.  1.
         11    1    3    3    0    0 -0.32426087992E+01 -0.25345668116E+01 -0.85647025353E+01  0.95022455518E+01  0.51100000000E-03 0. -1.
        -11    1    3    3    0    0  0.74197850665E+01  0.13702455719E+01 -0.33034035258E+02  0.33884779312E+02  0.51100000000E-03 0.  1.
        -12    1    3    3    0    0  0.42889593620E+01 -0.52070693997E+01  0.23444498225E+01  0.71417917299E+01  0.00000000000E+00 0.  1.
</event>
<event>
 7    1  0.5041278E-013  0.5052885E+02  0.7816164E-02  0.1300439E+00
        -11   -1    0    0    0    0  0.00000000000E+00  0.00000000000E+00  0.45593999997E+02  0.45594000000E+02  0.51100000000E-03 0. -1.
         11   -1    0    0    0    0 -0.00000000000E+00 -0.00000000000E+00 -0.45593999997E+02  0.45594000000E+02  0.51100000000E-03 0.  1.
    9900012    2    1    2    0    0  0.35691348690E+02 -0.86613313141E+01 -0.17443482626E+02  0.50528854441E+02  0.29999983560E+02 0.  0.
        -12    1    1    2    0    0 -0.35691348690E+02  0.86613313141E+01  0.17443482626E+02  0.40659145559E+02  0.00000000000E+00 0.  1.
         11    1    3    3    0    0  0.30993016802E+01 -0.46847263451E+01  0.45838458157E+01  0.72501016929E+01  0.51100000000E-03 0. -1.
        -11    1    3    3    0    0  0.76750839892E+00  0.25357877868E+00 -0.83387773514E+01  0.83778624551E+01  0.51100000000E-03 0.  1.
        -12    1    3    3    0    0  0.31824538611E+02 -0.42301837476E+01 -0.13688551090E+02  0.34900890293E+02  0.00000000000E+00 0.  1.
</event>
<event>
 7    1  0.5041278E-013  0.5052887E+02  0.7816164E-02  0.1300439E+00
        -11   -1    0    0    0    0  0.00000000000E+00  0.00000000000E+00  0.45593999997E+02  0.45594000000E+02  0.51100000000E-03 0.  1.
         11   -1    0    0    0    0 -0.00000000000E+00 -0.00000000000E+00 -0.45593999997E+02  0.45594000000E+02  0.51100000000E-03 0. -1.
    9900012    2    1    2    0    0 -0.21513141250E+02 -0.17758892329E+02 -0.29579913815E+02  0.50528870589E+02  0.30000032641E+02 0.  0.
        -12    1    1    2    0    0  0.21513141250E+02  0.17758892329E+02  0.29579913815E+02  0.40659129411E+02  0.00000000000E+00 0.  1.
         11    1    3    3    0    0 -0.63722475131E+01 -0.85130884088E+01 -0.11352272687E+02  0.15554816233E+02  0.51100000000E-03 0. -1.
        -11    1    3    3    0    0 -0.21490291628E+01 -0.11830668129E+02 -0.18096264040E+02  0.21726891337E+02  0.51100000000E-03 0.  1.
         12    1    3    3    0    0 -0.12991864574E+02  0.25848642085E+01 -0.13137708766E+00  0.13247163018E+02  0.00000000000E+00 0. -1.
</event>
<event>
 7    1  0.5041278E-013  0.5052887E+02  0.7816164E-02  0.1300439E+00
        -11   -1    0    0    0    0  0.00000000000E+00  0.00000000000E+00  0.45593999997E+02  0.45594000000E+02  0.51100000000E-03 0.  1.
         11   -1    0    0    0    0 -0.00000000000E+00 -0.00000000000E+00 -0.45593999997E+02  0.45594000000E+02  0.51100000000E-03 0. -1.
    9900012    2    1    2    0    0  0.20180553541E+02 -0.35103082437E+02  0.36991299158E+01  0.50528871875E+02  0.30000036550E+02 0.  0.
        -12    1    1    2    0    0 -0.20180553541E+02  0.35103082437E+02 -0.36991299158E+01  0.40659128125E+02  0.00000000000E+00 0.  1.
         11    1    3    3    0    0  0.43847591288E+01 -0.10208239581E+02 -0.85189230374E+01  0.14000225639E+02  0.51100000000E-03 0. -1.
        -11    1    3    3    0    0  0.10170454226E+02 -0.34413875874E+01 -0.87682587565E+00  0.10772655734E+02  0.51100000000E-03 0.  1.
         12    1    3    3    0    0  0.56253401859E+01 -0.21453455269E+02  0.13094878829E+02  0.25755990502E+02  0.00000000000E+00 0. -1.
</event>
<event>
 7    1  0.5041278E-013  0.5052886E+02  0.7816164E-02  0.1300439E+00
        -11   -1    0    0    0    0  0.00000000000E+00  0.00000000000E+00  0.45593999997E+02  0.45594000000E+02  0.51100000000E-03 0.  1.
         11   -1    0    0    0    0 -0.00000000000E+00 -0.00000000000E+00 -0.45593999997E+02  0.45594000000E+02  0.51100000000E-03 0. -1.
    9900012    2    1    2    0    0 -0.78117318390E+01 -0.24443758872E+02 -0.31537997327E+02  0.50528858623E+02  0.29999996270E+02 0.  0.
        -12    1    1    2    0    0  0.78117318390E+01  0.24443758872E+02  0.31537997327E+02  0.40659141377E+02  0.00000000000E+00 0.  1.
         11    1    3    3    0    0  0.28246843579E+00 -0.15568083388E+01 -0.69450251837E+01  0.71229780067E+01  0.51100000000E-03 0. -1.
        -11    1    3    3    0    0 -0.39344095317E+01 -0.28494681529E+02 -0.20349822683E+02  0.35235518121E+02  0.51100000000E-03 0.  1.
         12    1    3    3    0    0 -0.41597907431E+01  0.56077309961E+01 -0.42431494611E+01  0.81703624950E+01  0.00000000000E+00 0. -1.
</event>
<event>
 7    1  0.5041278E-013  0.5052886E+02  0.7816164E-02  0.1300439E+00
        -11   -1    0    0    0    0  0.00000000000E+00  0.00000000000E+00  0.45593999997E+02  0.45594000000E+02  0.51100000000E-03 0.  1.
         11   -1    0    0    0    0 -0.00000000000E+00 -0.00000000000E+00 -0.45593999997E+02  0.45594000000E+02  0.51100000000E-03 0. -1.
    9900012    2    1    2    0    0  0.33423816607E+02  0.11843292552E+02 -0.19893485708E+02  0.50528857502E+02  0.29999992863E+02 0.  0.
        -12    1    1    2    0    0 -0.33423816607E+02 -0.11843292552E+02  0.19893485708E+02  0.40659142498E+02  0.00000000000E+00 0.  1.
         11    1    3    3    0    0  0.15504573179E+02  0.68940171712E+01 -0.58146579630E+01  0.17936819944E+02  0.51100000000E-03 0. -1.
        -11    1    3    3    0    0  0.21214539533E+02  0.90087813115E+01 -0.14684347225E+02  0.27328462855E+02  0.51100000000E-03 0.  1.
        -12    1    3    3    0    0 -0.32952961045E+01 -0.40595059308E+01  0.60551948020E+00  0.52635747035E+01  0.00000000000E+00 0.  1.
</event>
<event>
 7    1  0.5041278E-013  0.5052886E+02  0.7816164E-02  0.1300439E+00
        -11   -1    0    0    0    0  0.00000000000E+00  0.00000000000E+00  0.45593999997E+02  0.45594000000E+02  0.51100000000E-03 0.  1.
         11   -1    0    0    0    0 -0.00000000000E+00 -0.00000000000E+00 -0.45593999997E+02  0.45594000000E+02  0.51100000000E-03 0. -1.
    9900012    2    1    2    0    0  0.23910928340E+02  0.29589806022E+02 -0.14348394709E+02  0.50528861480E+02  0.30000004953E+02 0.  0.
        -12    1    1    2    0    0 -0.23910928340E+02 -0.29589806022E+02  0.14348394709E+02  0.40659138520E+02  0.00000000000E+00 0.  1.
         11    1    3    3    0    0  0.16205487286E+02  0.18511260948E+02 -0.41133822426E-01  0.24602566783E+02  0.51100000000E-03 0. -1.
        -11    1    3    3    0    0 -0.35767408540E+01  0.79190308399E+01 -0.19652226525E+01  0.89087723573E+01  0.51100000000E-03 0.  1.
        -12    1    3    3    0    0  0.11282181908E+02  0.31595142344E+01 -0.12342038234E+02  0.17017522339E+02  0.00000000000E+00 0.  1.
</event>
<event>
 7    1  0.5041278E-013  0.5052885E+02  0.7816164E-02  0.1300439E+00
        -11   -1    0    0    0    0  0.00000000000E+00  0.00000000000E+00  0.45593999997E+02  0.45594000000E+02  0.51100000000E-03 0.  1.
         11   -1    0    0    0    0 -0.00000000000E+00 -0.00000000000E+00 -0.45593999997E+02  0.45594000000E+02  0.51100000000E-03 0. -1.
    9900012    2    1    2    0    0 -0.27443178399E+02  0.30223697247E+01 -0.29848007716E+02  0.50528851903E+02  0.29999975843E+02 0.  0.
        -12    1    1    2    0    0  0.27443178399E+02 -0.30223697247E+01  0.29848007716E+02  0.40659148097E+02  0.00000000000E+00 0.  1.
         11    1    3    3    0    0  0.13149542684E+01  0.64769527334E+00  0.25367087952E+00  0.14876031296E+01  0.51100000000E-03 0. -1.
        -11    1    3    3    0    0  0.40839573396E+01 -0.20077036761E+01 -0.44215177984E+00  0.45722073509E+01  0.51100000000E-03 0.  1.
         12    1    3    3    0    0 -0.32842090007E+02  0.43823781275E+01 -0.29659526816E+02  0.44469041422E+02  0.00000000000E+00 0. -1.
</event>
<event>
 7    1  0.5041278E-013  0.5052886E+02  0.7816164E-02  0.1300439E+00
        -11   -1    0    0    0    0  0.00000000000E+00  0.00000000000E+00  0.45593999997E+02  0.45594000000E+02  0.51100000000E-03 0. -1.
         11   -1    0    0    0    0 -0.00000000000E+00 -0.00000000000E+00 -0.45593999997E+02  0.45594000000E+02  0.51100000000E-03 0.  1.
    9900012    2    1    2    0    0 -0.29373166960E+02  0.52645230426E+00 -0.28108810229E+02  0.50528864473E+02  0.30000014052E+02 0.  0.
        -12    1    1    2    0    0  0.29373166960E+02 -0.52645230426E+00  0.28108810229E+02  0.40659135527E+02  0.00000000000E+00 0.  1.
         11    1    3    3    0    0 -0.16826888500E+02  0.32390193484E+01 -0.71213456717E+01  0.18556642675E+02  0.51100000000E-03 0. -1.
        -11    1    3    3    0    0  0.54570344099E-01 -0.45417546508E+01  0.25518272662E+01  0.52098306967E+01  0.51100000000E-03 0.  1.
        -12    1    3    3    0    0 -0.12600848804E+02  0.18291876067E+01 -0.23539291824E+02  0.26762391101E+02  0.00000000000E+00 0.  1.
</event>
<event>
 7    1  0.5041278E-013  0.5052886E+02  0.7816164E-02  0.1300439E+00
        -11   -1    0    0    0    0  0.00000000000E+00  0.00000000000E+00  0.45593999997E+02  0.45594000000E+02  0.51100000000E-03 0.  1.
         11   -1    0    0    0    0 -0.00000000000E+00 -0.00000000000E+00 -0.45593999997E+02  0.45594000000E+02  0.51100000000E-03 0. -1.
    9900012    2    1    2    0    0  0.37660456830E+02  0.45833623669E+01 -0.14623556727E+02  0.50528860430E+02  0.30000001763E+02 0.  0.
        -12    1    1    2    0    0 -0.37660456830E+02 -0.45833623669E+01  0.14623556727E+02  0.40659139570E+02  0.00000000000E+00 0.  1.
         11    1    3    3    0    0  0.34689462645E+02  0.83449120579E+01 -0.12356095219E+02  0.37758038418E+02  0.51100000000E-03 0. -1.
        -11    1    3    3    0    0  0.64775086494E+01 -0.56409924368E+01 -0.15404281133E+01  0.87265017624E+01  0.51100000000E-03 0.  1.
        -12    1    3    3    0    0 -0.35065144644E+01  0.18794427459E+01 -0.72703339485E+00  0.40443202496E+01  0.00000000000E+00 0.  1.
</event>
<event>
 7    1  0.5041278E-013  0.5052886E+02  0.7816164E-02  0.1300439E+00
        -11   -1    0    0    0    0  0.00000000000E+00  0.00000000000E+00  0.45593999997E+02  0.45594000000E+02  0.51100000000E-03 0. -1.
         11   -1    0    0    0    0 -0.00000000000E+00 -0.00000000000E+00 -0.45593999997E+02  0.45594000000E+02  0.51100000000E-03 0.  1.
    9900012    2    1    2    0    0 -0.33064179793E+02 -0.19836814886E+02  0.12900646449E+02  0.50528857252E+02  0.29999992103E+02 0.  0.
        -12    1    1    2    0    0  0.33064179793E+02  0.19836814886E+02 -0.12900646449E+02  0.40659142748E+02  0.00000000000E+00 0.  1.
         11    1    3    3    0    0 -0.18779274434E+02 -0.64459993539E+01  0.87731862925E+01  0.21706700669E+02  0.51100000000E-03 0. -1.
        -11    1    3    3    0    0 -0.16704417811E+02 -0.15872997042E+02 -0.48998090104E+00  0.23048420576E+02  0.51100000000E-03 0.  1.
         12    1    3    3    0    0  0.24195124519E+01  0.24821815109E+01  0.46174410576E+01  0.57737360070E+01  0.00000000000E+00 0. -1.
</event>
<event>
 7    1  0.5041278E-013  0.5052886E+02  0.7816164E-02  0.1300439E+00
        -11   -1    0    0    0    0  0.00000000000E+00  0.00000000000E+00  0.45593999997E+02  0.45594000000E+02  0.51100000000E-03 0. -1.
         11   -1    0    0    0    0 -0.00000000000E+00 -0.00000000000E+00 -0.45593999997E+02  0.45594000000E+02  0.51100000000E-03 0.  1.
    9900012    2    1    2    0    0  0.69574665721E+01  0.18549271580E+02  0.35506110839E+02  0.50528859279E+02  0.29999998265E+02 0.  0.
        -12    1    1    2    0    0 -0.69574665721E+01 -0.18549271580E+02 -0.35506110839E+02  0.40659140721E+02  0.00000000000E+00 0.  1.
         11    1    3    3    0    0  0.13030652845E+02  0.10814390796E+02  0.35531853619E+02  0.39360660357E+02  0.51100000000E-03 0. -1.
        -11    1    3    3    0    0  0.40076341693E+00  0.26756746329E+00 -0.11254273616E+01  0.12242510654E+01  0.51100000000E-03 0.  1.
        -12    1    3    3    0    0 -0.64739496894E+01  0.74673133201E+01  0.10996845812E+01  0.99439478568E+01  0.00000000000E+00 0.  1.
</event>
<event>
 7    1  0.5041278E-013  0.5052886E+02  0.7816164E-02  0.1300439E+00
        -11   -1    0    0    0    0  0.00000000000E+00  0.00000000000E+00  0.45593999997E+02  0.45594000000E+02  0.51100000000E-03 0.  1.
         11   -1    0    0    0    0 -0.00000000000E+00 -0.00000000000E+00 -0.45593999997E+02  0.45594000000E+02  0.51100000000E-03 0. -1.
    9900012    2    1    2    0    0  0.47278980915E+00 -0.22603574643E+02 -0.33793788591E+02  0.50528864936E+02  0.30000015459E+02 0.  0.
        -12    1    1    2    0    0 -0.47278980915E+00  0.22603574643E+02  0.33793788591E+02  0.40659135064E+02  0.00000000000E+00 0.  1.
         11    1    3    3    0    0  0.45280600276E+01 -0.97247556116E+01 -0.22297074866E+02  0.24743357637E+02  0.51100000000E-03 0. -1.
        -11    1    3    3    0    0  0.62002847332E+01 -0.10104865512E+01  0.93057889790E-01  0.62827759689E+01  0.51100000000E-03 0.  1.
         12    1    3    3    0    0 -0.10255554952E+02 -0.11868332480E+02 -0.11589771614E+02  0.19502731329E+02  0.00000000000E+00 0. -1.
</event>
<event>
 7    1  0.5199211E-013  0.5052885E+02  0.7816164E-02  0.1300439E+00
        -11   -1    0    0    0    0  0.00000000000E+00  0.00000000000E+00  0.45593999997E+02  0.45594000000E+02  0.51100000000E-03 0. -1.
         11   -1    0    0    0    0 -0.00000000000E+00 -0.00000000000E+00 -0.45593999997E+02  0.45594000000E+02  0.51100000000E-03 0.  1.
    9900012    2    1    2    0    0  0.33374257861E+02 -0.87496522334E+01  0.21512058575E+02  0.50528853844E+02  0.29999981744E+02 0.  0.
        -12    1    1    2    0    0 -0.33374257861E+02  0.87496522334E+01 -0.21512058575E+02  0.40659146156E+02  0.00000000000E+00 0.  1.
         11    1    3    3    0    0  0.17507884447E+02  0.38967353544E+01  0.16481569931E+02  0.24358832318E+02  0.51100000000E-03 0. -1.
        -11    1    3    3    0    0 -0.22249607634E+01  0.78370119814E-01  0.33045627853E+01  0.39845611725E+01  0.51100000000E-03 0.  1.
        -12    1    3    3    0    0  0.18091334178E+02 -0.12724757708E+02  0.17259258589E+01  0.22185460354E+02  0.00000000000E+00 0.  1.
</event>
<event>
 7    1  0.5041278E-013  0.5052885E+02  0.7816164E-02  0.1300439E+00
        -11   -1    0    0    0    0  0.00000000000E+00  0.00000000000E+00  0.45593999997E+02  0.45594000000E+02  0.51100000000E-03 0. -1.
         11   -1    0    0    0    0 -0.00000000000E+00 -0.00000000000E+00 -0.45593999997E+02  0.45594000000E+02  0.51100000000E-03 0.  1.
    9900012    2    1    2    0    0  0.29082688483E+02 -0.28241993289E+02  0.31230473837E+01  0.50528851223E+02  0.29999973777E+02 0.  0.
        -12    1    1    2    0    0 -0.29082688483E+02  0.28241993289E+02 -0.31230473837E+01  0.40659148777E+02  0.00000000000E+00 0.  1.
         11    1    3    3    0    0 -0.35550899477E+01 -0.51877032091E+01  0.23386112452E+00  0.62932996439E+01  0.51100000000E-03 0.  1.
        -11    1    3    3    0    0  0.13400011143E+02 -0.12325458227E+01  0.64590352530E+01  0.14926439780E+02  0.51100000000E-03 0. -1.
         12    1    3    3    0    0  0.19237767287E+02 -0.21821744257E+02 -0.35698489938E+01  0.29309111799E+02  0.00000000000E+00 0. -1.
</event>
<event>
 7    1  0.5041278E-013  0.5052886E+02  0.7816164E-02  0.1300439E+00
        -11   -1    0    0    0    0  0.00000000000E+00  0.00000000000E+00  0.45593999997E+02  0.45594000000E+02  0.51100000000E-03 0.  1.
         11   -1    0    0    0    0 -0.00000000000E+00 -0.00000000000E+00 -0.45593999997E+02  0.45594000000E+02  0.51100000000E-03 0. -1.
    9900012    2    1    2    0    0  0.41828477758E+01 -0.36413342228E+02 -0.17599364523E+02  0.50528864012E+02  0.30000012651E+02 0.  0.
        -12    1    1    2    0    0 -0.41828477758E+01  0.36413342228E+02  0.17599364523E+02  0.40659135988E+02  0.00000000000E+00 0.  1.
         11    1    3    3    0    0  0.24576791973E+01 -0.10495043938E+02 -0.12380865667E+02  0.16415601397E+02  0.51100000000E-03 0. -1.
        -11    1    3    3    0    0 -0.11675674090E+01  0.37156601205E+01 -0.11550973086E+01  0.40624615492E+01  0.51100000000E-03 0.  1.
        -12    1    3    3    0    0  0.28927359876E+01 -0.29633958410E+02 -0.40634015468E+01  0.30050801066E+02  0.00000000000E+00 0.  1.
</event>
<event>
 7    1  0.5041278E-013  0.5052879E+02  0.7816164E-02  0.1300439E+00
        -11   -1    0    0    0    0  0.00000000000E+00  0.00000000000E+00  0.45593999997E+02  0.45594000000E+02  0.51100000000E-03 0.  1.
         11   -1    0    0    0    0 -0.00000000000E+00 -0.00000000000E+00 -0.45593999997E+02  0.45594000000E+02  0.51100000000E-03 0. -1.
    9900012    2    1    2    0    0  0.10394879496E+02 -0.18580119782E+00 -0.39307550793E+02  0.50528787130E+02  0.29999778961E+02 0.  0.
        -12    1    1    2    0    0 -0.10394879496E+02  0.18580119782E+00  0.39307550793E+02  0.40659212870E+02  0.00000000000E+00 0.  1.
         11    1    3    3    0    0 -0.18620396504E+00 -0.66274846604E+01 -0.54127037334E+01  0.85589477628E+01  0.51100000000E-03 0. -1.
        -11    1    3    3    0    0  0.11103689748E+02 -0.57251989337E+01 -0.18847942949E+02  0.22612270618E+02  0.51100000000E-03 0.  1.
         12    1    3    3    0    0 -0.52260628670E+00  0.12166882396E+02 -0.15046904111E+02  0.19357568750E+02  0.00000000000E+00 0. -1.
</event>
<event>
 7    1  0.5041278E-013  0.5052887E+02  0.7816164E-02  0.1300439E+00
        -11   -1    0    0    0    0  0.00000000000E+00  0.00000000000E+00  0.45593999997E+02  0.45594000000E+02  0.51100000000E-03 0.  1.
         11   -1    0    0    0    0 -0.00000000000E+00 -0.00000000000E+00 -0.45593999997E+02  0.45594000000E+02  0.51100000000E-03 0. -1.
    9900012    2    1    2    0    0  0.26803957583E+02 -0.57748105171E+01 -0.30022734410E+02  0.50528866216E+02  0.30000019349E+02 0.  0.
        -12    1    1    2    0    0 -0.26803957583E+02  0.57748105171E+01  0.30022734410E+02  0.40659133784E+02  0.00000000000E+00 0.  1.
         11    1    3    3    0    0  0.62021502900E+01 -0.70456149006E+01 -0.11247334923E+02  0.14649569983E+02  0.51100000000E-03 0. -1.
        -11    1    3    3    0    0 -0.95625712445E+00 -0.15873381848E+01  0.39881025743E+01  0.43976166960E+01  0.51100000000E-03 0.  1.
        -12    1    3    3    0    0  0.21558064418E+02  0.28581425683E+01 -0.22763502061E+02  0.31481679537E+02  0.00000000000E+00 0.  1.
</event>
<event>
 7    1  0.5041278E-013  0.5052886E+02  0.7816164E-02  0.1300439E+00
        -11   -1    0    0    0    0  0.00000000000E+00  0.00000000000E+00  0.45593999997E+02  0.45594000000E+02  0.51100000000E-03 0.  1.
         11   -1    0    0    0    0 -0.00000000000E+00 -0.00000000000E+00 -0.45593999997E+02  0.45594000000E+02  0.51100000000E-03 0. -1.
    9900012    2    1    2    0    0  0.80791388901E+01 -0.39488862107E+02 -0.53406718557E+01  0.50528862139E+02  0.30000006957E+02 0.  0.
        -12    1    1    2    0    0 -0.80791388901E+01  0.39488862107E+02  0.53406718557E+01  0.40659137861E+02  0.00000000000E+00 0.  1.
         11    1    3    3    0    0  0.94191644108E+01 -0.26587701634E+02 -0.12196035461E+02  0.30730600671E+02  0.51100000000E-03 0. -1.
        -11    1    3    3    0    0 -0.29464963061E+01  0.13825102770E+01 -0.10170024048E+01  0.34099075208E+01  0.51100000000E-03 0.  1.
         12    1    3    3    0    0  0.16064707853E+01 -0.14283670751E+02  0.78723660104E+01  0.16388353947E+02  0.00000000000E+00 0. -1.
</event>
<event>
 7    1  0.5041278E-013  0.5052886E+02  0.7816164E-02  0.1300439E+00
        -11   -1    0    0    0    0  0.00000000000E+00  0.00000000000E+00  0.45593999997E+02  0.45594000000E+02  0.51100000000E-03 0.  1.
         11   -1    0    0    0    0 -0.00000000000E+00 -0.00000000000E+00 -0.45593999997E+02  0.45594000000E+02  0.51100000000E-03 0. -1.
    9900012    2    1    2    0    0  0.60396588279E+01  0.18434987901E+01 -0.40165773312E+02  0.50528864344E+02  0.30000013659E+02 0.  0.
        -12    1    1    2    0    0 -0.60396588279E+01 -0.18434987901E+01  0.40165773312E+02  0.40659135656E+02  0.00000000000E+00 0.  1.
         11    1    3    3    0    0  0.47092370425E+01 -0.62154117139E+01 -0.20546083069E+02  0.21976118538E+02  0.51100000000E-03 0. -1.
        -11    1    3    3    0    0 -0.75997253552E+01 -0.96456669635E+00 -0.48063563788E+01  0.90436318084E+01  0.51100000000E-03 0.  1.
        -12    1    3    3    0    0  0.89301471406E+01  0.90234772003E+01 -0.14813333865E+02  0.19509113997E+02  0.00000000000E+00 0.  1.
</event>
<event>
 7    1  0.5041278E-013  0.5052885E+02  0.7816164E-02  0.1300439E+00
        -11   -1    0    0    0    0  0.00000000000E+00  0.00000000000E+00  0.45593999997E+02  0.45594000000E+02  0.51100000000E-03 0. -1.
         11   -1    0    0    0    0 -0.00000000000E+00 -0.00000000000E+00 -0.45593999997E+02  0.45594000000E+02  0.51100000000E-03 0.  1.
    9900012    2    1    2    0    0  0.12036719767E+02  0.26185369953E+02  0.28681180199E+02  0.50528851953E+02  0.29999975995E+02 0.  0.
        -12    1    1    2    0    0 -0.12036719767E+02 -0.26185369953E+02 -0.28681180199E+02  0.40659148047E+02  0.00000000000E+00 0.  1.
         11    1    3    3    0    0  0.13060505707E+02  0.13048845220E+02  0.81659036750E+01  0.20187400872E+02  0.51100000000E-03 0. -1.
        -11    1    3    3    0    0  0.48026587341E-01  0.17216706719E+02  0.12473818502E+02  0.21260607824E+02  0.51100000000E-03 0.  1.
        -12    1    3    3    0    0 -0.10718125267E+01 -0.40801819849E+01  0.80414580220E+01  0.90808432561E+01  0.00000000000E+00 0.  1.
</event>
<event>
 7    1  0.5041278E-013  0.5052884E+02  0.7816164E-02  0.1300439E+00
        -11   -1    0    0    0    0  0.00000000000E+00  0.00000000000E+00  0.45593999997E+02  0.45594000000E+02  0.51100000000E-03 0.  1.
         11   -1    0    0    0    0 -0.00000000000E+00 -0.00000000000E+00 -0.45593999997E+02  0.45594000000E+02  0.51100000000E-03 0. -1.
    9900012    2    1    2    0    0 -0.16832968396E+02  0.12072199817E+01 -0.36991363078E+02  0.50528841776E+02  0.29999945063E+02 0.  0.
        -12    1    1    2    0    0  0.16832968396E+02 -0.12072199817E+01  0.36991363078E+02  0.40659158224E+02  0.00000000000E+00 0.  1.
         11    1    3    3    0    0 -0.45199627738E+01  0.40675660611E+01 -0.10015338801E+02  0.11716747360E+02  0.51100000000E-03 0. -1.
        -11    1    3    3    0    0 -0.18337091116E+02 -0.62414336071E+01 -0.25001862666E+02  0.31627480789E+02  0.51100000000E-03 0.  1.
        -12    1    3    3    0    0  0.60240854931E+01  0.33810875277E+01 -0.19741616108E+01  0.71846136266E+01  0.00000000000E+00 0.  1.
</event>
<event>
 7    1  0.5041278E-013  0.5052886E+02  0.7816164E-02  0.1300439E+00
        -11   -1    0    0    0    0  0.00000000000E+00  0.00000000000E+00  0.45593999997E+02  0.45594000000E+02  0.51100000000E-03 0.  1.
         11   -1    0    0    0    0 -0.00000000000E+00 -0.00000000000E+00 -0.45593999997E+02  0.45594000000E+02  0.51100000000E-03 0. -1.
    9900012    2    1    2    0    0 -0.45522298858E+01 -0.38592669016E+02 -0.11960303065E+02  0.50528858985E+02  0.29999997370E+02 0.  0.
        -12    1    1    2    0    0  0.45522298858E+01  0.38592669016E+02  0.11960303065E+02  0.40659141015E+02  0.00000000000E+00 0.  1.
         11    1    3    3    0    0 -0.48840417444E+01 -0.34429436617E+02 -0.66291089892E+01  0.35400353893E+02  0.51100000000E-03 0. -1.
        -11    1    3    3    0    0  0.45421174464E+01 -0.85680372768E+00 -0.79291210291E+01  0.91780119895E+01  0.51100000000E-03 0.  1.
         12    1    3    3    0    0 -0.42103055877E+01 -0.33064286710E+01  0.25979269533E+01  0.59504931017E+01  0.00000000000E+00 0. -1.
</event>
<event>
 7    1  0.5041278E-013  0.5052885E+02  0.7816164E-02  0.1300439E+00
        -11   -1    0    0    0    0  0.00000000000E+00  0.00000000000E+00  0.45593999997E+02  0.45594000000E+02  0.51100000000E-03 0. -1.
         11   -1    0    0    0    0 -0.00000000000E+00 -0.00000000000E+00 -0.45593999997E+02  0.45594000000E+02  0.51100000000E-03 0.  1.
    9900012    2    1    2    0    0 -0.36920630338E+02  0.12069667746E+01  0.16987535494E+02  0.50528854958E+02  0.29999985131E+02 0.  0.
        -12    1    1    2    0    0  0.36920630338E+02 -0.12069667746E+01 -0.16987535494E+02  0.40659145042E+02  0.00000000000E+00 0.  1.
         11    1    3    3    0    0  0.10962874513E+01  0.36424937473E+01  0.65513282600E+01  0.75755863869E+01  0.51100000000E-03 0. -1.
        -11    1    3    3    0    0 -0.89087984830E+01 -0.28986101332E+01 -0.43184735670E+01  0.10315902545E+02  0.51100000000E-03 0.  1.
        -12    1    3    3    0    0 -0.29108119306E+02  0.46308316041E+00  0.14754680801E+02  0.32637366026E+02  0.00000000000E+00 0.  1.
</event>
<event>
 7    1  0.5041278E-013  0.5052886E+02  0.7816164E-02  0.1300439E+00
        -11   -1    0    0    0    0  0.00000000000E+00  0.00000000000E+00  0.45593999997E+02  0.45594000000E+02  0.51100000000E-03 0.  1.
         11   -1    0    0    0    0 -0.00000000000E+00 -0.00000000000E+00 -0.45593999997E+02  0.45594000000E+02  0.51100000000E-03 0. -1.
    9900012    2    1    2    0    0  0.16087628351E+02 -0.32485889926E+02 -0.18412509659E+02  0.50528863976E+02  0.30000012542E+02 0.  0.
        -12    1    1    2    0    0 -0.16087628351E+02  0.32485889926E+02  0.18412509659E+02  0.40659136024E+02  0.00000000000E+00 0.  1.
         11    1    3    3    0    0  0.21838240959E+01 -0.84992013679E+00 -0.26585725832E+01  0.35439328947E+01  0.51100000000E-03 0. -1.
        -11    1    3    3    0    0  0.14399334269E+02 -0.64761115056E+01 -0.15046814035E+02  0.21810260441E+02  0.51100000000E-03 0.  1.
        -12    1    3    3    0    0 -0.49553001439E+00 -0.25159858284E+02 -0.70712304031E+00  0.25174670640E+02  0.00000000000E+00 0.  1.
</event>
<event>
 7    1  0.5041278E-013  0.5052886E+02  0.7816164E-02  0.1300439E+00
        -11   -1    0    0    0    0  0.00000000000E+00  0.00000000000E+00  0.45593999997E+02  0.45594000000E+02  0.51100000000E-03 0. -1.
         11   -1    0    0    0    0 -0.00000000000E+00 -0.00000000000E+00 -0.45593999997E+02  0.45594000000E+02  0.51100000000E-03 0.  1.
    9900012    2    1    2    0    0 -0.20329790875E+02  0.20564578122E+02  0.28582573392E+02  0.50528858690E+02  0.29999996474E+02 0.  0.
        -12    1    1    2    0    0  0.20329790875E+02 -0.20564578122E+02 -0.28582573392E+02  0.40659141310E+02  0.00000000000E+00 0.  1.
         11    1    3    3    0    0  0.19032513729E+01  0.11822336503E+02  0.10468103493E+02  0.15905068286E+02  0.51100000000E-03 0. -1.
        -11    1    3    3    0    0 -0.20455165220E+01  0.55141933147E+01 -0.17319103772E+01  0.61310667562E+01  0.51100000000E-03 0.  1.
         12    1    3    3    0    0 -0.20187525726E+02  0.32280483041E+01  0.19846380276E+02  0.28492723647E+02  0.00000000000E+00 0. -1.
</event>
<event>
 7    1  0.5041278E-013  0.5052885E+02  0.7816164E-02  0.1300439E+00
        -11   -1    0    0    0    0  0.00000000000E+00  0.00000000000E+00  0.45593999997E+02  0.45594000000E+02  0.51100000000E-03 0.  1.
         11   -1    0    0    0    0 -0.00000000000E+00 -0.00000000000E+00 -0.45593999997E+02  0.45594000000E+02  0.51100000000E-03 0. -1.
    9900012    2    1    2    0    0 -0.12104081078E+02 -0.12437457522E+02 -0.36769103690E+02  0.50528854479E+02  0.29999983673E+02 0.  0.
        -12    1    1    2    0    0  0.12104081078E+02  0.12437457522E+02  0.36769103690E+02  0.40659145521E+02  0.00000000000E+00 0.  1.
         11    1    3    3    0    0 -0.41180874259E+01 -0.82344052866E+01 -0.37945145490E+01  0.99580327071E+01  0.51100000000E-03 0. -1.
        -11    1    3    3    0    0 -0.14265390766E+02 -0.67820932006E+00 -0.12904782683E+02  0.19248240386E+02  0.51100000000E-03 0.  1.
         12    1    3    3    0    0  0.62793971139E+01 -0.35248429151E+01 -0.20069806458E+02  0.21322581385E+02  0.00000000000E+00 0. -1.
</event>
<event>
 7    1  0.5041278E-013  0.5052884E+02  0.7816164E-02  0.1300439E+00
        -11   -1    0    0    0    0  0.00000000000E+00  0.00000000000E+00  0.45593999997E+02  0.45594000000E+02  0.51100000000E-03 0.  1.
         11   -1    0    0    0    0 -0.00000000000E+00 -0.00000000000E+00 -0.45593999997E+02  0.45594000000E+02  0.51100000000E-03 0. -1.
    9900012    2    1    2    0    0  0.21701707285E+02 -0.33353706870E+02 -0.83506779591E+01  0.50528835186E+02  0.29999925031E+02 0.  0.
        -12    1    1    2    0    0 -0.21701707285E+02  0.33353706870E+02  0.83506779591E+01  0.40659164814E+02  0.00000000000E+00 0.  1.
         11    1    3    3    0    0  0.54716234827E+01 -0.73682660319E+01 -0.28719384453E+01  0.96165502415E+01  0.51100000000E-03 0. -1.
        -11    1    3    3    0    0  0.19394350318E+02 -0.28456411929E+02 -0.89763338486E+01  0.35587677274E+02  0.51100000000E-03 0.  1.
        -12    1    3    3    0    0 -0.31642665159E+01  0.24709710909E+01  0.34975943348E+01  0.53246076707E+01  0.00000000000E+00 0.  1.
</event>
<event>
 7    1  0.5041278E-013  0.5052886E+02  0.7816164E-02  0.1300439E+00
        -11   -1    0    0    0    0  0.00000000000E+00  0.00000000000E+00  0.45593999997E+02  0.45594000000E+02  0.51100000000E-03 0.  1.
         11   -1    0    0    0    0 -0.00000000000E+00 -0.00000000000E+00 -0.45593999997E+02  0.45594000000E+02  0.51100000000E-03 0. -1.
    9900012    2    1    2    0    0  0.25086324010E+02 -0.20454946119E+02  0.24605637408E+02  0.50528857543E+02  0.29999992987E+02 0.  0.
        -12    1    1    2    0    0 -0.25086324010E+02  0.20454946119E+02 -0.24605637408E+02  0.40659142457E+02  0.00000000000E+00 0.  1.
         11    1    3    3    0    0  0.26255029606E+02 -0.13418949563E+02  0.13333937261E+02  0.32360294655E+02  0.51100000000E-03 0. -1.
        -11    1    3    3    0    0  0.46228208658E+01 -0.62091298690E+01  0.90538728014E+01  0.11912026673E+02  0.51100000000E-03 0.  1.
         12    1    3    3    0    0 -0.57915264619E+01 -0.82686668734E+00  0.22178273460E+01  0.62565362153E+01  0.00000000000E+00 0. -1.
</event>
<event>
 7    1  0.8680244E-013  0.5052882E+02  0.7816164E-02  0.1300439E+00
        -11   -1    0    0    0    0  0.00000000000E+00  0.00000000000E+00  0.45593999997E+02  0.45594000000E+02  0.51100000000E-03 0.  1.
         11   -1    0    0    0    0 -0.00000000000E+00 -0.00000000000E+00 -0.45593999997E+02  0.45594000000E+02  0.51100000000E-03 0. -1.
    9900012    2    1    2    0    0  0.18126994520E+02  0.21350454459E+02 -0.29474385276E+02  0.50528816249E+02  0.29999867469E+02 0.  0.
        -12    1    1    2    0    0 -0.18126994520E+02 -0.21350454459E+02  0.29474385276E+02  0.40659183751E+02  0.00000000000E+00 0.  1.
         11    1    3    3    0    0  0.74329197058E+01  0.21589318375E+00 -0.17819436026E+02  0.19308733925E+02  0.51100000000E-03 0. -1.
        -11    1    3    3    0    0  0.13054051493E+00 -0.22140020208E+01  0.12301102090E+01  0.25361421809E+01  0.51100000000E-03 0.  1.
         12    1    3    3    0    0  0.10563534299E+02  0.23348563296E+02 -0.12885059459E+02  0.28683940143E+02  0.00000000000E+00 0. -1.
</event>
<event>
 7    1  0.5041278E-013  0.5052887E+02  0.7816164E-02  0.1300439E+00
        -11   -1    0    0    0    0  0.00000000000E+00  0.00000000000E+00  0.45593999997E+02  0.45594000000E+02  0.51100000000E-03 0. -1.
         11   -1    0    0    0    0 -0.00000000000E+00 -0.00000000000E+00 -0.45593999997E+02  0.45594000000E+02  0.51100000000E-03 0.  1.
    9900012    2    1    2    0    0  0.11389715543E+02  0.16283504370E+02  0.35472337298E+02  0.50528870052E+02  0.30000031009E+02 0.  0.
        -12    1    1    2    0    0 -0.11389715543E+02 -0.16283504370E+02 -0.35472337298E+02  0.40659129948E+02  0.00000000000E+00 0.  1.
         11    1    3    3    0    0  0.25334153618E+01 -0.18363223394E-01  0.18516421427E+02  0.18688937726E+02  0.51100000000E-03 0. -1.
        -11    1    3    3    0    0 -0.49872050876E+00  0.54676420172E+01 -0.37637697626E+01  0.66565602575E+01  0.51100000000E-03 0.  1.
         12    1    3    3    0    0  0.93550206905E+01  0.10834225576E+02  0.20719685634E+02  0.25183372068E+02  0.00000000000E+00 0. -1.
</event>
<event>
 7    1  0.5041278E-013  0.5052887E+02  0.7816164E-02  0.1300439E+00
        -11   -1    0    0    0    0  0.00000000000E+00  0.00000000000E+00  0.45593999997E+02  0.45594000000E+02  0.51100000000E-03 0. -1.
         11   -1    0    0    0    0 -0.00000000000E+00 -0.00000000000E+00 -0.45593999997E+02  0.45594000000E+02  0.51100000000E-03 0.  1.
    9900012    2    1    2    0    0  0.35614078298E+02  0.19453268204E+02  0.25244838645E+01  0.50528865287E+02  0.30000016527E+02 0.  0.
        -12    1    1    2    0    0 -0.35614078298E+02 -0.19453268204E+02 -0.25244838645E+01  0.40659134713E+02  0.00000000000E+00 0.  1.
         11    1    3    3    0    0 -0.23855185325E+01  0.25648211157E+01 -0.12455776186E+01  0.37175892577E+01  0.51100000000E-03 0. -1.
        -11    1    3    3    0    0  0.12933880771E+02  0.49860490898E+01 -0.87256927213E+01  0.16379367236E+02  0.51100000000E-03 0.  1.
         12    1    3    3    0    0  0.25065716059E+02  0.11902397999E+02  0.12495754204E+02  0.30431908793E+02  0.00000000000E+00 0. -1.
</event>
<event>
 7    1  0.5041278E-013  0.5052884E+02  0.7816164E-02  0.1300439E+00
        -11   -1    0    0    0    0  0.00000000000E+00  0.00000000000E+00  0.45593999997E+02  0.45594000000E+02  0.51100000000E-03 0.  1.
         11   -1    0    0    0    0 -0.00000000000E+00 -0.00000000000E+00 -0.45593999997E+02  0.45594000000E+02  0.51100000000E-03 0. -1.
    9900012    2    1    2    0    0  0.36257321851E+02 -0.15540669557E+02 -0.98519893708E+01  0.50528837532E+02  0.29999932162E+02 0.  0.
        -12    1    1    2    0    0 -0.36257321851E+02  0.15540669557E+02  0.98519893708E+01  0.40659162468E+02  0.00000000000E+00 0.  1.
         11    1    3    3    0    0  0.27695978092E+02 -0.16068908991E+02 -0.85397998433E+01  0.33139179536E+02  0.51100000000E-03 0.  1.
        -11    1    3    3    0    0  0.12930571522E+02  0.24787958755E+00 -0.54262733624E+00  0.12944325740E+02  0.51100000000E-03 0. -1.
        -12    1    3    3    0    0 -0.43692277641E+01  0.28035984721E+00 -0.76956219122E+00  0.44453322558E+01  0.00000000000E+00 0.  1.
</event>
<event>
 7    1  0.5041278E-013  0.5052887E+02  0.7816164E-02  0.1300439E+00
        -11   -1    0    0    0    0  0.00000000000E+00  0.00000000000E+00  0.45593999997E+02  0.45594000000E+02  0.51100000000E-03 0.  1.
         11   -1    0    0    0    0 -0.00000000000E+00 -0.00000000000E+00 -0.45593999997E+02  0.45594000000E+02  0.51100000000E-03 0. -1.
    9900012    2    1    2    0    0 -0.12191386582E+02 -0.14516228020E+01 -0.38761162207E+02  0.50528870506E+02  0.30000032391E+02 0.  0.
        -12    1    1    2    0    0  0.12191386582E+02  0.14516228020E+01  0.38761162207E+02  0.40659129494E+02  0.00000000000E+00 0.  1.
         11    1    3    3    0    0 -0.92489718577E+01 -0.13210171994E+01 -0.10761630456E+02  0.14251359837E+02  0.51100000000E-03 0. -1.
        -11    1    3    3    0    0 -0.49588596044E+01 -0.57769649250E+01 -0.29188550729E+02  0.30165130635E+02  0.51100000000E-03 0.  1.
        -12    1    3    3    0    0  0.20164448803E+01  0.56463593224E+01  0.11890189779E+01  0.61123800342E+01  0.00000000000E+00 0.  1.
</event>
<event>
 7    1  0.5041278E-013  0.5052883E+02  0.7816164E-02  0.1300439E+00
        -11   -1    0    0    0    0  0.00000000000E+00  0.00000000000E+00  0.45593999997E+02  0.45594000000E+02  0.51100000000E-03 0. -1.
         11   -1    0    0    0    0 -0.00000000000E+00 -0.00000000000E+00 -0.45593999997E+02  0.45594000000E+02  0.51100000000E-03 0.  1.
    9900012    2    1    2    0    0 -0.19609363169E+02 -0.17373678307E+02  0.31093353217E+02  0.50528825930E+02  0.29999896897E+02 0.  0.
        -12    1    1    2    0    0  0.19609363169E+02  0.17373678307E+02 -0.31093353217E+02  0.40659174070E+02  0.00000000000E+00 0.  1.
         11    1    3    3    0    0  0.78857233676E+00  0.65716963089E+00  0.25418290411E+01  0.27412795168E+01  0.51100000000E-03 0. -1.
        -11    1    3    3    0    0 -0.12964811378E+02 -0.12065377150E+02  0.24463687578E-01  0.17710456193E+02  0.51100000000E-03 0.  1.
        -12    1    3    3    0    0 -0.74331241275E+01 -0.59654707880E+01  0.28527060488E+02  0.30077090220E+02  0.00000000000E+00 0.  1.
</event>
<event>
 7    1  0.5041278E-013  0.5052884E+02  0.7816164E-02  0.1300439E+00
        -11   -1    0    0    0    0  0.00000000000E+00  0.00000000000E+00  0.45593999997E+02  0.45594000000E+02  0.51100000000E-03 0.  1.
         11   -1    0    0    0    0 -0.00000000000E+00 -0.00000000000E+00 -0.45593999997E+02  0.45594000000E+02  0.51100000000E-03 0. -1.
    9900012    2    1    2    0    0  0.36956969210E+02 -0.13163929681E+02 -0.10679925419E+02  0.50528838365E+02  0.29999934695E+02 0.  0.
        -12    1    1    2    0    0 -0.36956969210E+02  0.13163929681E+02  0.10679925419E+02  0.40659161635E+02  0.00000000000E+00 0.  1.
         11    1    3    3    0    0  0.24791938331E+02 -0.35838790407E+01 -0.76661572185E+01  0.26196457050E+02  0.51100000000E-03 0. -1.
        -11    1    3    3    0    0  0.34955308346E+01  0.56260623581E+01 -0.12428270505E+01  0.67391344260E+01  0.51100000000E-03 0.  1.
         12    1    3    3    0    0  0.86695000445E+01 -0.15206112999E+02 -0.17709411503E+01  0.17593246889E+02  0.00000000000E+00 0. -1.
</event>
<event>
 7    1  0.5041278E-013  0.5052887E+02  0.7816164E-02  0.1300439E+00
        -11   -1    0    0    0    0  0.00000000000E+00  0.00000000000E+00  0.45593999997E+02  0.45594000000E+02  0.51100000000E-03 0.  1.
         11   -1    0    0    0    0 -0.00000000000E+00 -0.00000000000E+00 -0.45593999997E+02  0.45594000000E+02  0.51100000000E-03 0. -1.
    9900012    2    1    2    0    0 -0.12657065041E+02 -0.17747591752E+02 -0.34321812093E+02  0.50528867031E+02  0.30000021828E+02 0.  0.
        -12    1    1    2    0    0  0.12657065041E+02  0.17747591752E+02  0.34321812093E+02  0.40659132969E+02  0.00000000000E+00 0.  1.
         11    1    3    3    0    0 -0.47732738082E+01  0.47137325796E+01 -0.34810522363E+01  0.75578530426E+01  0.51100000000E-03 0. -1.
        -11    1    3    3    0    0 -0.10288963426E+02 -0.40325458312E+01 -0.14445136225E+02  0.18187527459E+02  0.51100000000E-03 0.  1.
         12    1    3    3    0    0  0.24051721931E+01 -0.18428778501E+02 -0.16395623631E+02  0.24783486530E+02  0.00000000000E+00 0. -1.
</event>
<event>
 7    1  0.5041278E-013  0.5052885E+02  0.7816164E-02  0.1300439E+00
        -11   -1    0    0    0    0  0.00000000000E+00  0.00000000000E+00  0.45593999997E+02  0.45594000000E+02  0.51100000000E-03 0.  1.
         11   -1    0    0    0    0 -0.00000000000E+00 -0.00000000000E+00 -0.45593999997E+02  0.45594000000E+02  0.51100000000E-03 0. -1.
    9900012    2    1    2    0    0  0.22882314808E+01  0.86965491805E+01 -0.39652244282E+02  0.50528850383E+02  0.29999971225E+02 0.  0.
        -12    1    1    2    0    0 -0.22882314808E+01 -0.86965491805E+01  0.39652244282E+02  0.40659149617E+02  0.00000000000E+00 0.  1.
         11    1    3    3    0    0 -0.34641357390E+01  0.43456270069E+01 -0.36887975700E+01  0.66702277528E+01  0.51100000000E-03 0. -1.
        -11    1    3    3    0    0  0.32434912449E+01 -0.18827569943E+01  0.26964604258E+01  0.46190809091E+01  0.51100000000E-03 0.  1.
         12    1    3    3    0    0  0.25088759749E+01  0.62336791679E+01 -0.38659907138E+02  0.39239541722E+02  0.00000000000E+00 0. -1.
</event>
<event>
 7    1  0.5041278E-013  0.5052885E+02  0.7816164E-02  0.1300439E+00
        -11   -1    0    0    0    0  0.00000000000E+00  0.00000000000E+00  0.45593999997E+02  0.45594000000E+02  0.51100000000E-03 0. -1.
         11   -1    0    0    0    0 -0.00000000000E+00 -0.00000000000E+00 -0.45593999997E+02  0.45594000000E+02  0.51100000000E-03 0.  1.
    9900012    2    1    2    0    0 -0.21089459233E+02 -0.33016127867E+02  0.10878241896E+02  0.50528854205E+02  0.29999982841E+02 0.  0.
        -12    1    1    2    0    0  0.21089459233E+02  0.33016127867E+02 -0.10878241896E+02  0.40659145795E+02  0.00000000000E+00 0.  1.
         11    1    3    3    0    0 -0.98382867602E+01 -0.15297551340E+02  0.12788783686E+02  0.22234206795E+02  0.51100000000E-03 0. -1.
        -11    1    3    3    0    0 -0.43611476923E+01 -0.19433303028E+02  0.22853403550E+01  0.20047335398E+02  0.51100000000E-03 0.  1.
         12    1    3    3    0    0 -0.68900247805E+01  0.17147265014E+01 -0.41958821446E+01  0.82473120119E+01  0.00000000000E+00 0. -1.
</event>
<event>
 7    1  0.5041278E-013  0.5052886E+02  0.7816164E-02  0.1300439E+00
        -11   -1    0    0    0    0  0.00000000000E+00  0.00000000000E+00  0.45593999997E+02  0.45594000000E+02  0.51100000000E-03 0.  1.
         11   -1    0    0    0    0 -0.00000000000E+00 -0.00000000000E+00 -0.45593999997E+02  0.45594000000E+02  0.51100000000E-03 0. -1.
    9900012    2    1    2    0    0 -0.21421991619E+02  0.18293424253E+02 -0.29319185998E+02  0.50528858797E+02  0.29999996798E+02 0.  0.
        -12    1    1    2    0    0  0.21421991619E+02 -0.18293424253E+02  0.29319185998E+02  0.40659141203E+02  0.00000000000E+00 0.  1.
         11    1    3    3    0    0 -0.11060232672E+01 -0.25302245463E+01 -0.40167661563E+00  0.27904601927E+01  0.51100000000E-03 0. -1.
        -11    1    3    3    0    0 -0.46015673687E+01  0.21593428262E+02 -0.14627411969E+02  0.26484179193E+02  0.51100000000E-03 0.  1.
         12    1    3    3    0    0 -0.15714400983E+02 -0.76977946273E+00 -0.14290097414E+02  0.21254219411E+02  0.00000000000E+00 0. -1.
</event>
<event>
 7    1  0.5041278E-013  0.5052887E+02  0.7816164E-02  0.1300439E+00
        -11   -1    0    0    0    0  0.00000000000E+00  0.00000000000E+00  0.45593999997E+02  0.45594000000E+02  0.51100000000E-03 0. -1.
         11   -1    0    0    0    0 -0.00000000000E+00 -0.00000000000E+00 -0.45593999997E+02  0.45594000000E+02  0.51100000000E-03 0.  1.
    9900012    2    1    2    0    0  0.21686096557E+02 -0.29093514681E+02  0.18342450185E+02  0.50528869916E+02  0.30000030598E+02 0.  0.
        -12    1    1    2    0    0 -0.21686096557E+02  0.29093514681E+02 -0.18342450185E+02  0.40659130084E+02  0.00000000000E+00 0.  1.
         11    1    3    3    0    0  0.14174596239E+02 -0.33249168837E+01  0.10126697941E+02  0.17734831893E+02  0.51100000000E-03 0. -1.
        -11    1    3    3    0    0  0.37507550019E+01  0.10801317430E+01 -0.12179143186E+01  0.40887850537E+01  0.51100000000E-03 0.  1.
        -12    1    3    3    0    0  0.37607453162E+01 -0.26848729540E+02  0.94336665621E+01  0.28705252970E+02  0.00000000000E+00 0.  1.
</event>
<event>
 7    1  0.6379127E-013  0.5052885E+02  0.7816164E-02  0.1300439E+00
        -11   -1    0    0    0    0  0.00000000000E+00  0.00000000000E+00  0.45593999997E+02  0.45594000000E+02  0.51100000000E-03 0. -1.
         11   -1    0    0    0    0 -0.00000000000E+00 -0.00000000000E+00 -0.45593999997E+02  0.45594000000E+02  0.51100000000E-03 0.  1.
    9900012    2    1    2    0    0 -0.12999266113E+01 -0.40242906044E+02 -0.56555372361E+01  0.50528850999E+02  0.29999973097E+02 0.  0.
        -12    1    1    2    0    0  0.12999266113E+01  0.40242906044E+02  0.56555372361E+01  0.40659149001E+02  0.00000000000E+00 0.  1.
         11    1    3    3    0    0  0.33521831528E+01 -0.23921630018E+00 -0.15951214799E+01  0.37200496132E+01  0.51100000000E-03 0. -1.
        -11    1    3    3    0    0 -0.78473449466E+01 -0.90223277545E+01 -0.93984034132E+01  0.15208984443E+02  0.51100000000E-03 0.  1.
         12    1    3    3    0    0  0.31952351825E+01 -0.30981361989E+02  0.53379876570E+01  0.31599816943E+02  0.00000000000E+00 0. -1.
</event>
<event>
 7    1  0.5041278E-013  0.5052887E+02  0.7816164E-02  0.1300439E+00
        -11   -1    0    0    0    0  0.00000000000E+00  0.00000000000E+00  0.45593999997E+02  0.45594000000E+02  0.51100000000E-03 0.  1.
         11   -1    0    0    0    0 -0.00000000000E+00 -0.00000000000E+00 -0.45593999997E+02  0.45594000000E+02  0.51100000000E-03 0. -1.
    9900012    2    1    2    0    0 -0.88969891730E+01 -0.36668698097E+02 -0.15146443247E+02  0.50528873356E+02  0.30000041051E+02 0.  0.
        -12    1    1    2    0    0  0.88969891730E+01  0.36668698097E+02  0.15146443247E+02  0.40659126644E+02  0.00000000000E+00 0.  1.
         11    1    3    3    0    0 -0.79955050266E+00 -0.13188690933E+02 -0.12329936529E+02  0.18072304353E+02  0.51100000000E-03 0. -1.
        -11    1    3    3    0    0 -0.75313331913E+01 -0.22010518381E+01 -0.72841702875E+01  0.10706294684E+02  0.51100000000E-03 0.  1.
        -12    1    3    3    0    0 -0.56610547905E+00 -0.21278955325E+02  0.44676635697E+01  0.21750274318E+02  0.00000000000E+00 0.  1.
</event>
<event>
 7    1  0.5041278E-013  0.5052886E+02  0.7816164E-02  0.1300439E+00
        -11   -1    0    0    0    0  0.00000000000E+00  0.00000000000E+00  0.45593999997E+02  0.45594000000E+02  0.51100000000E-03 0. -1.
         11   -1    0    0    0    0 -0.00000000000E+00 -0.00000000000E+00 -0.45593999997E+02  0.45594000000E+02  0.51100000000E-03 0.  1.
    9900012    2    1    2    0    0  0.34776619772E+02 -0.20500517146E+02  0.48457202661E+01  0.50528862147E+02  0.30000006983E+02 0.  0.
        -12    1    1    2    0    0 -0.34776619772E+02  0.20500517146E+02 -0.48457202661E+01  0.40659137853E+02  0.00000000000E+00 0.  1.
         11    1    3    3    0    0  0.28470830812E+02 -0.14043391626E+02  0.64548007792E+01  0.32395516801E+02  0.51100000000E-03 0.  1.
        -11    1    3    3    0    0  0.29006187853E+01 -0.84556268592E+01  0.51418365767E+01  0.10312599021E+02  0.51100000000E-03 0. -1.
         12    1    3    3    0    0  0.34051701756E+01  0.19985013399E+01 -0.67509170898E+01  0.78207463252E+01  0.00000000000E+00 0. -1.
</event>
<event>
 7    1  0.5859689E-013  0.5052886E+02  0.7816164E-02  0.1300439E+00
        -11   -1    0    0    0    0  0.00000000000E+00  0.00000000000E+00  0.45593999997E+02  0.45594000000E+02  0.51100000000E-03 0. -1.
         11   -1    0    0    0    0 -0.00000000000E+00 -0.00000000000E+00 -0.45593999997E+02  0.45594000000E+02  0.51100000000E-03 0.  1.
    9900012    2    1    2    0    0 -0.34759884093E+02 -0.15692016471E+02  0.14095269474E+02  0.50528861487E+02  0.30000004975E+02 0.  0.
        -12    1    1    2    0    0  0.34759884093E+02  0.15692016471E+02 -0.14095269474E+02  0.40659138513E+02  0.00000000000E+00 0.  1.
         11    1    3    3    0    0 -0.20967537275E+02 -0.17057153382E+02  0.10633357982E+01  0.27050227063E+02  0.51100000000E-03 0. -1.
        -11    1    3    3    0    0  0.34936901366E+00 -0.42699859120E+01  0.33371519028E+01  0.54306004714E+01  0.51100000000E-03 0.  1.
         12    1    3    3    0    0 -0.14141715832E+02  0.56351228236E+01  0.96947817728E+01  0.18048033952E+02  0.00000000000E+00 0. -1.
</event>
<event>
 7    1  0.5041278E-013  0.5052884E+02  0.7816164E-02  0.1300439E+00
        -11   -1    0    0    0    0  0.00000000000E+00  0.00000000000E+00  0.45593999997E+02  0.45594000000E+02  0.51100000000E-03 0.  1.
         11   -1    0    0    0    0 -0.00000000000E+00 -0.00000000000E+00 -0.45593999997E+02  0.45594000000E+02  0.51100000000E-03 0. -1.
    9900012    2    1    2    0    0 -0.54394345198E+01 -0.38229471556E+02 -0.12731345262E+02  0.50528842415E+02  0.29999947004E+02 0.  0.
        -12    1    1    2    0    0  0.54394345198E+01  0.38229471556E+02  0.12731345262E+02  0.40659157585E+02  0.00000000000E+00 0.  1.
         11    1    3    3    0    0 -0.40920091309E+01  0.18758730487E+01 -0.29894337193E+01  0.54037165586E+01  0.51100000000E-03 0. -1.
        -11    1    3    3    0    0  0.39154819296E+01 -0.73747589687E+01  0.39758834553E+01  0.92480115754E+01  0.51100000000E-03 0.  1.
         12    1    3    3    0    0 -0.52629073185E+01 -0.32730585636E+02 -0.13717794998E+02  0.35877114281E+02  0.00000000000E+00 0. -1.
</event>
<event>
 7    1  0.5041278E-013  0.5052886E+02  0.7816164E-02  0.1300439E+00
        -11   -1    0    0    0    0  0.00000000000E+00  0.00000000000E+00  0.45593999997E+02  0.45594000000E+02  0.51100000000E-03 0. -1.
         11   -1    0    0    0    0 -0.00000000000E+00 -0.00000000000E+00 -0.45593999997E+02  0.45594000000E+02  0.51100000000E-03 0.  1.
    9900012    2    1    2    0    0  0.35354020218E+01  0.39241922956E+02  0.10036839204E+02  0.50528859257E+02  0.29999998197E+02 0.  0.
        -12    1    1    2    0    0 -0.35354020218E+01 -0.39241922956E+02 -0.10036839204E+02  0.40659140743E+02  0.00000000000E+00 0.  1.
         11    1    3    3    0    0  0.10133263334E+01  0.28219312830E+02  0.76646589383E+01  0.29259245441E+02  0.51100000000E-03 0. -1.
        -11    1    3    3    0    0 -0.53473891414E+01  0.58761007176E+01  0.71801450679E+01  0.10708763408E+02  0.51100000000E-03 0.  1.
         12    1    3    3    0    0  0.78694648298E+01  0.51465094090E+01 -0.48079648020E+01  0.10560850408E+02  0.00000000000E+00 0. -1.
</event>
<event>
 7    1  0.5041278E-013  0.5052886E+02  0.7816164E-02  0.1300439E+00
        -11   -1    0    0    0    0  0.00000000000E+00  0.00000000000E+00  0.45593999997E+02  0.45594000000E+02  0.51100000000E-03 0.  1.
         11   -1    0    0    0    0 -0.00000000000E+00 -0.00000000000E+00 -0.45593999997E+02  0.45594000000E+02  0.51100000000E-03 0. -1.
    9900012    2    1    2    0    0  0.12874365692E+02  0.19794762046E+02 -0.33099603385E+02  0.50528860306E+02  0.30000001386E+02 0.  0.
        -12    1    1    2    0    0 -0.12874365692E+02 -0.19794762046E+02  0.33099603385E+02  0.40659139694E+02  0.00000000000E+00 0.  1.
         11    1    3    3    0    0 -0.14186737105E+00  0.45763093717E+01 -0.63194604384E+01  0.78037372015E+01  0.51100000000E-03 0. -1.
        -11    1    3    3    0    0  0.20664256701E+02  0.73743924133E+01 -0.14661119870E+02  0.26388285367E+02  0.51100000000E-03 0.  1.
        -12    1    3    3    0    0 -0.76480236383E+01  0.78440602611E+01 -0.12119023076E+02  0.16336837738E+02  0.00000000000E+00 0.  1.
</event>
<event>
 7    1  0.5041278E-013  0.5052886E+02  0.7816164E-02  0.1300439E+00
        -11   -1    0    0    0    0  0.00000000000E+00  0.00000000000E+00  0.45593999997E+02  0.45594000000E+02  0.51100000000E-03 0.  1.
         11   -1    0    0    0    0 -0.00000000000E+00 -0.00000000000E+00 -0.45593999997E+02  0.45594000000E+02  0.51100000000E-03 0. -1.
    9900012    2    1    2    0    0  0.74276234057E+01  0.22198739483E+02 -0.33244730236E+02  0.50528859422E+02  0.29999998698E+02 0.  0.
        -12    1    1    2    0    0 -0.74276234057E+01 -0.22198739483E+02  0.33244730236E+02  0.40659140578E+02  0.00000000000E+00 0.  1.
         11    1    3    3    0    0 -0.57637494277E+01  0.86940342796E+00 -0.36235993862E+01  0.68634643264E+01  0.51100000000E-03 0.  1.
        -11    1    3    3    0    0  0.38053693852E+01  0.15620376815E+01  0.24890109231E+01  0.48079073944E+01  0.51100000000E-03 0. -1.
         12    1    3    3    0    0  0.93860034482E+01  0.19767298374E+02 -0.32110141773E+02  0.38857487701E+02  0.00000000000E+00 0. -1.
</event>
<event>
 7    1  0.5041278E-013  0.5052887E+02  0.7816164E-02  0.1300439E+00
        -11   -1    0    0    0    0  0.00000000000E+00  0.00000000000E+00  0.45593999997E+02  0.45594000000E+02  0.51100000000E-03 0.  1.
         11   -1    0    0    0    0 -0.00000000000E+00 -0.00000000000E+00 -0.45593999997E+02  0.45594000000E+02  0.51100000000E-03 0. -1.
    9900012    2    1    2    0    0 -0.23431526654E+02 -0.23772062609E+02 -0.23216746558E+02  0.50528871593E+02  0.30000035694E+02 0.  0.
        -12    1    1    2    0    0  0.23431526654E+02  0.23772062609E+02  0.23216746558E+02  0.40659128407E+02  0.00000000000E+00 0.  1.
         11    1    3    3    0    0 -0.17920852946E+02 -0.14707569307E+02 -0.94210890478E+01  0.25024517664E+02  0.51100000000E-03 0. -1.
        -11    1    3    3    0    0 -0.66112554291E+01 -0.79941490871E+00 -0.15610049911E+02  0.16971193860E+02  0.51100000000E-03 0.  1.
        -12    1    3    3    0    0  0.11005817206E+01 -0.82650783938E+01  0.18143924004E+01  0.85331600690E+01  0.00000000000E+00 0.  1.
</event>
<event>
 7    1  0.5041278E-013  0.5052896E+02  0.7816164E-02  0.1300438E+00
        -11   -1    0    0    0    0  0.00000000000E+00  0.00000000000E+00  0.45593999997E+02  0.45594000000E+02  0.51100000000E-03 0. -1.
         11   -1    0    0    0    0 -0.00000000000E+00 -0.00000000000E+00 -0.45593999997E+02  0.45594000000E+02  0.51100000000E-03 0.  1.
    9900012    2    1    2    0    0  0.38026212986E+02 -0.29979094532E+01  0.14077544590E+02  0.50528959224E+02  0.30000302056E+02 0.  0.
        -12    1    1    2    0    0 -0.38026212986E+02  0.29979094532E+01 -0.14077544590E+02  0.40659040776E+02  0.00000000000E+00 0.  1.
         11    1    3    3    0    0 -0.28070057165E+01  0.11374502783E+01  0.14801905349E+01  0.33710589595E+01  0.51100000000E-03 0. -1.
        -11    1    3    3    0    0  0.99302225654E+01 -0.76083331451E+01  0.98819233288E+01  0.15942034449E+02  0.51100000000E-03 0.  1.
         12    1    3    3    0    0  0.30902996137E+02  0.34729734136E+01  0.27154307268E+01  0.31215865815E+02  0.00000000000E+00 0. -1.
</event>
<event>
 7    1  0.5041278E-013  0.5052885E+02  0.7816164E-02  0.1300439E+00
        -11   -1    0    0    0    0  0.00000000000E+00  0.00000000000E+00  0.45593999997E+02  0.45594000000E+02  0.51100000000E-03 0. -1.
         11   -1    0    0    0    0 -0.00000000000E+00 -0.00000000000E+00 -0.45593999997E+02  0.45594000000E+02  0.51100000000E-03 0.  1.
    9900012    2    1    2    0    0 -0.69395460478E+01 -0.33637471805E+02 -0.21760743423E+02  0.50528846503E+02  0.29999959429E+02 0.  0.
        -12    1    1    2    0    0  0.69395460478E+01  0.33637471805E+02  0.21760743423E+02  0.40659153497E+02  0.00000000000E+00 0.  1.
         11    1    3    3    0    0 -0.73218796607E+01 -0.62548097445E+01  0.52412028336E+00  0.96440276357E+01  0.51100000000E-03 0. -1.
        -11    1    3    3    0    0  0.50932790936E+01  0.86708836035E+00 -0.11554627080E+01  0.52941881796E+01  0.51100000000E-03 0.  1.
         12    1    3    3    0    0 -0.47109454807E+01 -0.28249750421E+02 -0.21129400998E+02  0.35590630687E+02  0.00000000000E+00 0. -1.
</event>
<event>
 7    1  0.5041278E-013  0.5052887E+02  0.7816164E-02  0.1300439E+00
        -11   -1    0    0    0    0  0.00000000000E+00  0.00000000000E+00  0.45593999997E+02  0.45594000000E+02  0.51100000000E-03 0. -1.
         11   -1    0    0    0    0 -0.00000000000E+00 -0.00000000000E+00 -0.45593999997E+02  0.45594000000E+02  0.51100000000E-03 0.  1.
    9900012    2    1    2    0    0 -0.96057488979E+01  0.26475271870E+02  0.29324980930E+02  0.50528868934E+02  0.30000027613E+02 0.  0.
        -12    1    1    2    0    0  0.96057488979E+01 -0.26475271870E+02 -0.29324980930E+02  0.40659131066E+02  0.00000000000E+00 0.  1.
         11    1    3    3    0    0 -0.37730027547E+01  0.35686732852E+01 -0.16716063648E+01  0.54557535597E+01  0.51100000000E-03 0.  1.
        -11    1    3    3    0    0  0.32377850451E+01  0.18915077942E+02  0.95230191295E+01  0.21423149142E+02  0.51100000000E-03 0. -1.
         12    1    3    3    0    0 -0.90705311883E+01  0.39915206426E+01  0.21473568165E+02  0.23649966233E+02  0.00000000000E+00 0. -1.
</event>
<event>
 7    1  0.5041278E-013  0.5052886E+02  0.7816164E-02  0.1300439E+00
        -11   -1    0    0    0    0  0.00000000000E+00  0.00000000000E+00  0.45593999997E+02  0.45594000000E+02  0.51100000000E-03 0.  1.
         11   -1    0    0    0    0 -0.00000000000E+00 -0.00000000000E+00 -0.45593999997E+02  0.45594000000E+02  0.51100000000E-03 0. -1.
    9900012    2    1    2    0    0 -0.12058174446E+02 -0.27028645210E+02 -0.27878639468E+02  0.50528858698E+02  0.29999996498E+02 0.  0.
        -12    1    1    2    0    0  0.12058174446E+02  0.27028645210E+02  0.27878639468E+02  0.40659141302E+02  0.00000000000E+00 0.  1.
         11    1    3    3    0    0 -0.58087561359E+01 -0.14824559428E+02 -0.24340674608E+02  0.29085694950E+02  0.51100000000E-03 0. -1.
        -11    1    3    3    0    0 -0.34223135090E+01 -0.14135144385E+02 -0.73701241370E+01  0.16304394089E+02  0.51100000000E-03 0.  1.
        -12    1    3    3    0    0 -0.28271048010E+01  0.19310586035E+01  0.38321592769E+01  0.51387696592E+01  0.00000000000E+00 0.  1.
</event>
<event>
 7    1  0.5041278E-013  0.5052886E+02  0.7816164E-02  0.1300439E+00
        -11   -1    0    0    0    0  0.00000000000E+00  0.00000000000E+00  0.45593999997E+02  0.45594000000E+02  0.51100000000E-03 0. -1.
         11   -1    0    0    0    0 -0.00000000000E+00 -0.00000000000E+00 -0.45593999997E+02  0.45594000000E+02  0.51100000000E-03 0.  1.
    9900012    2    1    2    0    0 -0.23875836486E+02 -0.84873918255E+01  0.31797388507E+02  0.50528864449E+02  0.30000013979E+02 0.  0.
        -12    1    1    2    0    0  0.23875836486E+02  0.84873918255E+01 -0.31797388507E+02  0.40659135551E+02  0.00000000000E+00 0.  1.
         11    1    3    3    0    0 -0.21909360880E+02  0.29934013550E+01  0.19584073037E+02  0.29538389645E+02  0.51100000000E-03 0. -1.
        -11    1    3    3    0    0 -0.57878190021E+01 -0.10867419390E+02  0.11874106192E+02  0.17105380765E+02  0.51100000000E-03 0.  1.
        -12    1    3    3    0    0  0.38213433959E+01 -0.61337379039E+00  0.33920927789E+00  0.38850940388E+01  0.00000000000E+00 0.  1.
</event>
<event>
 7    1  0.5041278E-013  0.5052886E+02  0.7816164E-02  0.1300439E+00
        -11   -1    0    0    0    0  0.00000000000E+00  0.00000000000E+00  0.45593999997E+02  0.45594000000E+02  0.51100000000E-03 0. -1.
         11   -1    0    0    0    0 -0.00000000000E+00 -0.00000000000E+00 -0.45593999997E+02  0.45594000000E+02  0.51100000000E-03 0.  1.
    9900012    2    1    2    0    0 -0.32946427358E+02  0.23338804361E+02 -0.47957101559E+01  0.50528859569E+02  0.29999999146E+02 0.  0.
        -12    1    1    2    0    0  0.32946427358E+02 -0.23338804361E+02  0.47957101559E+01  0.40659140431E+02  0.00000000000E+00 0.  1.
         11    1    3    3    0    0 -0.23947418462E+01  0.10720263033E+02  0.44752779809E+01  0.11861152611E+02  0.51100000000E-03 0. -1.
        -11    1    3    3    0    0 -0.14346457407E+02  0.14451293650E+02 -0.92341684351E+01  0.22359127784E+02  0.51100000000E-03 0.  1.
         12    1    3    3    0    0 -0.16205228105E+02 -0.18327523211E+01 -0.36819701733E-01  0.16308579174E+02  0.00000000000E+00 0. -1.
</event>
<event>
 7    1  0.5041278E-013  0.5052886E+02  0.7816164E-02  0.1300439E+00
        -11   -1    0    0    0    0  0.00000000000E+00  0.00000000000E+00  0.45593999997E+02  0.45594000000E+02  0.51100000000E-03 0.  1.
         11   -1    0    0    0    0 -0.00000000000E+00 -0.00000000000E+00 -0.45593999997E+02  0.45594000000E+02  0.51100000000E-03 0. -1.
    9900012    2    1    2    0    0 -0.99475481362E+01  0.39106075488E+02  0.49927025901E+01  0.50528856709E+02  0.29999990453E+02 0.  0.
        -12    1    1    2    0    0  0.99475481362E+01 -0.39106075488E+02 -0.49927025901E+01  0.40659143291E+02  0.00000000000E+00 0.  1.
         11    1    3    3    0    0  0.65442556390E+00  0.62985510951E+01 -0.91167816994E+01  0.11100257994E+02  0.51100000000E-03 0. -1.
        -11    1    3    3    0    0  0.23236844013E+01  0.92389477327E+01  0.11770780262E+01  0.95991237801E+01  0.51100000000E-03 0.  1.
         12    1    3    3    0    0 -0.12925658101E+02  0.23568576660E+02  0.12932406263E+02  0.29829474935E+02  0.00000000000E+00 0. -1.
</event>
<event>
 7    1  0.5041278E-013  0.5052887E+02  0.7816164E-02  0.1300439E+00
        -11   -1    0    0    0    0  0.00000000000E+00  0.00000000000E+00  0.45593999997E+02  0.45594000000E+02  0.51100000000E-03 0.  1.
         11   -1    0    0    0    0 -0.00000000000E+00 -0.00000000000E+00 -0.45593999997E+02  0.45594000000E+02  0.51100000000E-03 0. -1.
    9900012    2    1    2    0    0  0.27611131201E+02 -0.15707022996E+02 -0.25378730146E+02  0.50528867184E+02  0.30000022291E+02 0.  0.
        -12    1    1    2    0    0 -0.27611131201E+02  0.15707022996E+02  0.25378730146E+02  0.40659132816E+02  0.00000000000E+00 0.  1.
         11    1    3    3    0    0  0.24303687225E+01 -0.28870533128E+01 -0.18055523021E+02  0.18445695454E+02  0.51100000000E-03 0. -1.
        -11    1    3    3    0    0  0.18852630760E+02 -0.94153087915E+01 -0.11256781339E+02  0.23891104047E+02  0.51100000000E-03 0.  1.
        -12    1    3    3    0    0  0.63281317176E+01 -0.34046608919E+01  0.39335742135E+01  0.81920676826E+01  0.00000000000E+00 0.  1.
</event>
<event>
 7    1  0.5041278E-013  0.5052886E+02  0.7816164E-02  0.1300439E+00
        -11   -1    0    0    0    0  0.00000000000E+00  0.00000000000E+00  0.45593999997E+02  0.45594000000E+02  0.51100000000E-03 0.  1.
         11   -1    0    0    0    0 -0.00000000000E+00 -0.00000000000E+00 -0.45593999997E+02  0.45594000000E+02  0.51100000000E-03 0. -1.
    9900012    2    1    2    0    0 -0.31909688892E+02 -0.15064087692E+02 -0.20199283676E+02  0.50528855343E+02  0.29999986302E+02 0.  0.
        -12    1    1    2    0    0  0.31909688892E+02  0.15064087692E+02  0.20199283676E+02  0.40659144657E+02  0.00000000000E+00 0.  1.
         11    1    3    3    0    0 -0.85538524378E+01 -0.98900411760E+01 -0.10401363455E+02  0.16708371194E+02  0.51100000000E-03 0. -1.
        -11    1    3    3    0    0  0.39172415095E+01  0.10935528029E+01 -0.29111589203E+01  0.50015482899E+01  0.51100000000E-03 0.  1.
         12    1    3    3    0    0 -0.27273077964E+02 -0.62675993187E+01 -0.68867613012E+01  0.28818935859E+02  0.00000000000E+00 0. -1.
</event>
<event>
 7    1  0.5041278E-013  0.5052885E+02  0.7816164E-02  0.1300439E+00
        -11   -1    0    0    0    0  0.00000000000E+00  0.00000000000E+00  0.45593999997E+02  0.45594000000E+02  0.51100000000E-03 0. -1.
         11   -1    0    0    0    0 -0.00000000000E+00 -0.00000000000E+00 -0.45593999997E+02  0.45594000000E+02  0.51100000000E-03 0.  1.
    9900012    2    1    2    0    0  0.38325578794E+02  0.11134338181E+02  0.77680622301E+01  0.50528852598E+02  0.29999977958E+02 0.  0.
        -12    1    1    2    0    0 -0.38325578794E+02 -0.11134338181E+02 -0.77680622301E+01  0.40659147402E+02  0.00000000000E+00 0.  1.
         11    1    3    3    0    0  0.18010152730E+02 -0.39509912794E+01  0.82442694768E+01  0.20197621467E+02  0.51100000000E-03 0. -1.
        -11    1    3    3    0    0  0.83516852845E+01 -0.20861601865E+01 -0.32881824864E+01  0.92149257046E+01  0.51100000000E-03 0.  1.
         12    1    3    3    0    0  0.11963740779E+02  0.17171489647E+02  0.28119752397E+01  0.21116305427E+02  0.00000000000E+00 0. -1.
</event>
<event>
 7    1  0.5041278E-013  0.5052886E+02  0.7816164E-02  0.1300439E+00
        -11   -1    0    0    0    0  0.00000000000E+00  0.00000000000E+00  0.45593999997E+02  0.45594000000E+02  0.51100000000E-03 0.  1.
         11   -1    0    0    0    0 -0.00000000000E+00 -0.00000000000E+00 -0.45593999997E+02  0.45594000000E+02  0.51100000000E-03 0. -1.
    9900012    2    1    2    0    0  0.19884657167E+02 -0.41040916244E+01 -0.35226729201E+02  0.50528860696E+02  0.30000002572E+02 0.  0.
        -12    1    1    2    0    0 -0.19884657167E+02  0.41040916244E+01  0.35226729201E+02  0.40659139304E+02  0.00000000000E+00 0.  1.
         11    1    3    3    0    0  0.30387600051E+01 -0.31253517177E+01 -0.76508409053E+01  0.88055239791E+01  0.51100000000E-03 0. -1.
        -11    1    3    3    0    0 -0.71687360367E+01 -0.12548380498E+01 -0.70107010364E+01  0.10105212723E+02  0.51100000000E-03 0.  1.
        -12    1    3    3    0    0  0.24014633199E+02  0.27609814314E+00 -0.20565187259E+02  0.31618123994E+02  0.00000000000E+00 0.  1.
</event>
<event>
 7    1  0.5041278E-013  0.5052886E+02  0.7816164E-02  0.1300439E+00
        -11   -1    0    0    0    0  0.00000000000E+00  0.00000000000E+00  0.45593999997E+02  0.45594000000E+02  0.51100000000E-03 0. -1.
         11   -1    0    0    0    0 -0.00000000000E+00 -0.00000000000E+00 -0.45593999997E+02  0.45594000000E+02  0.51100000000E-03 0.  1.
    9900012    2    1    2    0    0  0.25000544672E+02  0.15627430468E+02  0.27998609292E+02  0.50528856635E+02  0.29999990227E+02 0.  0.
        -12    1    1    2    0    0 -0.25000544672E+02 -0.15627430468E+02 -0.27998609292E+02  0.40659143365E+02  0.00000000000E+00 0.  1.
         11    1    3    3    0    0  0.16780300468E+02  0.16429376061E+02  0.19804997824E+02  0.30720364917E+02  0.51100000000E-03 0. -1.
        -11    1    3    3    0    0  0.11984211037E+02  0.18826818595E+01  0.23492578757E+01  0.12356569832E+02  0.51100000000E-03 0.  1.
        -12    1    3    3    0    0 -0.37639668337E+01 -0.26846274528E+01  0.58443535920E+01  0.74519218859E+01  0.00000000000E+00 0.  1.
</event>
<event>
 7    1  0.5041278E-013  0.5052885E+02  0.7816164E-02  0.1300439E+00
        -11   -1    0    0    0    0  0.00000000000E+00  0.00000000000E+00  0.45593999997E+02  0.45594000000E+02  0.51100000000E-03 0. -1.
         11   -1    0    0    0    0 -0.00000000000E+00 -0.00000000000E+00 -0.45593999997E+02  0.45594000000E+02  0.51100000000E-03 0.  1.
    9900012    2    1    2    0    0 -0.68629615321E+01  0.37819535746E+02  0.13257019550E+02  0.50528854751E+02  0.29999984500E+02 0.  0.
        -12    1    1    2    0    0  0.68629615321E+01 -0.37819535746E+02 -0.13257019550E+02  0.40659145249E+02  0.00000000000E+00 0.  1.
         11    1    3    3    0    0  0.18400092176E+01  0.18934315219E+02 -0.31391756176E+01  0.19280776710E+02  0.51100000000E-03 0. -1.
        -11    1    3    3    0    0  0.83994268667E+00 -0.93451117278E+00  0.73607749827E+01  0.74672500599E+01  0.51100000000E-03 0.  1.
         12    1    3    3    0    0 -0.95429134364E+01  0.19819731700E+02  0.90354201853E+01  0.23780827981E+02  0.00000000000E+00 0. -1.
</event>
<event>
 7    1  0.5041278E-013  0.5052886E+02  0.7816164E-02  0.1300439E+00
        -11   -1    0    0    0    0  0.00000000000E+00  0.00000000000E+00  0.45593999997E+02  0.45594000000E+02  0.51100000000E-03 0.  1.
         11   -1    0    0    0    0 -0.00000000000E+00 -0.00000000000E+00 -0.45593999997E+02  0.45594000000E+02  0.51100000000E-03 0. -1.
    9900012    2    1    2    0    0 -0.34075505360E+02  0.12770547476E+02 -0.18136659720E+02  0.50528863583E+02  0.30000011347E+02 0.  0.
        -12    1    1    2    0    0  0.34075505360E+02 -0.12770547476E+02  0.18136659720E+02  0.40659136417E+02  0.00000000000E+00 0.  1.
         11    1    3    3    0    0 -0.26360604611E+02  0.75625243446E+00 -0.20590610885E+02  0.33457833912E+02  0.51100000000E-03 0.  1.
        -11    1    3    3    0    0  0.17228028132E+01  0.29655145269E+01 -0.95311115996E+00  0.35595992874E+01  0.51100000000E-03 0. -1.
        -12    1    3    3    0    0 -0.94377035624E+01  0.90487805148E+01  0.34070623248E+01  0.13511430384E+02  0.00000000000E+00 0.  1.
</event>
<event>
 7    1  0.5041278E-013  0.5052886E+02  0.7816164E-02  0.1300439E+00
        -11   -1    0    0    0    0  0.00000000000E+00  0.00000000000E+00  0.45593999997E+02  0.45594000000E+02  0.51100000000E-03 0. -1.
         11   -1    0    0    0    0 -0.00000000000E+00 -0.00000000000E+00 -0.45593999997E+02  0.45594000000E+02  0.51100000000E-03 0.  1.
    9900012    2    1    2    0    0  0.30960838245E+02 -0.25238822413E+02 -0.75890920635E+01  0.50528856133E+02  0.29999988703E+02 0.  0.
        -12    1    1    2    0    0 -0.30960838245E+02  0.25238822413E+02  0.75890920635E+01  0.40659143867E+02  0.00000000000E+00 0.  1.
         11    1    3    3    0    0  0.44297341801E+01 -0.81405252216E+01  0.12425356271E+01  0.93506465464E+01  0.51100000000E-03 0. -1.
        -11    1    3    3    0    0  0.22191061503E+02 -0.17801311887E+02 -0.16096298245E+02  0.32686705753E+02  0.51100000000E-03 0.  1.
         12    1    3    3    0    0  0.43400425610E+01  0.70301469509E+00  0.72646705544E+01  0.84915038336E+01  0.00000000000E+00 0. -1.
</event>
<event>
 7    1  0.5041278E-013  0.5052886E+02  0.7816164E-02  0.1300439E+00
        -11   -1    0    0    0    0  0.00000000000E+00  0.00000000000E+00  0.45593999997E+02  0.45594000000E+02  0.51100000000E-03 0.  1.
         11   -1    0    0    0    0 -0.00000000000E+00 -0.00000000000E+00 -0.45593999997E+02  0.45594000000E+02  0.51100000000E-03 0. -1.
    9900012    2    1    2    0    0 -0.38405353751E+02  0.76245519521E+01  0.10957215801E+02  0.50528861207E+02  0.30000004126E+02 0.  0.
        -12    1    1    2    0    0  0.38405353751E+02 -0.76245519521E+01 -0.10957215801E+02  0.40659138793E+02  0.00000000000E+00 0.  1.
         11    1    3    3    0    0 -0.66865619940E+01  0.31340043685E+01  0.23292888866E+01  0.77432345735E+01  0.51100000000E-03 0. -1.
        -11    1    3    3    0    0  0.24695112684E+01  0.55745560803E+01 -0.28168052754E+01  0.67162901677E+01  0.51100000000E-03 0.  1.
        -12    1    3    3    0    0 -0.34188303026E+02 -0.10840084967E+01  0.11444732190E+02  0.36069336466E+02  0.00000000000E+00 0.  1.
</event>
<event>
 7    1  0.5041278E-013  0.5052887E+02  0.7816164E-02  0.1300439E+00
        -11   -1    0    0    0    0  0.00000000000E+00  0.00000000000E+00  0.45593999997E+02  0.45594000000E+02  0.51100000000E-03 0.  1.
         11   -1    0    0    0    0 -0.00000000000E+00 -0.00000000000E+00 -0.45593999997E+02  0.45594000000E+02  0.51100000000E-03 0. -1.
    9900012    2    1    2    0    0  0.21913524562E+01  0.39301782903E+02  0.10184915276E+02  0.50528872315E+02  0.30000037889E+02 0.  0.
        -12    1    1    2    0    0 -0.21913524562E+01 -0.39301782903E+02 -0.10184915276E+02  0.40659127685E+02  0.00000000000E+00 0.  1.
         11    1    3    3    0    0 -0.50243973135E+00 -0.20849694834E+01  0.34025448733E+01  0.40220461591E+01  0.51100000000E-03 0. -1.
        -11    1    3    3    0    0  0.10908761559E+02  0.27893948714E+02  0.20726873094E+01  0.30022816100E+02  0.51100000000E-03 0.  1.
         12    1    3    3    0    0 -0.82149693711E+01  0.13492803672E+02  0.47096830928E+01  0.16484010056E+02  0.00000000000E+00 0. -1.
</event>
<event>
 7    1  0.5041278E-013  0.5052885E+02  0.7816164E-02  0.1300439E+00
        -11   -1    0    0    0    0  0.00000000000E+00  0.00000000000E+00  0.45593999997E+02  0.45594000000E+02  0.51100000000E-03 0. -1.
         11   -1    0    0    0    0 -0.00000000000E+00 -0.00000000000E+00 -0.45593999997E+02  0.45594000000E+02  0.51100000000E-03 0.  1.
    9900012    2    1    2    0    0  0.82522676310E+01  0.95870239755E+01  0.38641366388E+02  0.50528854090E+02  0.29999982493E+02 0.  0.
        -12    1    1    2    0    0 -0.82522676310E+01 -0.95870239755E+01 -0.38641366388E+02  0.40659145910E+02  0.00000000000E+00 0.  1.
         11    1    3    3    0    0  0.15099703778E+02  0.64756140302E+01  0.32173073342E+02  0.36125355081E+02  0.51100000000E-03 0. -1.
        -11    1    3    3    0    0  0.80746747112E+00  0.32581367090E+01 -0.12025012045E+01  0.35655950330E+01  0.51100000000E-03 0.  1.
        -12    1    3    3    0    0 -0.76549036180E+01 -0.14672676368E+00  0.76707942512E+01  0.10837903976E+02  0.00000000000E+00 0.  1.
</event>
<event>
 7    1  0.5041278E-013  0.5052886E+02  0.7816164E-02  0.1300439E+00
        -11   -1    0    0    0    0  0.00000000000E+00  0.00000000000E+00  0.45593999997E+02  0.45594000000E+02  0.51100000000E-03 0.  1.
         11   -1    0    0    0    0 -0.00000000000E+00 -0.00000000000E+00 -0.45593999997E+02  0.45594000000E+02  0.51100000000E-03 0. -1.
    9900012    2    1    2    0    0  0.12931252075E+01  0.37972195680E+02 -0.14477765467E+02  0.50528861907E+02  0.30000006252E+02 0.  0.
        -12    1    1    2    0    0 -0.12931252075E+01 -0.37972195680E+02  0.14477765467E+02  0.40659138093E+02  0.00000000000E+00 0.  1.
         11    1    3    3    0    0 -0.20345659704E+01  0.23932843140E+02 -0.72380322123E+01  0.25086042933E+02  0.51100000000E-03 0. -1.
        -11    1    3    3    0    0 -0.30671456181E+01  0.16780586143E+02 -0.30736522095E+01  0.17333285658E+02  0.51100000000E-03 0.  1.
         12    1    3    3    0    0  0.63948367960E+01 -0.27412336036E+01 -0.41660810454E+01  0.81095333154E+01  0.00000000000E+00 0. -1.
</event>
<event>
 7    1  0.5041278E-013  0.5052895E+02  0.7816164E-02  0.1300438E+00
        -11   -1    0    0    0    0  0.00000000000E+00  0.00000000000E+00  0.45593999997E+02  0.45594000000E+02  0.51100000000E-03 0.  1.
         11   -1    0    0    0    0 -0.00000000000E+00 -0.00000000000E+00 -0.45593999997E+02  0.45594000000E+02  0.51100000000E-03 0. -1.
    9900012    2    1    2    0    0 -0.32122364458E+02  0.15787725486E+01 -0.24876090285E+02  0.50528945793E+02  0.30000261231E+02 0.  0.
        -12    1    1    2    0    0  0.32122364458E+02 -0.15787725486E+01  0.24876090285E+02  0.40659054207E+02  0.00000000000E+00 0.  1.
         11    1    3    3    0    0 -0.16292986653E+01 -0.26299603238E+01  0.14129490136E+01  0.34011366661E+01  0.51100000000E-03 0. -1.
        -11    1    3    3    0    0  0.36342545769E+01 -0.82072096410E+00  0.49873091587E-01  0.37261074618E+01  0.51100000000E-03 0.  1.
         12    1    3    3    0    0 -0.34127320370E+02  0.50294538365E+01 -0.26338912391E+02  0.43401701665E+02  0.00000000000E+00 0. -1.
</event>
<event>
 7    1  0.5041278E-013  0.5052886E+02  0.7816164E-02  0.1300439E+00
        -11   -1    0    0    0    0  0.00000000000E+00  0.00000000000E+00  0.45593999997E+02  0.45594000000E+02  0.51100000000E-03 0.  1.
         11   -1    0    0    0    0 -0.00000000000E+00 -0.00000000000E+00 -0.45593999997E+02  0.45594000000E+02  0.51100000000E-03 0. -1.
    9900012    2    1    2    0    0  0.20727071968E+02  0.30936139707E+02 -0.16325116972E+02  0.50528859620E+02  0.29999999300E+02 0.  0.
        -12    1    1    2    0    0 -0.20727071968E+02 -0.30936139707E+02  0.16325116972E+02  0.40659140380E+02  0.00000000000E+00 0.  1.
         11    1    3    3    0    0  0.66969612584E+01  0.21443634109E+02 -0.13695283928E+02  0.26310445378E+02  0.51100000000E-03 0. -1.
        -11    1    3    3    0    0  0.12417248157E+02  0.14234079982E+02 -0.86737219778E+00  0.18908977220E+02  0.51100000000E-03 0.  1.
        -12    1    3    3    0    0  0.16128625529E+01 -0.47415743835E+01 -0.17624608462E+01  0.53094370213E+01  0.00000000000E+00 0.  1.
</event>
<event>
 7    1  0.5041278E-013  0.5052885E+02  0.7816164E-02  0.1300439E+00
        -11   -1    0    0    0    0  0.00000000000E+00  0.00000000000E+00  0.45593999997E+02  0.45594000000E+02  0.51100000000E-03 0. -1.
         11   -1    0    0    0    0 -0.00000000000E+00 -0.00000000000E+00 -0.45593999997E+02  0.45594000000E+02  0.51100000000E-03 0.  1.
    9900012    2    1    2    0    0 -0.15615630102E+02  0.42983364862E+01  0.37294005283E+02  0.50528850598E+02  0.29999971878E+02 0.  0.
        -12    1    1    2    0    0  0.15615630102E+02 -0.42983364862E+01 -0.37294005283E+02  0.40659149402E+02  0.00000000000E+00 0.  1.
         11    1    3    3    0    0  0.48456731759E+01  0.20108234628E+01 -0.64311564074E+00  0.52855990687E+01  0.51100000000E-03 0. -1.
        -11    1    3    3    0    0 -0.97919265215E+01 -0.56916283583E+01  0.17795059472E+02  0.21093615153E+02  0.51100000000E-03 0.  1.
        -12    1    3    3    0    0 -0.10669376756E+02  0.79791413817E+01  0.20142061452E+02  0.24149636376E+02  0.00000000000E+00 0.  1.
</event>
<event>
 7    1  0.5041278E-013  0.5052886E+02  0.7816164E-02  0.1300439E+00
        -11   -1    0    0    0    0  0.00000000000E+00  0.00000000000E+00  0.45593999997E+02  0.45594000000E+02  0.51100000000E-03 0.  1.
         11   -1    0    0    0    0 -0.00000000000E+00 -0.00000000000E+00 -0.45593999997E+02  0.45594000000E+02  0.51100000000E-03 0. -1.
    9900012    2    1    2    0    0  0.36510281471E+01  0.21485665627E+02 -0.34324949934E+02  0.50528855618E+02  0.29999987135E+02 0.  0.
        -12    1    1    2    0    0 -0.36510281471E+01 -0.21485665627E+02  0.34324949934E+02  0.40659144382E+02  0.00000000000E+00 0.  1.
         11    1    3    3    0    0 -0.72002298875E+00  0.28301736235E+01 -0.18375134022E+02  0.18605748209E+02  0.51100000000E-03 0. -1.
        -11    1    3    3    0    0  0.77100558001E+01 -0.94683619400E+00 -0.44088303686E+01  0.89319227884E+01  0.51100000000E-03 0.  1.
         12    1    3    3    0    0 -0.33390046643E+01  0.19602328197E+02 -0.11540985543E+02  0.22991184620E+02  0.00000000000E+00 0. -1.
</event>
<event>
 7    1  0.5291355E-013  0.5052886E+02  0.7816164E-02  0.1300439E+00
        -11   -1    0    0    0    0  0.00000000000E+00  0.00000000000E+00  0.45593999997E+02  0.45594000000E+02  0.51100000000E-03 0.  1.
         11   -1    0    0    0    0 -0.00000000000E+00 -0.00000000000E+00 -0.45593999997E+02  0.45594000000E+02  0.51100000000E-03 0. -1.
    9900012    2    1    2    0    0 -0.14650199165E+02  0.30519869625E+02 -0.22518320477E+02  0.50528861610E+02  0.30000005349E+02 0.  0.
        -12    1    1    2    0    0  0.14650199165E+02 -0.30519869625E+02  0.22518320477E+02  0.40659138390E+02  0.00000000000E+00 0.  1.
         11    1    3    3    0    0 -0.77642092911E+01  0.83750354155E+01 -0.19202654417E+02  0.22342025447E+02  0.51100000000E-03 0. -1.
        -11    1    3    3    0    0  0.44025216073E+01  0.10731709537E+02 -0.35554825162E+01  0.12132322213E+02  0.51100000000E-03 0.  1.
         12    1    3    3    0    0 -0.11288511481E+02  0.11413124673E+02  0.23981645642E+00  0.16054513951E+02  0.00000000000E+00 0. -1.
</event>
<event>
 7    1  0.5041278E-013  0.5052883E+02  0.7816164E-02  0.1300439E+00
        -11   -1    0    0    0    0  0.00000000000E+00  0.00000000000E+00  0.45593999997E+02  0.45594000000E+02  0.51100000000E-03 0. -1.
         11   -1    0    0    0    0 -0.00000000000E+00 -0.00000000000E+00 -0.45593999997E+02  0.45594000000E+02  0.51100000000E-03 0.  1.
    9900012    2    1    2    0    0 -0.41873808138E+01  0.11330195438E+02  0.38823454405E+02  0.50528830079E+02  0.29999909508E+02 0.  0.
        -12    1    1    2    0    0  0.41873808138E+01 -0.11330195438E+02 -0.38823454405E+02  0.40659169921E+02  0.00000000000E+00 0.  1.
         11    1    3    3    0    0  0.59217153912E+01  0.99370750880E+01  0.19421171173E+02  0.22605177825E+02  0.51100000000E-03 0.  1.
        -11    1    3    3    0    0 -0.30758541032E+01 -0.42588157677E+01 -0.12380696785E+01  0.53973333228E+01  0.51100000000E-03 0. -1.
         12    1    3    3    0    0 -0.70332421019E+01  0.56519361174E+01  0.20640352910E+02  0.22526318932E+02  0.00000000000E+00 0. -1.
</event>
<event>
 7    1  0.5041278E-013  0.5052888E+02  0.7816164E-02  0.1300439E+00
        -11   -1    0    0    0    0  0.00000000000E+00  0.00000000000E+00  0.45593999997E+02  0.45594000000E+02  0.51100000000E-03 0. -1.
         11   -1    0    0    0    0 -0.00000000000E+00 -0.00000000000E+00 -0.45593999997E+02  0.45594000000E+02  0.51100000000E-03 0.  1.
    9900012    2    1    2    0    0 -0.33358772665E+01  0.90672576100E+01  0.39494571009E+02  0.50528875847E+02  0.30000048624E+02 0.  0.
        -12    1    1    2    0    0  0.33358772665E+01 -0.90672576100E+01 -0.39494571009E+02  0.40659124153E+02  0.00000000000E+00 0.  1.
         11    1    3    3    0    0  0.69524626772E+00  0.28148938061E+01  0.27305568248E+02  0.27459079593E+02  0.51100000000E-03 0. -1.
        -11    1    3    3    0    0 -0.91325995603E+01  0.77638276669E+01  0.13005493120E+02  0.17686838223E+02  0.51100000000E-03 0.  1.
         12    1    3    3    0    0  0.51014760261E+01 -0.15114638629E+01 -0.81649035872E+00  0.53829580307E+01  0.00000000000E+00 0. -1.
</event>
<event>
 7    1  0.5041278E-013  0.5052885E+02  0.7816164E-02  0.1300439E+00
        -11   -1    0    0    0    0  0.00000000000E+00  0.00000000000E+00  0.45593999997E+02  0.45594000000E+02  0.51100000000E-03 0. -1.
         11   -1    0    0    0    0 -0.00000000000E+00 -0.00000000000E+00 -0.45593999997E+02  0.45594000000E+02  0.51100000000E-03 0.  1.
    9900012    2    1    2    0    0 -0.35374852343E+02 -0.10739720108E+02  0.16924674281E+02  0.50528851389E+02  0.29999974280E+02 0.  0.
        -12    1    1    2    0    0  0.35374852343E+02  0.10739720108E+02 -0.16924674281E+02  0.40659148611E+02  0.00000000000E+00 0.  1.
         11    1    3    3    0    0 -0.18928845382E+02 -0.37380723442E+01  0.86550901566E+01  0.21146748172E+02  0.51100000000E-03 0. -1.
        -11    1    3    3    0    0 -0.11982060729E+02 -0.66543760114E+01 -0.56014711366E+01  0.14806315496E+02  0.51100000000E-03 0.  1.
        -12    1    3    3    0    0 -0.44639462316E+01 -0.34727175278E+00  0.13871055261E+02  0.14575787721E+02  0.00000000000E+00 0.  1.
</event>
<event>
 7    1  0.5041278E-013  0.5052878E+02  0.7816164E-02  0.1300439E+00
        -11   -1    0    0    0    0  0.00000000000E+00  0.00000000000E+00  0.45593999997E+02  0.45594000000E+02  0.51100000000E-03 0.  1.
         11   -1    0    0    0    0 -0.00000000000E+00 -0.00000000000E+00 -0.45593999997E+02  0.45594000000E+02  0.51100000000E-03 0. -1.
    9900012    2    1    2    0    0  0.30102738400E+01 -0.39613916385E+02 -0.86514709024E+01  0.50528781258E+02  0.29999761111E+02 0.  0.
        -12    1    1    2    0    0 -0.30102738400E+01  0.39613916385E+02  0.86514709024E+01  0.40659218742E+02  0.00000000000E+00 0.  1.
         11    1    3    3    0    0 -0.53765806302E+01 -0.17293350216E+02 -0.68717997137E+01  0.19369801562E+02  0.51100000000E-03 0. -1.
        -11    1    3    3    0    0  0.59626895742E+01 -0.21048130276E+02 -0.88334375539E+01  0.23592521577E+02  0.51100000000E-03 0.  1.
        -12    1    3    3    0    0  0.24241648959E+01 -0.12724358929E+01  0.70537663653E+01  0.75664581199E+01  0.00000000000E+00 0.  1.
</event>
<event>
 7    1  0.5041278E-013  0.5052885E+02  0.7816164E-02  0.1300439E+00
        -11   -1    0    0    0    0  0.00000000000E+00  0.00000000000E+00  0.45593999997E+02  0.45594000000E+02  0.51100000000E-03 0.  1.
         11   -1    0    0    0    0 -0.00000000000E+00 -0.00000000000E+00 -0.45593999997E+02  0.45594000000E+02  0.51100000000E-03 0. -1.
    9900012    2    1    2    0    0  0.22989012373E+02  0.33260461184E+02 -0.42910569256E+01  0.50528854195E+02  0.29999982811E+02 0.  0.
        -12    1    1    2    0    0 -0.22989012373E+02 -0.33260461184E+02  0.42910569256E+01  0.40659145805E+02  0.00000000000E+00 0.  1.
         11    1    3    3    0    0  0.12266500688E+02  0.60659224424E+01 -0.21050244189E+01  0.13845345148E+02  0.51100000000E-03 0. -1.
        -11    1    3    3    0    0  0.21575994326E+01  0.54317961197E+01  0.90215084101E+01  0.10749291077E+02  0.51100000000E-03 0.  1.
        -12    1    3    3    0    0  0.85649122523E+01  0.21762742622E+02 -0.11207540917E+02  0.25934217970E+02  0.00000000000E+00 0.  1.
</event>
<event>
 7    1  0.5041278E-013  0.5052885E+02  0.7816164E-02  0.1300439E+00
        -11   -1    0    0    0    0  0.00000000000E+00  0.00000000000E+00  0.45593999997E+02  0.45594000000E+02  0.51100000000E-03 0. -1.
         11   -1    0    0    0    0 -0.00000000000E+00 -0.00000000000E+00 -0.45593999997E+02  0.45594000000E+02  0.51100000000E-03 0.  1.
    9900012    2    1    2    0    0  0.19420559099E+02 -0.35693468752E+02  0.14088306681E+01  0.50528848126E+02  0.29999964363E+02 0.  0.
        -12    1    1    2    0    0 -0.19420559099E+02  0.35693468752E+02 -0.14088306681E+01  0.40659151874E+02  0.00000000000E+00 0.  1.
         11    1    3    3    0    0  0.84667058182E+01 -0.12378958225E+02  0.89820147349E+01  0.17481427376E+02  0.51100000000E-03 0. -1.
        -11    1    3    3    0    0  0.13791022563E+02 -0.72853207076E+01 -0.14840971782E+01  0.15667506051E+02  0.51100000000E-03 0.  1.
        -12    1    3    3    0    0 -0.28371692822E+01 -0.16029189819E+02 -0.60890868886E+01  0.17379914699E+02  0.00000000000E+00 0.  1.
</event>
<event>
 7    1  0.5041278E-013  0.5052887E+02  0.7816164E-02  0.1300439E+00
        -11   -1    0    0    0    0  0.00000000000E+00  0.00000000000E+00  0.45593999997E+02  0.45594000000E+02  0.51100000000E-03 0.  1.
         11   -1    0    0    0    0 -0.00000000000E+00 -0.00000000000E+00 -0.45593999997E+02  0.45594000000E+02  0.51100000000E-03 0. -1.
    9900012    2    1    2    0    0 -0.28488733858E+01 -0.21018601682E+02 -0.34688144634E+02  0.50528867270E+02  0.30000022553E+02 0.  0.
        -12    1    1    2    0    0  0.28488733858E+01  0.21018601682E+02  0.34688144634E+02  0.40659132730E+02  0.00000000000E+00 0.  1.
         11    1    3    3    0    0  0.19780203124E+01  0.82392524020E+00 -0.19578943865E+02  0.19695848808E+02  0.51100000000E-03 0. -1.
        -11    1    3    3    0    0  0.49790653511E-01  0.19943587066E+01 -0.31338799726E+01  0.37149898659E+01  0.51100000000E-03 0.  1.
         12    1    3    3    0    0 -0.48766843517E+01 -0.23836885628E+02 -0.11975320797E+02  0.27118028596E+02  0.00000000000E+00 0. -1.
</event>
<event>
 7    1  0.5041278E-013  0.5052886E+02  0.7816164E-02  0.1300439E+00
        -11   -1    0    0    0    0  0.00000000000E+00  0.00000000000E+00  0.45593999997E+02  0.45594000000E+02  0.51100000000E-03 0.  1.
         11   -1    0    0    0    0 -0.00000000000E+00 -0.00000000000E+00 -0.45593999997E+02  0.45594000000E+02  0.51100000000E-03 0. -1.
    9900012    2    1    2    0    0  0.15226412231E+02  0.19939604258E+02 -0.31995851252E+02  0.50528856566E+02  0.29999990019E+02 0.  0.
        -12    1    1    2    0    0 -0.15226412231E+02 -0.19939604258E+02  0.31995851252E+02  0.40659143434E+02  0.00000000000E+00 0.  1.
         11    1    3    3    0    0 -0.27742553705E+01 -0.36538010424E+01 -0.46083032618E+01  0.65025544313E+01  0.51100000000E-03 0. -1.
        -11    1    3    3    0    0  0.53929958952E+01  0.15440764072E+02 -0.50602164530E+01  0.17120379396E+02  0.51100000000E-03 0.  1.
         12    1    3    3    0    0  0.12607671706E+02  0.81526412284E+01 -0.22327331537E+02  0.26905922739E+02  0.00000000000E+00 0. -1.
</event>
<event>
 7    1  0.5041278E-013  0.5052886E+02  0.7816164E-02  0.1300439E+00
        -11   -1    0    0    0    0  0.00000000000E+00  0.00000000000E+00  0.45593999997E+02  0.45594000000E+02  0.51100000000E-03 0.  1.
         11   -1    0    0    0    0 -0.00000000000E+00 -0.00000000000E+00 -0.45593999997E+02  0.45594000000E+02  0.51100000000E-03 0. -1.
    9900012    2    1    2    0    0  0.60661226329E+01  0.31541312140E+02 -0.24930178506E+02  0.50528855695E+02  0.29999987370E+02 0.  0.
        -12    1    1    2    0    0 -0.60661226329E+01 -0.31541312140E+02  0.24930178506E+02  0.40659144305E+02  0.00000000000E+00 0.  1.
         11    1    3    3    0    0  0.29839185497E+01  0.18132729510E+02 -0.21539533588E+02  0.28313444807E+02  0.51100000000E-03 0. -1.
        -11    1    3    3    0    0  0.78177106260E+01  0.16490221221E+01 -0.50169573258E+01  0.94342850530E+01  0.51100000000E-03 0.  1.
         12    1    3    3    0    0 -0.47355065428E+01  0.11759560508E+02  0.16263124082E+01  0.12781125835E+02  0.00000000000E+00 0. -1.
</event>
<event>
 7    1  0.5041278E-013  0.5052886E+02  0.7816164E-02  0.1300439E+00
        -11   -1    0    0    0    0  0.00000000000E+00  0.00000000000E+00  0.45593999997E+02  0.45594000000E+02  0.51100000000E-03 0.  1.
         11   -1    0    0    0    0 -0.00000000000E+00 -0.00000000000E+00 -0.45593999997E+02  0.45594000000E+02  0.51100000000E-03 0. -1.
    9900012    2    1    2    0    0 -0.54246955343E+01 -0.21080734731E+02 -0.34341535491E+02  0.50528858859E+02  0.29999996988E+02 0.  0.
        -12    1    1    2    0    0  0.54246955343E+01  0.21080734731E+02  0.34341535491E+02  0.40659141141E+02  0.00000000000E+00 0.  1.
         11    1    3    3    0    0 -0.67269365595E+01 -0.90468266422E+01 -0.89873198072E+01  0.14417651173E+02  0.51100000000E-03 0. -1.
        -11    1    3    3    0    0 -0.84720102670E+01  0.17534372417E+01 -0.10548993658E+02  0.13642975027E+02  0.51100000000E-03 0.  1.
         12    1    3    3    0    0  0.97742512922E+01 -0.13787345330E+02 -0.14805222026E+02  0.22468232659E+02  0.00000000000E+00 0. -1.
</event>
<event>
 7    1  0.5041278E-013  0.5052886E+02  0.7816164E-02  0.1300439E+00
        -11   -1    0    0    0    0  0.00000000000E+00  0.00000000000E+00  0.45593999997E+02  0.45594000000E+02  0.51100000000E-03 0.  1.
         11   -1    0    0    0    0 -0.00000000000E+00 -0.00000000000E+00 -0.45593999997E+02  0.45594000000E+02  0.51100000000E-03 0. -1.
    9900012    2    1    2    0    0 -0.83428823719E+01 -0.31549941543E+02 -0.24252071208E+02  0.50528862583E+02  0.30000008306E+02 0.  0.
        -12    1    1    2    0    0  0.83428823719E+01  0.31549941543E+02  0.24252071208E+02  0.40659137417E+02  0.00000000000E+00 0.  1.
         11    1    3    3    0    0 -0.28589968865E+01 -0.27844711831E+02 -0.61561645130E+01  0.28660080285E+02  0.51100000000E-03 0. -1.
        -11    1    3    3    0    0 -0.19203983280E+01  0.70163388922E+00  0.75873798098E+00  0.21808033927E+01  0.51100000000E-03 0.  1.
        -12    1    3    3    0    0 -0.35634871573E+01 -0.44068636017E+01 -0.18854644676E+02  0.19687978905E+02  0.00000000000E+00 0.  1.
</event>
<event>
 7    1  0.5041278E-013  0.5052887E+02  0.7816164E-02  0.1300439E+00
        -11   -1    0    0    0    0  0.00000000000E+00  0.00000000000E+00  0.45593999997E+02  0.45594000000E+02  0.51100000000E-03 0.  1.
         11   -1    0    0    0    0 -0.00000000000E+00 -0.00000000000E+00 -0.45593999997E+02  0.45594000000E+02  0.51100000000E-03 0. -1.
    9900012    2    1    2    0    0  0.13776275494E+02  0.27597178746E+02 -0.26491033601E+02  0.50528869383E+02  0.30000028977E+02 0.  0.
        -12    1    1    2    0    0 -0.13776275494E+02 -0.27597178746E+02  0.26491033601E+02  0.40659130617E+02  0.00000000000E+00 0.  1.
         11    1    3    3    0    0  0.12136054320E+02  0.32388810323E+01 -0.21502181152E+02  0.24902167764E+02  0.51100000000E-03 0. -1.
        -11    1    3    3    0    0  0.24743371577E+01  0.40513005809E+01 -0.22908808096E+00  0.47526689741E+01  0.51100000000E-03 0.  1.
        -12    1    3    3    0    0 -0.83411598289E+00  0.20306997133E+02 -0.47597643682E+01  0.20874032645E+02  0.00000000000E+00 0.  1.
</event>
<event>
 7    1  0.5041278E-013  0.5052884E+02  0.7816164E-02  0.1300439E+00
        -11   -1    0    0    0    0  0.00000000000E+00  0.00000000000E+00  0.45593999997E+02  0.45594000000E+02  0.51100000000E-03 0.  1.
         11   -1    0    0    0    0 -0.00000000000E+00 -0.00000000000E+00 -0.45593999997E+02  0.45594000000E+02  0.51100000000E-03 0. -1.
    9900012    2    1    2    0    0  0.23921766014E+02 -0.49743902772E+01 -0.32498797519E+02  0.50528840047E+02  0.29999939807E+02 0.  0.
        -12    1    1    2    0    0 -0.23921766014E+02  0.49743902772E+01  0.32498797519E+02  0.40659159953E+02  0.00000000000E+00 0.  1.
         11    1    3    3    0    0  0.16046972889E+02 -0.15003969566E+01 -0.13507242682E+02  0.21028602785E+02  0.51100000000E-03 0. -1.
        -11    1    3    3    0    0  0.23683913381E+01 -0.77675640132E+01 -0.20764700626E+02  0.22296123443E+02  0.51100000000E-03 0.  1.
        -12    1    3    3    0    0  0.55064017870E+01  0.42935706926E+01  0.17731457893E+01  0.72041138193E+01  0.00000000000E+00 0.  1.
</event>
<event>
 7    1  0.5041278E-013  0.5052886E+02  0.7816164E-02  0.1300439E+00
        -11   -1    0    0    0    0  0.00000000000E+00  0.00000000000E+00  0.45593999997E+02  0.45594000000E+02  0.51100000000E-03 0. -1.
         11   -1    0    0    0    0 -0.00000000000E+00 -0.00000000000E+00 -0.45593999997E+02  0.45594000000E+02  0.51100000000E-03 0.  1.
    9900012    2    1    2    0    0 -0.24505191100E+02 -0.18416851313E+02  0.26711065533E+02  0.50528858038E+02  0.29999994493E+02 0.  0.
        -12    1    1    2    0    0  0.24505191100E+02  0.18416851313E+02 -0.26711065533E+02  0.40659141962E+02  0.00000000000E+00 0.  1.
         11    1    3    3    0    0 -0.98776402250E+01 -0.80627388571E+01  0.79125487796E+01  0.15006130839E+02  0.51100000000E-03 0. -1.
        -11    1    3    3    0    0 -0.17172625965E+02 -0.89690457630E+01  0.23217198197E+02  0.30238736032E+02  0.51100000000E-03 0.  1.
        -12    1    3    3    0    0  0.25450750902E+01 -0.13850666932E+01 -0.44186814433E+01  0.52839911673E+01  0.00000000000E+00 0.  1.
</event>
<event>
 7    1  0.5041278E-013  0.5052886E+02  0.7816164E-02  0.1300439E+00
        -11   -1    0    0    0    0  0.00000000000E+00  0.00000000000E+00  0.45593999997E+02  0.45594000000E+02  0.51100000000E-03 0.  1.
         11   -1    0    0    0    0 -0.00000000000E+00 -0.00000000000E+00 -0.45593999997E+02  0.45594000000E+02  0.51100000000E-03 0. -1.
    9900012    2    1    2    0    0  0.31373775957E+02 -0.81854060395E+01  0.24532652552E+02  0.50528859194E+02  0.29999998007E+02 0.  0.
        -12    1    1    2    0    0 -0.31373775957E+02  0.81854060395E+01 -0.24532652552E+02  0.40659140806E+02  0.00000000000E+00 0.  1.
         11    1    3    3    0    0  0.13524086476E+02  0.43234511288E+01  0.93813626108E+01  0.17017729266E+02  0.51100000000E-03 0. -1.
        -11    1    3    3    0    0 -0.27508652943E+01 -0.39291072811E+01  0.92636786634E+01  0.10431725003E+02  0.51100000000E-03 0.  1.
        -12    1    3    3    0    0  0.20600554775E+02 -0.85797498872E+01  0.58876112778E+01  0.23079404926E+02  0.00000000000E+00 0.  1.
</event>
<event>
 7    1  0.5041278E-013  0.5052886E+02  0.7816164E-02  0.1300439E+00
        -11   -1    0    0    0    0  0.00000000000E+00  0.00000000000E+00  0.45593999997E+02  0.45594000000E+02  0.51100000000E-03 0.  1.
         11   -1    0    0    0    0 -0.00000000000E+00 -0.00000000000E+00 -0.45593999997E+02  0.45594000000E+02  0.51100000000E-03 0. -1.
    9900012    2    1    2    0    0 -0.34802878121E+02  0.19363771060E+02 -0.81835049566E+01  0.50528859471E+02  0.29999998848E+02 0.  0.
        -12    1    1    2    0    0  0.34802878121E+02 -0.19363771060E+02  0.81835049566E+01  0.40659140529E+02  0.00000000000E+00 0.  1.
         11    1    3    3    0    0 -0.81659789758E+01  0.12922005278E+02  0.99291368692E+00  0.15318201947E+02  0.51100000000E-03 0. -1.
        -11    1    3    3    0    0  0.10621625701E+01 -0.39557784975E+01 -0.27530518772E+01  0.49351461727E+01  0.51100000000E-03 0.  1.
        -12    1    3    3    0    0 -0.27699061716E+02  0.10397544279E+02 -0.64233667663E+01  0.30275511351E+02  0.00000000000E+00 0.  1.
</event>
