<event>
 7    1  0.2090370E-015  0.9000778E+02  0.7816164E-02  0.1186339E+00
        -11   -1    0    0    0    0  0.00000000000E+00  0.00000000000E+00  0.45593999997E+02  0.45594000000E+02  0.51100000000E-03 0.  1.
         11   -1    0    0    0    0 -0.00000000000E+00 -0.00000000000E+00 -0.45593999997E+02  0.45594000000E+02  0.51100000000E-03 0. -1.
    9900012    2    1    2    0    0 -0.10260468583E+01 -0.34675845399E+00  0.46894415327E+00  0.90007778750E+02  0.90000040629E+02 0.  0.
         12    1    1    2    0    0  0.10260468583E+01  0.34675845399E+00 -0.46894415327E+00  0.11802212503E+01  0.00000000000E+00 0. -1.
         11    1    3    3    0    0 -0.23968620811E+01 -0.30320284865E+02 -0.28946212117E+02  0.41987472160E+02  0.51100000000E-03 0. -1.
        -11    1    3    3    0    0  0.57141571306E+01  0.59718763331E+01 -0.17463906735E+01  0.84477677109E+01  0.51100000000E-03 0.  1.
        -12    1    3    3    0    0 -0.43433419078E+01  0.24001650078E+02  0.31161546944E+02  0.39572538879E+02  0.00000000000E+00 0.  1.
</event>
<event>
 7    1  0.2090370E-015  0.9000784E+02  0.7816164E-02  0.1186339E+00
        -11   -1    0    0    0    0  0.00000000000E+00  0.00000000000E+00  0.45593999997E+02  0.45594000000E+02  0.51100000000E-03 0.  1.
         11   -1    0    0    0    0 -0.00000000000E+00 -0.00000000000E+00 -0.45593999997E+02  0.45594000000E+02  0.51100000000E-03 0. -1.
    9900012    2    1    2    0    0  0.10709856719E+01  0.49561041283E+00  0.11480670078E-01  0.90007842470E+02  0.90000105190E+02 0.  0.
         12    1    1    2    0    0 -0.10709856719E+01 -0.49561041283E+00 -0.11480670078E-01  0.11801575304E+01  0.00000000000E+00 0. -1.
         11    1    3    3    0    0 -0.15825384845E+01  0.54292003233E+01  0.61848828758E+01  0.83805382079E+01  0.51100000000E-03 0. -1.
        -11    1    3    3    0    0 -0.26597153699E+02 -0.88559933158E+01  0.25812139031E+02  0.38106478768E+02  0.51100000000E-03 0.  1.
         12    1    3    3    0    0  0.29250677855E+02  0.39224034054E+01 -0.31985541236E+02  0.43520825494E+02  0.00000000000E+00 0. -1.
</event>
<event>
 7    1  0.2090370E-015  0.9000770E+02  0.7816164E-02  0.1186339E+00
        -11   -1    0    0    0    0  0.00000000000E+00  0.00000000000E+00  0.45593999997E+02  0.45594000000E+02  0.51100000000E-03 0.  1.
         11   -1    0    0    0    0 -0.00000000000E+00 -0.00000000000E+00 -0.45593999997E+02  0.45594000000E+02  0.51100000000E-03 0. -1.
    9900012    2    1    2    0    0  0.78900528751E-01  0.73013206066E+00  0.92400861871E+00  0.90007699171E+02  0.89999960000E+02 0.  0.
         12    1    1    2    0    0 -0.78900528751E-01 -0.73013206066E+00 -0.92400861871E+00  0.11803008290E+01  0.00000000000E+00 0. -1.
         11    1    3    3    0    0  0.27586547887E+02 -0.13787900007E+02 -0.19362928141E+02  0.36414925475E+02  0.51100000000E-03 0. -1.
        -11    1    3    3    0    0 -0.32753830386E+00 -0.11754636504E+02  0.57745580084E+01  0.13100545070E+02  0.51100000000E-03 0.  1.
        -12    1    3    3    0    0 -0.27180109055E+02  0.26272668571E+02  0.14512378751E+02  0.40492228626E+02  0.00000000000E+00 0.  1.
</event>
<event>
 7    1  0.2090370E-015  0.9000777E+02  0.7816164E-02  0.1186339E+00
        -11   -1    0    0    0    0  0.00000000000E+00  0.00000000000E+00  0.45593999997E+02  0.45594000000E+02  0.51100000000E-03 0.  1.
         11   -1    0    0    0    0 -0.00000000000E+00 -0.00000000000E+00 -0.45593999997E+02  0.45594000000E+02  0.51100000000E-03 0. -1.
    9900012    2    1    2    0    0 -0.24334177425E+00  0.56499299953E+00 -0.10072338024E+01  0.90007766023E+02  0.90000027734E+02 0.  0.
         12    1    1    2    0    0  0.24334177425E+00 -0.56499299953E+00  0.10072338024E+01  0.11802339773E+01  0.00000000000E+00 0. -1.
         11    1    3    3    0    0  0.61021074024E+01  0.26186406488E+01 -0.55185173203E+01  0.86340620379E+01  0.51100000000E-03 0. -1.
        -11    1    3    3    0    0  0.28133932553E+02  0.32603252465E+00 -0.23678649063E+02  0.36773671013E+02  0.51100000000E-03 0.  1.
         12    1    3    3    0    0 -0.34479381729E+02 -0.23796801739E+01  0.28189932581E+02  0.44600032972E+02  0.00000000000E+00 0. -1.
</event>
<event>
 7    1  0.2090370E-015  0.9000773E+02  0.7816164E-02  0.1186339E+00
        -11   -1    0    0    0    0  0.00000000000E+00  0.00000000000E+00  0.45593999997E+02  0.45594000000E+02  0.51100000000E-03 0. -1.
         11   -1    0    0    0    0 -0.00000000000E+00 -0.00000000000E+00 -0.45593999997E+02  0.45594000000E+02  0.51100000000E-03 0.  1.
    9900012    2    1    2    0    0 -0.69150086281E+00  0.30202641475E+00 -0.90755041335E+00  0.90007728357E+02  0.89999989571E+02 0.  0.
         12    1    1    2    0    0  0.69150086281E+00 -0.30202641475E+00  0.90755041335E+00  0.11802716430E+01  0.00000000000E+00 0. -1.
         11    1    3    3    0    0  0.36295082582E+01  0.25832643146E+02  0.27428642386E+01  0.26230175116E+02  0.51100000000E-03 0. -1.
        -11    1    3    3    0    0  0.60639819669E+01  0.12065488646E+02 -0.17750530980E+02  0.22303121842E+02  0.51100000000E-03 0.  1.
        -12    1    3    3    0    0 -0.10384991088E+02 -0.37596105377E+02  0.14100116328E+02  0.41474431399E+02  0.00000000000E+00 0.  1.
</event>
<event>
 7    1  0.2090370E-015  0.9000770E+02  0.7816164E-02  0.1186339E+00
        -11   -1    0    0    0    0  0.00000000000E+00  0.00000000000E+00  0.45593999997E+02  0.45594000000E+02  0.51100000000E-03 0. -1.
         11   -1    0    0    0    0 -0.00000000000E+00 -0.00000000000E+00 -0.45593999997E+02  0.45594000000E+02  0.51100000000E-03 0.  1.
    9900012    2    1    2    0    0  0.28186971278E+00 -0.19698867807E+00 -0.11290963003E+01  0.90007697696E+02  0.89999958505E+02 0.  0.
         12    1    1    2    0    0 -0.28186971278E+00  0.19698867807E+00  0.11290963003E+01  0.11803023043E+01  0.00000000000E+00 0. -1.
         11    1    3    3    0    0 -0.14531270949E+01 -0.99660358822E+01 -0.99544163057E+00  0.10120491780E+02  0.51100000000E-03 0. -1.
        -11    1    3    3    0    0 -0.27011956753E+02 -0.22669969862E+02 -0.71427283058E+01  0.35980437867E+02  0.51100000000E-03 0.  1.
         12    1    3    3    0    0  0.28746953561E+02  0.32439017067E+02  0.70090736361E+01  0.43906768049E+02  0.00000000000E+00 0. -1.
</event>
<event>
 7    1  0.2090370E-015  0.9000781E+02  0.7816164E-02  0.1186339E+00
        -11   -1    0    0    0    0  0.00000000000E+00  0.00000000000E+00  0.45593999997E+02  0.45594000000E+02  0.51100000000E-03 0.  1.
         11   -1    0    0    0    0 -0.00000000000E+00 -0.00000000000E+00 -0.45593999997E+02  0.45594000000E+02  0.51100000000E-03 0. -1.
    9900012    2    1    2    0    0  0.54394728156E+00  0.84089790151E+00  0.62438356138E+00  0.90007812406E+02  0.90000074729E+02 0.  0.
         12    1    1    2    0    0 -0.54394728156E+00 -0.84089790151E+00 -0.62438356138E+00  0.11801875942E+01  0.00000000000E+00 0. -1.
         11    1    3    3    0    0  0.33277913697E+01  0.33319202656E+01 -0.78269197444E+01  0.91343615542E+01  0.51100000000E-03 0. -1.
        -11    1    3    3    0    0 -0.63758048795E+01  0.25082682948E+02 -0.25943048822E+02  0.36644694762E+02  0.51100000000E-03 0.  1.
         12    1    3    3    0    0  0.35919607914E+01 -0.27573705312E+02  0.34394352128E+02  0.44228756090E+02  0.00000000000E+00 0. -1.
</event>
<event>
 7    1  0.2090370E-015  0.9000788E+02  0.7816164E-02  0.1186339E+00
        -11   -1    0    0    0    0  0.00000000000E+00  0.00000000000E+00  0.45593999997E+02  0.45594000000E+02  0.51100000000E-03 0.  1.
         11   -1    0    0    0    0 -0.00000000000E+00 -0.00000000000E+00 -0.45593999997E+02  0.45594000000E+02  0.51100000000E-03 0. -1.
    9900012    2    1    2    0    0  0.12673962622E+00  0.58858582600E+00  0.10149838936E+01  0.90007877756E+02  0.90000140942E+02 0.  0.
         12    1    1    2    0    0 -0.12673962622E+00 -0.58858582600E+00 -0.10149838936E+01  0.11801222444E+01  0.00000000000E+00 0. -1.
         11    1    3    3    0    0 -0.10854026496E+02  0.32926369853E+02  0.10972723779E+01  0.34686592940E+02  0.51100000000E-03 0. -1.
        -11    1    3    3    0    0 -0.12753140050E+02  0.18139038791E+01  0.41108666124E+01  0.13521540334E+02  0.51100000000E-03 0.  1.
        -12    1    3    3    0    0  0.23733906173E+02 -0.34151687906E+02 -0.41931550967E+01  0.41799744482E+02  0.00000000000E+00 0.  1.
</event>
<event>
 7    1  0.2090370E-015  0.9000760E+02  0.7816164E-02  0.1186339E+00
        -11   -1    0    0    0    0  0.00000000000E+00  0.00000000000E+00  0.45593999997E+02  0.45594000000E+02  0.51100000000E-03 0.  1.
         11   -1    0    0    0    0 -0.00000000000E+00 -0.00000000000E+00 -0.45593999997E+02  0.45594000000E+02  0.51100000000E-03 0. -1.
    9900012    2    1    2    0    0 -0.10429023857E+01 -0.42083603575E+00  0.35858880102E+00  0.90007604184E+02  0.89999863759E+02 0.  0.
         12    1    1    2    0    0  0.10429023857E+01  0.42083603575E+00 -0.35858880102E+00  0.11803958164E+01  0.00000000000E+00 0. -1.
         11    1    3    3    0    0 -0.15926089458E+01  0.30567483629E+02  0.10316597210E+02  0.32300768364E+02  0.51100000000E-03 0. -1.
        -11    1    3    3    0    0 -0.20108682090E+02 -0.10322118910E+02 -0.16222221508E+02  0.27822036322E+02  0.51100000000E-03 0.  1.
        -12    1    3    3    0    0  0.20658388650E+02 -0.20666200755E+02  0.62642130993E+01  0.29884799498E+02  0.00000000000E+00 0.  1.
</event>
<event>
 7    1  0.2090370E-015  0.9000773E+02  0.7816164E-02  0.1186339E+00
        -11   -1    0    0    0    0  0.00000000000E+00  0.00000000000E+00  0.45593999997E+02  0.45594000000E+02  0.51100000000E-03 0.  1.
         11   -1    0    0    0    0 -0.00000000000E+00 -0.00000000000E+00 -0.45593999997E+02  0.45594000000E+02  0.51100000000E-03 0. -1.
    9900012    2    1    2    0    0  0.15044074351E+00 -0.30913955943E+00  0.11290819809E+01  0.90007734859E+02  0.89999996159E+02 0.  0.
         12    1    1    2    0    0 -0.15044074351E+00  0.30913955943E+00 -0.11290819809E+01  0.11802651414E+01  0.00000000000E+00 0. -1.
         11    1    3    3    0    0  0.27201400730E+01 -0.53285640829E+01  0.71812672820E+01  0.93468367504E+01  0.51100000000E-03 0. -1.
        -11    1    3    3    0    0 -0.93837668610E+01  0.41879978266E+02 -0.43302257432E+01  0.43136278413E+02  0.51100000000E-03 0.  1.
         12    1    3    3    0    0  0.68140675315E+01 -0.36860553743E+02 -0.17219595580E+01  0.37524619695E+02  0.00000000000E+00 0. -1.
</event>
<event>
 7    1  0.2090370E-015  0.9000775E+02  0.7816164E-02  0.1186339E+00
        -11   -1    0    0    0    0  0.00000000000E+00  0.00000000000E+00  0.45593999997E+02  0.45594000000E+02  0.51100000000E-03 0.  1.
         11   -1    0    0    0    0 -0.00000000000E+00 -0.00000000000E+00 -0.45593999997E+02  0.45594000000E+02  0.51100000000E-03 0. -1.
    9900012    2    1    2    0    0 -0.10642222808E+01 -0.45958139439E+00  0.22184109011E+00  0.90007746811E+02  0.90000008269E+02 0.  0.
         12    1    1    2    0    0  0.10642222808E+01  0.45958139439E+00 -0.22184109011E+00  0.11802531890E+01  0.00000000000E+00 0. -1.
         11    1    3    3    0    0 -0.52225250044E+01 -0.32517395338E+02  0.28620728522E+02  0.43632578062E+02  0.51100000000E-03 0. -1.
        -11    1    3    3    0    0  0.37093744206E+01  0.76916456553E+01  0.52219493081E+00  0.85553234471E+01  0.51100000000E-03 0.  1.
        -12    1    3    3    0    0  0.44892830313E+00  0.24366168288E+02 -0.28921082362E+02  0.37819845302E+02  0.00000000000E+00 0.  1.
</event>
<event>
 7    1  0.2090370E-015  0.9000777E+02  0.7816164E-02  0.1186339E+00
        -11   -1    0    0    0    0  0.00000000000E+00  0.00000000000E+00  0.45593999997E+02  0.45594000000E+02  0.51100000000E-03 0. -1.
         11   -1    0    0    0    0 -0.00000000000E+00 -0.00000000000E+00 -0.45593999997E+02  0.45594000000E+02  0.51100000000E-03 0.  1.
    9900012    2    1    2    0    0 -0.10456969015E+01 -0.42083612745E+00 -0.34980627146E+00  0.90007767191E+02  0.90000028918E+02 0.  0.
         12    1    1    2    0    0  0.10456969015E+01  0.42083612745E+00  0.34980627146E+00  0.11802328090E+01  0.00000000000E+00 0. -1.
         11    1    3    3    0    0 -0.59254672247E+01  0.69109021256E+01 -0.21503302634E+01  0.93539109747E+01  0.51100000000E-03 0. -1.
        -11    1    3    3    0    0  0.31634553462E+02  0.14601508234E+02 -0.19597471095E+02  0.39975115872E+02  0.51100000000E-03 0.  1.
         12    1    3    3    0    0 -0.26754783139E+02 -0.21933246487E+02  0.21397995087E+02  0.40678740344E+02  0.00000000000E+00 0. -1.
</event>
<event>
 7    1  0.2090370E-015  0.9000725E+02  0.7816164E-02  0.1186340E+00
        -11   -1    0    0    0    0  0.00000000000E+00  0.00000000000E+00  0.45593999997E+02  0.45594000000E+02  0.51100000000E-03 0. -1.
         11   -1    0    0    0    0 -0.00000000000E+00 -0.00000000000E+00 -0.45593999997E+02  0.45594000000E+02  0.51100000000E-03 0.  1.
    9900012    2    1    2    0    0  0.56058092003E+00 -0.10378819369E+01 -0.52159908153E-01  0.90007250010E+02  0.89999504909E+02 0.  0.
         12    1    1    2    0    0 -0.56058092003E+00  0.10378819369E+01  0.52159908153E-01  0.11807499900E+01  0.00000000000E+00 0. -1.
         11    1    3    3    0    0 -0.24456975722E+02  0.50631615139E+01  0.13623938810E+02  0.28449797450E+02  0.51100000000E-03 0. -1.
        -11    1    3    3    0    0 -0.26897268242E+01 -0.42072768331E+00 -0.29177679578E+02  0.29304413115E+02  0.51100000000E-03 0.  1.
        -12    1    3    3    0    0  0.27707283466E+02 -0.56803157675E+01  0.15501580860E+02  0.32253039445E+02  0.00000000000E+00 0.  1.
</event>
<event>
 7    1  0.2090370E-015  0.9000806E+02  0.7816164E-02  0.1186338E+00
        -11   -1    0    0    0    0  0.00000000000E+00  0.00000000000E+00  0.45593999997E+02  0.45594000000E+02  0.51100000000E-03 0. -1.
         11   -1    0    0    0    0 -0.00000000000E+00 -0.00000000000E+00 -0.45593999997E+02  0.45594000000E+02  0.51100000000E-03 0.  1.
    9900012    2    1    2    0    0  0.93644979888E+00  0.70080252713E+00 -0.15551425134E+00  0.90008064794E+02  0.90000330449E+02 0.  0.
         12    1    1    2    0    0 -0.93644979888E+00 -0.70080252713E+00  0.15551425134E+00  0.11799352059E+01  0.00000000000E+00 0. -1.
         11    1    3    3    0    0 -0.21211207053E+02  0.32045236156E+02  0.70719620510E+01  0.39074609563E+02  0.51100000000E-03 0. -1.
        -11    1    3    3    0    0 -0.70741318661E+01 -0.22720544059E+01 -0.62376603140E+01  0.97012359695E+01  0.51100000000E-03 0.  1.
        -12    1    3    3    0    0  0.29221788718E+02 -0.29072379223E+02 -0.98981598828E+00  0.41232219262E+02  0.00000000000E+00 0.  1.
</event>
<event>
 7    1  0.2090370E-015  0.9000782E+02  0.7816164E-02  0.1186339E+00
        -11   -1    0    0    0    0  0.00000000000E+00  0.00000000000E+00  0.45593999997E+02  0.45594000000E+02  0.51100000000E-03 0. -1.
         11   -1    0    0    0    0 -0.00000000000E+00 -0.00000000000E+00 -0.45593999997E+02  0.45594000000E+02  0.51100000000E-03 0.  1.
    9900012    2    1    2    0    0  0.22055659867E-01 -0.99878532443E+00  0.62830772324E+00  0.90007818162E+02  0.90000080561E+02 0.  0.
         12    1    1    2    0    0 -0.22055659867E-01  0.99878532443E+00 -0.62830772324E+00  0.11801818383E+01  0.00000000000E+00 0. -1.
         11    1    3    3    0    0  0.10495474472E+01  0.21857413986E+02  0.32919675883E+02  0.39529143129E+02  0.51100000000E-03 0. -1.
        -11    1    3    3    0    0 -0.68000794543E+01  0.55724413979E+01 -0.30932322386E+01  0.93199393593E+01  0.51100000000E-03 0.  1.
        -12    1    3    3    0    0  0.57725876669E+01 -0.28428640709E+02 -0.29198135921E+02  0.41158735673E+02  0.00000000000E+00 0.  1.
</event>
<event>
 7    1  0.2090370E-015  0.9000765E+02  0.7816164E-02  0.1186339E+00
        -11   -1    0    0    0    0  0.00000000000E+00  0.00000000000E+00  0.45593999997E+02  0.45594000000E+02  0.51100000000E-03 0.  1.
         11   -1    0    0    0    0 -0.00000000000E+00 -0.00000000000E+00 -0.45593999997E+02  0.45594000000E+02  0.51100000000E-03 0. -1.
    9900012    2    1    2    0    0 -0.83167236671E+00 -0.39204706287E-02  0.83756799937E+00  0.90007654945E+02  0.89999915190E+02 0.  0.
         12    1    1    2    0    0  0.83167236671E+00  0.39204706287E-02 -0.83756799937E+00  0.11803450551E+01  0.00000000000E+00 0. -1.
         11    1    3    3    0    0  0.11244794141E+02  0.29736005098E+02 -0.22762880624E+02  0.39100180678E+02  0.51100000000E-03 0. -1.
        -11    1    3    3    0    0  0.20409600118E+01  0.61429799152E+01  0.44378847870E+01  0.78483464278E+01  0.51100000000E-03 0.  1.
        -12    1    3    3    0    0 -0.14117426519E+02 -0.35882905484E+02  0.19162563837E+02  0.43059127839E+02  0.00000000000E+00 0.  1.
</event>
<event>
 7    1  0.2090370E-015  0.9000783E+02  0.7816164E-02  0.1186339E+00
        -11   -1    0    0    0    0  0.00000000000E+00  0.00000000000E+00  0.45593999997E+02  0.45594000000E+02  0.51100000000E-03 0.  1.
         11   -1    0    0    0    0 -0.00000000000E+00 -0.00000000000E+00 -0.45593999997E+02  0.45594000000E+02  0.51100000000E-03 0. -1.
    9900012    2    1    2    0    0 -0.47468958727E+00 -0.50690985800E+00  0.95420583904E+00  0.90007831965E+02  0.90000094547E+02 0.  0.
         12    1    1    2    0    0  0.47468958727E+00  0.50690985800E+00 -0.95420583904E+00  0.11801680353E+01  0.00000000000E+00 0. -1.
         11    1    3    3    0    0 -0.33554479712E+02 -0.24410127511E+02 -0.30109196263E+01  0.41603161792E+02  0.51100000000E-03 0. -1.
        -11    1    3    3    0    0  0.79891351464E+01 -0.47820463216E+01  0.43857302989E+01  0.10292175568E+02  0.51100000000E-03 0.  1.
        -12    1    3    3    0    0  0.25090654978E+02  0.28685263975E+02 -0.42060483363E+00  0.38112494604E+02  0.00000000000E+00 0.  1.
</event>
<event>
 7    1  0.2396972E-015  0.9000706E+02  0.7816164E-02  0.1186340E+00
        -11   -1    0    0    0    0  0.00000000000E+00  0.00000000000E+00  0.45593999997E+02  0.45594000000E+02  0.51100000000E-03 0.  1.
         11   -1    0    0    0    0 -0.00000000000E+00 -0.00000000000E+00 -0.45593999997E+02  0.45594000000E+02  0.51100000000E-03 0. -1.
    9900012    2    1    2    0    0  0.46053538991E+00  0.10643431107E+01 -0.22295041354E+00  0.90007057161E+02  0.89999309513E+02 0.  0.
         12    1    1    2    0    0 -0.46053538991E+00 -0.10643431107E+01  0.22295041354E+00  0.11809428393E+01  0.00000000000E+00 0. -1.
         11    1    3    3    0    0 -0.78930606365E+01 -0.15704477744E+02  0.36162763118E+02  0.40207915440E+02  0.51100000000E-03 0. -1.
        -11    1    3    3    0    0  0.47988963508E+00 -0.77572640848E+01 -0.52022436496E+01  0.93524745065E+01  0.51100000000E-03 0.  1.
        -12    1    3    3    0    0  0.78737063913E+01  0.24526084940E+02 -0.31183469882E+02  0.40446667214E+02  0.00000000000E+00 0.  1.
</event>
<event>
 7    1  0.2090370E-015  0.9000778E+02  0.7816164E-02  0.1186339E+00
        -11   -1    0    0    0    0  0.00000000000E+00  0.00000000000E+00  0.45593999997E+02  0.45594000000E+02  0.51100000000E-03 0.  1.
         11   -1    0    0    0    0 -0.00000000000E+00 -0.00000000000E+00 -0.45593999997E+02  0.45594000000E+02  0.51100000000E-03 0. -1.
    9900012    2    1    2    0    0 -0.92447603444E+00  0.44807172994E+00 -0.58094731638E+00  0.90007777988E+02  0.90000039857E+02 0.  0.
         12    1    1    2    0    0  0.92447603444E+00 -0.44807172994E+00  0.58094731638E+00  0.11802220121E+01  0.00000000000E+00 0. -1.
         11    1    3    3    0    0  0.18090624634E+02 -0.30006491845E+02 -0.13864821333E+02  0.37681474538E+02  0.51100000000E-03 0. -1.
        -11    1    3    3    0    0 -0.26969373456E+00  0.21147417795E+01 -0.10587929757E+02  0.10800422413E+02  0.51100000000E-03 0.  1.
        -12    1    3    3    0    0 -0.18745406934E+02  0.28339821795E+02  0.23871803773E+02  0.41525881037E+02  0.00000000000E+00 0.  1.
</event>
<event>
 7    1  0.2090370E-015  0.9000770E+02  0.7816164E-02  0.1186339E+00
        -11   -1    0    0    0    0  0.00000000000E+00  0.00000000000E+00  0.45593999997E+02  0.45594000000E+02  0.51100000000E-03 0. -1.
         11   -1    0    0    0    0 -0.00000000000E+00 -0.00000000000E+00 -0.45593999997E+02  0.45594000000E+02  0.51100000000E-03 0.  1.
    9900012    2    1    2    0    0  0.98825047245E+00 -0.58098976900E+00 -0.28092682247E+00  0.90007700043E+02  0.89999960884E+02 0.  0.
         12    1    1    2    0    0 -0.98825047245E+00  0.58098976900E+00  0.28092682247E+00  0.11802999566E+01  0.00000000000E+00 0. -1.
         11    1    3    3    0    0 -0.83893583388E+01  0.11586299829E+02  0.60900204469E+01  0.15547090608E+02  0.51100000000E-03 0. -1.
        -11    1    3    3    0    0  0.21108423672E+02  0.19417048686E+02 -0.23115815767E+02  0.36836507278E+02  0.51100000000E-03 0.  1.
         12    1    3    3    0    0 -0.11730814861E+02 -0.31584338284E+02  0.16744868498E+02  0.37624102158E+02  0.00000000000E+00 0. -1.
</event>
<event>
 7    1  0.2090370E-015  0.9000804E+02  0.7816164E-02  0.1186338E+00
        -11   -1    0    0    0    0  0.00000000000E+00  0.00000000000E+00  0.45593999997E+02  0.45594000000E+02  0.51100000000E-03 0. -1.
         11   -1    0    0    0    0 -0.00000000000E+00 -0.00000000000E+00 -0.45593999997E+02  0.45594000000E+02  0.51100000000E-03 0.  1.
    9900012    2    1    2    0    0 -0.48294339361E+00 -0.10720316020E+01  0.99084928219E-01  0.90008040721E+02  0.90000306058E+02 0.  0.
         12    1    1    2    0    0  0.48294339361E+00  0.10720316020E+01 -0.99084928219E-01  0.11799592790E+01  0.00000000000E+00 0. -1.
         11    1    3    3    0    0 -0.80617225257E+01  0.19407890752E+01  0.62652071805E+01  0.10392827026E+02  0.51100000000E-03 0. -1.
        -11    1    3    3    0    0 -0.29154005594E+02 -0.22080968533E+02  0.45744149051E+01  0.36857163286E+02  0.51100000000E-03 0.  1.
         12    1    3    3    0    0  0.36732784726E+02  0.19068147855E+02 -0.10740537157E+02  0.42758050409E+02  0.00000000000E+00 0. -1.
</event>
<event>
 7    1  0.2090370E-015  0.9000774E+02  0.7816164E-02  0.1186339E+00
        -11   -1    0    0    0    0  0.00000000000E+00  0.00000000000E+00  0.45593999997E+02  0.45594000000E+02  0.51100000000E-03 0. -1.
         11   -1    0    0    0    0 -0.00000000000E+00 -0.00000000000E+00 -0.45593999997E+02  0.45594000000E+02  0.51100000000E-03 0.  1.
    9900012    2    1    2    0    0  0.56485751515E+00  0.81133959780E+00 -0.64472362800E+00  0.90007743879E+02  0.90000005298E+02 0.  0.
         12    1    1    2    0    0 -0.56485751515E+00 -0.81133959780E+00  0.64472362800E+00  0.11802561213E+01  0.00000000000E+00 0. -1.
         11    1    3    3    0    0  0.21463699358E+02  0.57065272131E+01  0.16591972291E+01  0.22271232087E+02  0.51100000000E-03 0. -1.
        -11    1    3    3    0    0  0.16251019267E+02 -0.21300337011E+02 -0.40080004673E+01  0.27089925286E+02  0.51100000000E-03 0.  1.
        -12    1    3    3    0    0 -0.37149861110E+02  0.16405149396E+02  0.17040796102E+01  0.40646586505E+02  0.00000000000E+00 0.  1.
</event>
<event>
 7    1  0.2090370E-015  0.9000772E+02  0.7816164E-02  0.1186339E+00
        -11   -1    0    0    0    0  0.00000000000E+00  0.00000000000E+00  0.45593999997E+02  0.45594000000E+02  0.51100000000E-03 0. -1.
         11   -1    0    0    0    0 -0.00000000000E+00 -0.00000000000E+00 -0.45593999997E+02  0.45594000000E+02  0.51100000000E-03 0.  1.
    9900012    2    1    2    0    0  0.84887412758E+00 -0.26723663903E+00 -0.77527671222E+00  0.90007721776E+02  0.89999982903E+02 0.  0.
         12    1    1    2    0    0 -0.84887412758E+00  0.26723663903E+00  0.77527671222E+00  0.11802782241E+01  0.00000000000E+00 0. -1.
         11    1    3    3    0    0  0.75659334893E+01  0.22495709071E+02  0.25737845473E+02  0.35010526503E+02  0.51100000000E-03 0. -1.
        -11    1    3    3    0    0  0.61775196200E+01 -0.55905360489E+00  0.91488879413E+01  0.11053345214E+02  0.51100000000E-03 0.  1.
        -12    1    3    3    0    0 -0.12894578982E+02 -0.22203892105E+02 -0.35662010127E+02  0.43943850059E+02  0.00000000000E+00 0.  1.
</event>
<event>
 7    1  0.2263020E-015  0.9000765E+02  0.7816164E-02  0.1186339E+00
        -11   -1    0    0    0    0  0.00000000000E+00  0.00000000000E+00  0.45593999997E+02  0.45594000000E+02  0.51100000000E-03 0. -1.
         11   -1    0    0    0    0 -0.00000000000E+00 -0.00000000000E+00 -0.45593999997E+02  0.45594000000E+02  0.51100000000E-03 0.  1.
    9900012    2    1    2    0    0  0.21246478413E+00  0.11667775877E-01 -0.11610151230E+01  0.90007646859E+02  0.89999906998E+02 0.  0.
         12    1    1    2    0    0 -0.21246478413E+00 -0.11667775877E-01  0.11610151230E+01  0.11803531409E+01  0.00000000000E+00 0. -1.
         11    1    3    3    0    0 -0.31747598009E+02 -0.21544761332E+02  0.71349018126E+01  0.39025549891E+02  0.51100000000E-03 0. -1.
        -11    1    3    3    0    0 -0.63736150891E+01  0.57140004010E+01 -0.34210585217E+01  0.92182651056E+01  0.51100000000E-03 0.  1.
        -12    1    3    3    0    0  0.38333677882E+02  0.15842428707E+02 -0.48748584138E+01  0.41763831862E+02  0.00000000000E+00 0.  1.
</event>
<event>
 7    1  0.2090370E-015  0.9000774E+02  0.7816164E-02  0.1186339E+00
        -11   -1    0    0    0    0  0.00000000000E+00  0.00000000000E+00  0.45593999997E+02  0.45594000000E+02  0.51100000000E-03 0.  1.
         11   -1    0    0    0    0 -0.00000000000E+00 -0.00000000000E+00 -0.45593999997E+02  0.45594000000E+02  0.51100000000E-03 0. -1.
    9900012    2    1    2    0    0  0.45412788065E+00 -0.47275805206E+00  0.98146464595E+00  0.90007743605E+02  0.90000005020E+02 0.  0.
         12    1    1    2    0    0 -0.45412788065E+00  0.47275805206E+00 -0.98146464595E+00  0.11802563955E+01  0.00000000000E+00 0. -1.
         11    1    3    3    0    0  0.33760111543E+02 -0.43521528316E+01 -0.54089383604E+01  0.34466548712E+02  0.51100000000E-03 0. -1.
        -11    1    3    3    0    0  0.90851885628E+01 -0.63090426675E+01  0.43797609447E+01  0.11896511119E+02  0.51100000000E-03 0.  1.
        -12    1    3    3    0    0 -0.42391172225E+02  0.10188437447E+02  0.20106420616E+01  0.43644683774E+02  0.00000000000E+00 0.  1.
</event>
<event>
 7    1  0.2090370E-015  0.9000776E+02  0.7816164E-02  0.1186339E+00
        -11   -1    0    0    0    0  0.00000000000E+00  0.00000000000E+00  0.45593999997E+02  0.45594000000E+02  0.51100000000E-03 0.  1.
         11   -1    0    0    0    0 -0.00000000000E+00 -0.00000000000E+00 -0.45593999997E+02  0.45594000000E+02  0.51100000000E-03 0. -1.
    9900012    2    1    2    0    0 -0.54538569863E+00 -0.47097556126E+00  0.93472478658E+00  0.90007756819E+02  0.90000018409E+02 0.  0.
         12    1    1    2    0    0  0.54538569863E+00  0.47097556126E+00 -0.93472478658E+00  0.11802431810E+01  0.00000000000E+00 0. -1.
         11    1    3    3    0    0 -0.28089522859E+01 -0.14360782599E+02 -0.30388937207E+02  0.33728471573E+02  0.51100000000E-03 0. -1.
        -11    1    3    3    0    0  0.24068446478E+01 -0.93250321521E+01 -0.66977554105E+01  0.11730688539E+02  0.51100000000E-03 0.  1.
        -12    1    3    3    0    0 -0.14327806051E+00  0.23214839190E+02  0.38021417404E+02  0.44548596708E+02  0.00000000000E+00 0.  1.
</event>
<event>
 7    1  0.2090370E-015  0.9000773E+02  0.7816164E-02  0.1186339E+00
        -11   -1    0    0    0    0  0.00000000000E+00  0.00000000000E+00  0.45593999997E+02  0.45594000000E+02  0.51100000000E-03 0. -1.
         11   -1    0    0    0    0 -0.00000000000E+00 -0.00000000000E+00 -0.45593999997E+02  0.45594000000E+02  0.51100000000E-03 0.  1.
    9900012    2    1    2    0    0  0.27018316733E+00 -0.11296383214E+01  0.20963476703E+00  0.90007733752E+02  0.89999995037E+02 0.  0.
         12    1    1    2    0    0 -0.27018316733E+00  0.11296383214E+01 -0.20963476703E+00  0.11802662482E+01  0.00000000000E+00 0. -1.
         11    1    3    3    0    0  0.63935097153E+01  0.13547833762E+02  0.38502079210E+02  0.41313809675E+02  0.51100000000E-03 0. -1.
        -11    1    3    3    0    0 -0.40420673365E+01  0.62685097352E+01 -0.40183274633E+01  0.84722770562E+01  0.51100000000E-03 0.  1.
        -12    1    3    3    0    0 -0.20812592114E+01 -0.20945981819E+02 -0.34274116980E+02  0.40221647020E+02  0.00000000000E+00 0.  1.
</event>
<event>
 7    1  0.2090370E-015  0.9000774E+02  0.7816164E-02  0.1186339E+00
        -11   -1    0    0    0    0  0.00000000000E+00  0.00000000000E+00  0.45593999997E+02  0.45594000000E+02  0.51100000000E-03 0. -1.
         11   -1    0    0    0    0 -0.00000000000E+00 -0.00000000000E+00 -0.45593999997E+02  0.45594000000E+02  0.51100000000E-03 0.  1.
    9900012    2    1    2    0    0 -0.14131942943E-01  0.10089808311E+01 -0.61218905460E+00  0.90007738390E+02  0.89999999737E+02 0.  0.
         12    1    1    2    0    0  0.14131942943E-01 -0.10089808311E+01  0.61218905460E+00  0.11802616099E+01  0.00000000000E+00 0. -1.
         11    1    3    3    0    0 -0.53310951340E+01  0.57867659321E+01 -0.62634305659E+01  0.10056728991E+02  0.51100000000E-03 0. -1.
        -11    1    3    3    0    0 -0.10597016682E+02 -0.17823018528E+02 -0.31365124897E+02  0.37599571966E+02  0.51100000000E-03 0.  1.
         12    1    3    3    0    0  0.15913979874E+02  0.13045233427E+02  0.37016366408E+02  0.42351437433E+02  0.00000000000E+00 0. -1.
</event>
<event>
 7    1  0.2090370E-015  0.9000780E+02  0.7816164E-02  0.1186339E+00
        -11   -1    0    0    0    0  0.00000000000E+00  0.00000000000E+00  0.45593999997E+02  0.45594000000E+02  0.51100000000E-03 0. -1.
         11   -1    0    0    0    0 -0.00000000000E+00 -0.00000000000E+00 -0.45593999997E+02  0.45594000000E+02  0.51100000000E-03 0.  1.
    9900012    2    1    2    0    0  0.83411210413E+00 -0.57628366620E+00 -0.60416639444E+00  0.90007803873E+02  0.90000066084E+02 0.  0.
         12    1    1    2    0    0 -0.83411210413E+00  0.57628366620E+00  0.60416639444E+00  0.11801961271E+01  0.00000000000E+00 0. -1.
         11    1    3    3    0    0 -0.20815278749E+02 -0.15598626980E+02  0.21496895365E+02  0.33744770019E+02  0.51100000000E-03 0. -1.
        -11    1    3    3    0    0 -0.10191786082E+02 -0.58009616553E+01  0.97269153289E+00  0.11767318673E+02  0.51100000000E-03 0.  1.
        -12    1    3    3    0    0  0.31841176935E+02  0.20823304969E+02 -0.23073753292E+02  0.44495715181E+02  0.00000000000E+00 0.  1.
</event>
<event>
 7    1  0.2090370E-015  0.9000759E+02  0.7816164E-02  0.1186339E+00
        -11   -1    0    0    0    0  0.00000000000E+00  0.00000000000E+00  0.45593999997E+02  0.45594000000E+02  0.51100000000E-03 0. -1.
         11   -1    0    0    0    0 -0.00000000000E+00 -0.00000000000E+00 -0.45593999997E+02  0.45594000000E+02  0.51100000000E-03 0.  1.
    9900012    2    1    2    0    0 -0.76533870237E+00  0.74316807153E-01 -0.89559921961E+00  0.90007591478E+02  0.89999850885E+02 0.  0.
         12    1    1    2    0    0  0.76533870237E+00 -0.74316807153E-01  0.89559921961E+00  0.11804085222E+01  0.00000000000E+00 0. -1.
         11    1    3    3    0    0  0.73462303463E+00  0.95525108668E+01  0.36786198818E+01  0.10262669212E+02  0.51100000000E-03 0. -1.
        -11    1    3    3    0    0  0.16952149489E+02 -0.17805278515E+02 -0.35259076332E+02  0.42983785075E+02  0.51100000000E-03 0.  1.
         12    1    3    3    0    0 -0.18452111226E+02  0.83270844557E+01  0.30684857231E+02  0.36761137190E+02  0.00000000000E+00 0. -1.
</event>
<event>
 7    1  0.2090370E-015  0.9000756E+02  0.7816164E-02  0.1186339E+00
        -11   -1    0    0    0    0  0.00000000000E+00  0.00000000000E+00  0.45593999997E+02  0.45594000000E+02  0.51100000000E-03 0.  1.
         11   -1    0    0    0    0 -0.00000000000E+00 -0.00000000000E+00 -0.45593999997E+02  0.45594000000E+02  0.51100000000E-03 0. -1.
    9900012    2    1    2    0    0 -0.11567276399E+01  0.19728949282E+00 -0.12841263306E+00  0.90007562886E+02  0.89999821915E+02 0.  0.
         12    1    1    2    0    0  0.11567276399E+01 -0.19728949282E+00  0.12841263306E+00  0.11804371144E+01  0.00000000000E+00 0. -1.
         11    1    3    3    0    0  0.83172870726E+01  0.19652809213E+01 -0.53958861430E+00  0.85633375200E+01  0.51100000000E-03 0. -1.
        -11    1    3    3    0    0  0.75060739601E+01  0.35927378629E+02  0.11813473806E+02  0.38557435665E+02  0.51100000000E-03 0.  1.
         12    1    3    3    0    0 -0.16980088673E+02 -0.37695370057E+02 -0.11402297825E+02  0.42886789700E+02  0.00000000000E+00 0. -1.
</event>
<event>
 7    1  0.2090370E-015  0.9000768E+02  0.7816164E-02  0.1186339E+00
        -11   -1    0    0    0    0  0.00000000000E+00  0.00000000000E+00  0.45593999997E+02  0.45594000000E+02  0.51100000000E-03 0.  1.
         11   -1    0    0    0    0 -0.00000000000E+00 -0.00000000000E+00 -0.45593999997E+02  0.45594000000E+02  0.51100000000E-03 0. -1.
    9900012    2    1    2    0    0  0.11766051897E+01  0.77805889584E-01 -0.51867096165E-01  0.90007684905E+02  0.89999945545E+02 0.  0.
         12    1    1    2    0    0 -0.11766051897E+01 -0.77805889584E-01  0.51867096165E-01  0.11803150954E+01  0.00000000000E+00 0. -1.
         11    1    3    3    0    0  0.34159879548E+01 -0.85210204731E+00 -0.12202887654E+02  0.12700610968E+02  0.51100000000E-03 0. -1.
        -11    1    3    3    0    0 -0.34035860223E+02 -0.99116713589E+01 -0.10283038438E+02  0.36910999581E+02  0.51100000000E-03 0.  1.
         12    1    3    3    0    0  0.31796477458E+02  0.10841579296E+02  0.22434058995E+02  0.40396074356E+02  0.00000000000E+00 0. -1.
</event>
<event>
 7    1  0.2090370E-015  0.9000775E+02  0.7816164E-02  0.1186339E+00
        -11   -1    0    0    0    0  0.00000000000E+00  0.00000000000E+00  0.45593999997E+02  0.45594000000E+02  0.51100000000E-03 0.  1.
         11   -1    0    0    0    0 -0.00000000000E+00 -0.00000000000E+00 -0.45593999997E+02  0.45594000000E+02  0.51100000000E-03 0. -1.
    9900012    2    1    2    0    0  0.96053555060E-01  0.11191680675E+01 -0.36225729032E+00  0.90007748420E+02  0.90000009899E+02 0.  0.
         12    1    1    2    0    0 -0.96053555060E-01 -0.11191680675E+01  0.36225729032E+00  0.11802515804E+01  0.00000000000E+00 0. -1.
         11    1    3    3    0    0  0.27107034180E+02 -0.22243601517E+02 -0.13825707921E+02  0.37692430411E+02  0.51100000000E-03 0. -1.
        -11    1    3    3    0    0 -0.59456991957E+01 -0.92581612908E+01  0.67486223314E+01  0.12907702857E+02  0.51100000000E-03 0.  1.
        -12    1    3    3    0    0 -0.21065281429E+02  0.32620930876E+02  0.67148282989E+01  0.39407615152E+02  0.00000000000E+00 0.  1.
</event>
<event>
 7    1  0.2090370E-015  0.9000768E+02  0.7816164E-02  0.1186339E+00
        -11   -1    0    0    0    0  0.00000000000E+00  0.00000000000E+00  0.45593999997E+02  0.45594000000E+02  0.51100000000E-03 0.  1.
         11   -1    0    0    0    0 -0.00000000000E+00 -0.00000000000E+00 -0.45593999997E+02  0.45594000000E+02  0.51100000000E-03 0. -1.
    9900012    2    1    2    0    0 -0.75018681928E+00 -0.23522955072E+00  0.88036567347E+00  0.90007679313E+02  0.89999939880E+02 0.  0.
         12    1    1    2    0    0  0.75018681928E+00  0.23522955072E+00 -0.88036567347E+00  0.11803206871E+01  0.00000000000E+00 0. -1.
         11    1    3    3    0    0  0.55640432003E+01  0.10923957283E+01  0.26015849466E+01  0.62386015787E+01  0.51100000000E-03 0. -1.
        -11    1    3    3    0    0 -0.43049666639E+02  0.72882972289E+01  0.89218360418E+01  0.44564472766E+02  0.51100000000E-03 0.  1.
         12    1    3    3    0    0  0.36735436620E+02 -0.86159225079E+01 -0.10643055315E+02  0.39204604969E+02  0.00000000000E+00 0. -1.
</event>
<event>
 7    1  0.2090370E-015  0.9000770E+02  0.7816164E-02  0.1186339E+00
        -11   -1    0    0    0    0  0.00000000000E+00  0.00000000000E+00  0.45593999997E+02  0.45594000000E+02  0.51100000000E-03 0.  1.
         11   -1    0    0    0    0 -0.00000000000E+00 -0.00000000000E+00 -0.45593999997E+02  0.45594000000E+02  0.51100000000E-03 0. -1.
    9900012    2    1    2    0    0  0.69847567916E-01  0.41367670463E+00  0.11032204781E+01  0.90007702359E+02  0.89999963230E+02 0.  0.
         12    1    1    2    0    0 -0.69847567916E-01 -0.41367670463E+00 -0.11032204781E+01  0.11802976413E+01  0.00000000000E+00 0. -1.
         11    1    3    3    0    0  0.29738139907E+02  0.16188660506E+02 -0.17106336862E+02  0.37934897591E+02  0.51100000000E-03 0. -1.
        -11    1    3    3    0    0  0.30700002503E+00  0.90307348417E+01 -0.17996844212E+00  0.90377436176E+01  0.51100000000E-03 0.  1.
        -12    1    3    3    0    0 -0.29975292364E+02 -0.24805718643E+02  0.18389525782E+02  0.43035061150E+02  0.00000000000E+00 0.  1.
</event>
<event>
 7    1  0.2090370E-015  0.9000769E+02  0.7816164E-02  0.1186339E+00
        -11   -1    0    0    0    0  0.00000000000E+00  0.00000000000E+00  0.45593999997E+02  0.45594000000E+02  0.51100000000E-03 0.  1.
         11   -1    0    0    0    0 -0.00000000000E+00 -0.00000000000E+00 -0.45593999997E+02  0.45594000000E+02  0.51100000000E-03 0. -1.
    9900012    2    1    2    0    0  0.36877011727E-01 -0.91037428911E+00  0.75033026761E+00  0.90007687850E+02  0.89999948530E+02 0.  0.
         12    1    1    2    0    0 -0.36877011727E-01  0.91037428911E+00 -0.75033026761E+00  0.11803121497E+01  0.00000000000E+00 0. -1.
         11    1    3    3    0    0 -0.93336500218E+01 -0.35092694781E+02 -0.22638451638E+02  0.42791514843E+02  0.51100000000E-03 0. -1.
        -11    1    3    3    0    0  0.49750181975E+01  0.60327787086E+01 -0.30065774566E+01  0.83776329161E+01  0.51100000000E-03 0.  1.
        -12    1    3    3    0    0  0.43955088360E+01  0.28149541783E+02  0.26395359363E+02  0.38838540091E+02  0.00000000000E+00 0.  1.
</event>
<event>
 7    1  0.2090370E-015  0.9000764E+02  0.7816164E-02  0.1186339E+00
        -11   -1    0    0    0    0  0.00000000000E+00  0.00000000000E+00  0.45593999997E+02  0.45594000000E+02  0.51100000000E-03 0.  1.
         11   -1    0    0    0    0 -0.00000000000E+00 -0.00000000000E+00 -0.45593999997E+02  0.45594000000E+02  0.51100000000E-03 0. -1.
    9900012    2    1    2    0    0  0.60975784248E+00 -0.80046251625E+00  0.61702240010E+00  0.90007635010E+02  0.89999894993E+02 0.  0.
         12    1    1    2    0    0 -0.60975784248E+00  0.80046251625E+00 -0.61702240010E+00  0.11803649896E+01  0.00000000000E+00 0. -1.
         11    1    3    3    0    0 -0.33535958090E+02 -0.11230254237E+02 -0.32003269058E+00  0.35367803387E+02  0.51100000000E-03 0. -1.
        -11    1    3    3    0    0 -0.95388984790E+01  0.24085633489E+00  0.20890166854E+01  0.97679366777E+01  0.51100000000E-03 0.  1.
        -12    1    3    3    0    0  0.43684614411E+02  0.10188935386E+02 -0.11519615948E+01  0.44871894946E+02  0.00000000000E+00 0.  1.
</event>
<event>
 7    1  0.2090370E-015  0.9000774E+02  0.7816164E-02  0.1186339E+00
        -11   -1    0    0    0    0  0.00000000000E+00  0.00000000000E+00  0.45593999997E+02  0.45594000000E+02  0.51100000000E-03 0.  1.
         11   -1    0    0    0    0 -0.00000000000E+00 -0.00000000000E+00 -0.45593999997E+02  0.45594000000E+02  0.51100000000E-03 0. -1.
    9900012    2    1    2    0    0 -0.99312575983E+00 -0.54153736164E+00  0.33682524845E+00  0.90007740394E+02  0.90000001767E+02 0.  0.
         12    1    1    2    0    0  0.99312575983E+00  0.54153736164E+00 -0.33682524845E+00  0.11802596057E+01  0.00000000000E+00 0. -1.
         11    1    3    3    0    0 -0.74945351069E+01  0.77031318715E+01  0.21026466597E+01  0.10951137856E+02  0.51100000000E-03 0. -1.
        -11    1    3    3    0    0 -0.44834918117E+01  0.33850210839E+02 -0.80997629331E+01  0.35093370208E+02  0.51100000000E-03 0.  1.
         12    1    3    3    0    0  0.10984901159E+02 -0.42094880072E+02  0.63339415218E+01  0.43963232331E+02  0.00000000000E+00 0. -1.
</event>
<event>
 7    1  0.2090370E-015  0.9000773E+02  0.7816164E-02  0.1186339E+00
        -11   -1    0    0    0    0  0.00000000000E+00  0.00000000000E+00  0.45593999997E+02  0.45594000000E+02  0.51100000000E-03 0. -1.
         11   -1    0    0    0    0 -0.00000000000E+00 -0.00000000000E+00 -0.45593999997E+02  0.45594000000E+02  0.51100000000E-03 0.  1.
    9900012    2    1    2    0    0 -0.11678417443E+01  0.14419243351E+00  0.91594312421E-01  0.90007730829E+02  0.89999992076E+02 0.  0.
         12    1    1    2    0    0  0.11678417443E+01 -0.14419243351E+00 -0.91594312421E-01  0.11802691708E+01  0.00000000000E+00 0. -1.
         11    1    3    3    0    0  0.16872128086E+01  0.27786591577E+01  0.83439523572E+01  0.89548408683E+01  0.51100000000E-03 0. -1.
        -11    1    3    3    0    0 -0.38085520447E+01  0.21605380319E+02 -0.37259779856E+02  0.43238740992E+02  0.51100000000E-03 0.  1.
         12    1    3    3    0    0  0.95349749189E+00 -0.24239847043E+02  0.29007421811E+02  0.37814148969E+02  0.00000000000E+00 0. -1.
</event>
<event>
 7    1  0.2090370E-015  0.9000773E+02  0.7816164E-02  0.1186339E+00
        -11   -1    0    0    0    0  0.00000000000E+00  0.00000000000E+00  0.45593999997E+02  0.45594000000E+02  0.51100000000E-03 0. -1.
         11   -1    0    0    0    0 -0.00000000000E+00 -0.00000000000E+00 -0.45593999997E+02  0.45594000000E+02  0.51100000000E-03 0.  1.
    9900012    2    1    2    0    0  0.10382840467E+01  0.45123387549E+00  0.33373876946E+00  0.90007734209E+02  0.89999995500E+02 0.  0.
         12    1    1    2    0    0 -0.10382840467E+01 -0.45123387549E+00 -0.33373876946E+00  0.11802657914E+01  0.00000000000E+00 0. -1.
         11    1    3    3    0    0  0.53396769639E+00  0.93532449972E+01 -0.23816817355E+01  0.96664741053E+01  0.51100000000E-03 0. -1.
        -11    1    3    3    0    0 -0.34249459373E+02  0.45091199990E-02 -0.18228789047E+02  0.38798379322E+02  0.51100000000E-03 0.  1.
         12    1    3    3    0    0  0.34753775723E+02 -0.89065202417E+01  0.20944209552E+02  0.41542880781E+02  0.00000000000E+00 0. -1.
</event>
<event>
 7    1  0.2090370E-015  0.9000773E+02  0.7816164E-02  0.1186339E+00
        -11   -1    0    0    0    0  0.00000000000E+00  0.00000000000E+00  0.45593999997E+02  0.45594000000E+02  0.51100000000E-03 0.  1.
         11   -1    0    0    0    0 -0.00000000000E+00 -0.00000000000E+00 -0.45593999997E+02  0.45594000000E+02  0.51100000000E-03 0. -1.
    9900012    2    1    2    0    0 -0.69451402193E+00  0.93330256693E-01  0.94973060131E+00  0.90007725253E+02  0.89999986426E+02 0.  0.
         12    1    1    2    0    0  0.69451402193E+00 -0.93330256693E-01 -0.94973060131E+00  0.11802747471E+01  0.00000000000E+00 0. -1.
         11    1    3    3    0    0 -0.21714234515E+02 -0.19043127114E+02 -0.26556185599E+02  0.39234929141E+02  0.51100000000E-03 0. -1.
        -11    1    3    3    0    0  0.56207718383E+01 -0.88541256277E+01  0.45416528233E+01  0.11428701909E+02  0.51100000000E-03 0.  1.
        -12    1    3    3    0    0  0.15398948655E+02  0.27990582998E+02  0.22964263377E+02  0.39344094204E+02  0.00000000000E+00 0.  1.
</event>
<event>
 7    1  0.3598756E-015  0.9000776E+02  0.7816164E-02  0.1186339E+00
        -11   -1    0    0    0    0  0.00000000000E+00  0.00000000000E+00  0.45593999997E+02  0.45594000000E+02  0.51100000000E-03 0.  1.
         11   -1    0    0    0    0 -0.00000000000E+00 -0.00000000000E+00 -0.45593999997E+02  0.45594000000E+02  0.51100000000E-03 0. -1.
    9900012    2    1    2    0    0  0.81007130119E+00 -0.85672151133E+00  0.52764526032E-01  0.90007757925E+02  0.90000019529E+02 0.  0.
         12    1    1    2    0    0 -0.81007130119E+00  0.85672151133E+00 -0.52764526032E-01  0.11802420753E+01  0.00000000000E+00 0. -1.
         11    1    3    3    0    0 -0.23488220789E+02 -0.10149479766E+01 -0.27846179386E+02  0.36443604952E+02  0.51100000000E-03 0. -1.
        -11    1    3    3    0    0 -0.48522422047E+01 -0.68140559141E+01 -0.44407729940E+01  0.94708013102E+01  0.51100000000E-03 0.  1.
        -12    1    3    3    0    0  0.29150534295E+02  0.69722823793E+01  0.32339716906E+02  0.44093351662E+02  0.00000000000E+00 0.  1.
</event>
<event>
 7    1  0.2090370E-015  0.9000782E+02  0.7816164E-02  0.1186339E+00
        -11   -1    0    0    0    0  0.00000000000E+00  0.00000000000E+00  0.45593999997E+02  0.45594000000E+02  0.51100000000E-03 0. -1.
         11   -1    0    0    0    0 -0.00000000000E+00 -0.00000000000E+00 -0.45593999997E+02  0.45594000000E+02  0.51100000000E-03 0.  1.
    9900012    2    1    2    0    0 -0.11095238824E+01  0.33650662097E+00 -0.22031087538E+00  0.90007823389E+02  0.90000085858E+02 0.  0.
         12    1    1    2    0    0  0.11095238824E+01 -0.33650662097E+00  0.22031087538E+00  0.11801766111E+01  0.00000000000E+00 0. -1.
         11    1    3    3    0    0 -0.69939140513E+01 -0.49908613112E+01 -0.26768938321E+01  0.89994050489E+01  0.51100000000E-03 0. -1.
        -11    1    3    3    0    0 -0.15079951463E+02 -0.88618004974E+01 -0.33055051837E+02  0.37397498532E+02  0.51100000000E-03 0.  1.
         12    1    3    3    0    0  0.20964341632E+02  0.14189168430E+02  0.35511634794E+02  0.43610919808E+02  0.00000000000E+00 0. -1.
</event>
<event>
 7    1  0.2090370E-015  0.9000742E+02  0.7816164E-02  0.1186340E+00
        -11   -1    0    0    0    0  0.00000000000E+00  0.00000000000E+00  0.45593999997E+02  0.45594000000E+02  0.51100000000E-03 0. -1.
         11   -1    0    0    0    0 -0.00000000000E+00 -0.00000000000E+00 -0.45593999997E+02  0.45594000000E+02  0.51100000000E-03 0.  1.
    9900012    2    1    2    0    0 -0.17722346178E+00  0.11638010338E+01  0.88987687594E-01  0.90007423950E+02  0.89999681145E+02 0.  0.
         12    1    1    2    0    0  0.17722346178E+00 -0.11638010338E+01 -0.88987687594E-01  0.11805760502E+01  0.00000000000E+00 0. -1.
         11    1    3    3    0    0 -0.17283687026E+00 -0.84957091143E+01  0.45898286608E+01  0.96578192847E+01  0.51100000000E-03 0. -1.
        -11    1    3    3    0    0 -0.16847142482E+02 -0.22987095350E+02 -0.25322051097E+02  0.38123995521E+02  0.51100000000E-03 0.  1.
         12    1    3    3    0    0  0.16842755890E+02  0.32646605499E+02  0.20821210124E+02  0.42225609144E+02  0.00000000000E+00 0. -1.
</event>
<event>
 7    1  0.2090370E-015  0.9000777E+02  0.7816164E-02  0.1186339E+00
        -11   -1    0    0    0    0  0.00000000000E+00  0.00000000000E+00  0.45593999997E+02  0.45594000000E+02  0.51100000000E-03 0.  1.
         11   -1    0    0    0    0 -0.00000000000E+00 -0.00000000000E+00 -0.45593999997E+02  0.45594000000E+02  0.51100000000E-03 0. -1.
    9900012    2    1    2    0    0 -0.88445341177E+00  0.76127933051E+00  0.17646846187E+00  0.90007769016E+02  0.90000030767E+02 0.  0.
         12    1    1    2    0    0  0.88445341177E+00 -0.76127933051E+00 -0.17646846187E+00  0.11802309836E+01  0.00000000000E+00 0. -1.
         11    1    3    3    0    0  0.10808729223E+02  0.18271772869E+01  0.10703405299E+02  0.15320903678E+02  0.51100000000E-03 0. -1.
        -11    1    3    3    0    0 -0.12053278606E+02 -0.20925471853E+02  0.24512223974E+02  0.34409388570E+02  0.51100000000E-03 0.  1.
         12    1    3    3    0    0  0.36009597090E+00  0.19859573896E+02 -0.35039160811E+02  0.40277476768E+02  0.00000000000E+00 0. -1.
</event>
<event>
 7    1  0.2090370E-015  0.9000756E+02  0.7816164E-02  0.1186339E+00
        -11   -1    0    0    0    0  0.00000000000E+00  0.00000000000E+00  0.45593999997E+02  0.45594000000E+02  0.51100000000E-03 0.  1.
         11   -1    0    0    0    0 -0.00000000000E+00 -0.00000000000E+00 -0.45593999997E+02  0.45594000000E+02  0.51100000000E-03 0. -1.
    9900012    2    1    2    0    0  0.11368581642E+01  0.13498970251E+00 -0.28770456457E+00  0.90007558294E+02  0.89999817263E+02 0.  0.
         12    1    1    2    0    0 -0.11368581642E+01 -0.13498970251E+00  0.28770456457E+00  0.11804417062E+01  0.00000000000E+00 0. -1.
         11    1    3    3    0    0 -0.67778015582E+01  0.95004103873E+00  0.27436978254E+01  0.73735371400E+01  0.51100000000E-03 0. -1.
        -11    1    3    3    0    0 -0.14791837458E+02 -0.33918566080E+02 -0.16189134278E+02  0.40390043937E+02  0.51100000000E-03 0.  1.
         12    1    3    3    0    0  0.22706497181E+02  0.33103514744E+02  0.13157731888E+02  0.42243977216E+02  0.00000000000E+00 0. -1.
</event>
<event>
 7    1  0.2090370E-015  0.9000789E+02  0.7816164E-02  0.1186339E+00
        -11   -1    0    0    0    0  0.00000000000E+00  0.00000000000E+00  0.45593999997E+02  0.45594000000E+02  0.51100000000E-03 0. -1.
         11   -1    0    0    0    0 -0.00000000000E+00 -0.00000000000E+00 -0.45593999997E+02  0.45594000000E+02  0.51100000000E-03 0.  1.
    9900012    2    1    2    0    0 -0.11167508413E+01 -0.17163956508E+00  0.34069759049E+00  0.90007886688E+02  0.90000149992E+02 0.  0.
         12    1    1    2    0    0  0.11167508413E+01  0.17163956508E+00 -0.34069759049E+00  0.11801133124E+01  0.00000000000E+00 0. -1.
         11    1    3    3    0    0  0.31348928860E-01  0.20999036180E+01 -0.71988849082E+01  0.74989680719E+01  0.51100000000E-03 0. -1.
        -11    1    3    3    0    0  0.21921642927E+02  0.29314962625E+02 -0.12344829644E+02  0.38630561496E+02  0.51100000000E-03 0.  1.
         12    1    3    3    0    0 -0.23069742697E+02 -0.31586505808E+02  0.19884412143E+02  0.43878357120E+02  0.00000000000E+00 0. -1.
</event>
<event>
 7    1  0.2090370E-015  0.9000784E+02  0.7816164E-02  0.1186339E+00
        -11   -1    0    0    0    0  0.00000000000E+00  0.00000000000E+00  0.45593999997E+02  0.45594000000E+02  0.51100000000E-03 0. -1.
         11   -1    0    0    0    0 -0.00000000000E+00 -0.00000000000E+00 -0.45593999997E+02  0.45594000000E+02  0.51100000000E-03 0.  1.
    9900012    2    1    2    0    0  0.11599454883E+01  0.17469150159E+00 -0.12958760553E+00  0.90007837467E+02  0.90000100122E+02 0.  0.
         12    1    1    2    0    0 -0.11599454883E+01 -0.17469150159E+00  0.12958760553E+00  0.11801625329E+01  0.00000000000E+00 0. -1.
         11    1    3    3    0    0 -0.14809110798E+02 -0.35525409113E+02  0.10577920652E+02  0.39915621764E+02  0.51100000000E-03 0. -1.
        -11    1    3    3    0    0 -0.23908204164E+01 -0.31494632689E+00 -0.93378112220E+01  0.96441657043E+01  0.51100000000E-03 0.  1.
        -12    1    3    3    0    0  0.18359876703E+02  0.36015046941E+02 -0.13696970358E+01  0.40448049998E+02  0.00000000000E+00 0.  1.
</event>
<event>
 7    1  0.2090370E-015  0.9000773E+02  0.7816164E-02  0.1186339E+00
        -11   -1    0    0    0    0  0.00000000000E+00  0.00000000000E+00  0.45593999997E+02  0.45594000000E+02  0.51100000000E-03 0.  1.
         11   -1    0    0    0    0 -0.00000000000E+00 -0.00000000000E+00 -0.45593999997E+02  0.45594000000E+02  0.51100000000E-03 0. -1.
    9900012    2    1    2    0    0 -0.62262389112E-01 -0.64335495460E+00 -0.98754874988E+00  0.90007731075E+02  0.89999992325E+02 0.  0.
         12    1    1    2    0    0  0.62262389112E-01  0.64335495460E+00  0.98754874988E+00  0.11802689253E+01  0.00000000000E+00 0. -1.
         11    1    3    3    0    0 -0.20766232594E+02  0.27066829118E+01 -0.31851582540E+02  0.38119363309E+02  0.51100000000E-03 0. -1.
        -11    1    3    3    0    0 -0.28504853972E+01 -0.95808534371E+01 -0.27551738422E+01  0.10368654818E+02  0.51100000000E-03 0.  1.
        -12    1    3    3    0    0  0.23554455602E+02  0.62308155708E+01  0.33619207632E+02  0.41519712947E+02  0.00000000000E+00 0.  1.
</event>
<event>
 7    1  0.2090370E-015  0.9000773E+02  0.7816164E-02  0.1186339E+00
        -11   -1    0    0    0    0  0.00000000000E+00  0.00000000000E+00  0.45593999997E+02  0.45594000000E+02  0.51100000000E-03 0. -1.
         11   -1    0    0    0    0 -0.00000000000E+00 -0.00000000000E+00 -0.45593999997E+02  0.45594000000E+02  0.51100000000E-03 0.  1.
    9900012    2    1    2    0    0  0.26248104880E+00  0.84310152473E+00 -0.78314490233E+00  0.90007732056E+02  0.89999993319E+02 0.  0.
         12    1    1    2    0    0 -0.26248104880E+00 -0.84310152473E+00  0.78314490233E+00  0.11802679442E+01  0.00000000000E+00 0. -1.
         11    1    3    3    0    0 -0.16388766634E+02  0.30179695079E+02  0.10142394472E+02  0.35808851318E+02  0.51100000000E-03 0. -1.
        -11    1    3    3    0    0 -0.10996241361E+02  0.96045879497E+00  0.19512994156E+01  0.11209253982E+02  0.51100000000E-03 0.  1.
        -12    1    3    3    0    0  0.27647489043E+02 -0.30297052349E+02 -0.12876838790E+02  0.42989626756E+02  0.00000000000E+00 0.  1.
</event>
<event>
 7    1  0.2090370E-015  0.9000774E+02  0.7816164E-02  0.1186339E+00
        -11   -1    0    0    0    0  0.00000000000E+00  0.00000000000E+00  0.45593999997E+02  0.45594000000E+02  0.51100000000E-03 0.  1.
         11   -1    0    0    0    0 -0.00000000000E+00 -0.00000000000E+00 -0.45593999997E+02  0.45594000000E+02  0.51100000000E-03 0. -1.
    9900012    2    1    2    0    0  0.20591313490E+00 -0.34398208946E+00  0.11100902775E+01  0.90007735487E+02  0.89999996795E+02 0.  0.
         12    1    1    2    0    0 -0.20591313490E+00  0.34398208946E+00 -0.11100902775E+01  0.11802645132E+01  0.00000000000E+00 0. -1.
         11    1    3    3    0    0  0.57189587978E+01 -0.52222478514E+01 -0.48509289062E+01  0.91383736992E+01  0.51100000000E-03 0. -1.
        -11    1    3    3    0    0 -0.10709457178E+02 -0.20536237084E+02  0.34975972291E+02  0.41949352135E+02  0.51100000000E-03 0.  1.
         12    1    3    3    0    0  0.51964115151E+01  0.25414502845E+02 -0.29014953107E+02  0.38920009652E+02  0.00000000000E+00 0. -1.
</event>
<event>
 7    1  0.2090370E-015  0.9000687E+02  0.7816164E-02  0.1186341E+00
        -11   -1    0    0    0    0  0.00000000000E+00  0.00000000000E+00  0.45593999997E+02  0.45594000000E+02  0.51100000000E-03 0. -1.
         11   -1    0    0    0    0 -0.00000000000E+00 -0.00000000000E+00 -0.45593999997E+02  0.45594000000E+02  0.51100000000E-03 0.  1.
    9900012    2    1    2    0    0  0.34333046200E+00 -0.50676013698E+00 -0.10101432364E+01  0.90006868762E+02  0.89999118626E+02 0.  0.
         12    1    1    2    0    0 -0.34333046200E+00  0.50676013698E+00  0.10101432364E+01  0.11811312377E+01  0.00000000000E+00 0. -1.
         11    1    3    3    0    0  0.25172003456E+02 -0.18747310247E+02  0.20560699190E+02  0.37521110737E+02  0.51100000000E-03 0. -1.
        -11    1    3    3    0    0  0.77110599159E+01  0.10111708269E+02 -0.20359861093E+00  0.12718040014E+02  0.51100000000E-03 0.  1.
        -12    1    3    3    0    0 -0.32539732910E+02  0.81288418411E+01 -0.21367243815E+02  0.39767718011E+02  0.00000000000E+00 0.  1.
</event>
<event>
 7    1  0.2090370E-015  0.9000761E+02  0.7816164E-02  0.1186339E+00
        -11   -1    0    0    0    0  0.00000000000E+00  0.00000000000E+00  0.45593999997E+02  0.45594000000E+02  0.51100000000E-03 0.  1.
         11   -1    0    0    0    0 -0.00000000000E+00 -0.00000000000E+00 -0.45593999997E+02  0.45594000000E+02  0.51100000000E-03 0. -1.
    9900012    2    1    2    0    0  0.10926055947E+01  0.40443370230E+00  0.18963986761E+00  0.90007611554E+02  0.89999871226E+02 0.  0.
         12    1    1    2    0    0 -0.10926055947E+01 -0.40443370230E+00 -0.18963986761E+00  0.11803884465E+01  0.00000000000E+00 0. -1.
         11    1    3    3    0    0 -0.27330034404E+01 -0.97292528455E+01 -0.20267887204E+01  0.10307062701E+02  0.51100000000E-03 0. -1.
        -11    1    3    3    0    0 -0.37164921310E+02 -0.57521412892E+00  0.33417976858E+01  0.37319296072E+02  0.51100000000E-03 0.  1.
         12    1    3    3    0    0  0.40990530345E+02  0.10708900677E+02 -0.11253690977E+01  0.42381252781E+02  0.00000000000E+00 0. -1.
</event>
<event>
 7    1  0.2090370E-015  0.9000767E+02  0.7816164E-02  0.1186339E+00
        -11   -1    0    0    0    0  0.00000000000E+00  0.00000000000E+00  0.45593999997E+02  0.45594000000E+02  0.51100000000E-03 0. -1.
         11   -1    0    0    0    0 -0.00000000000E+00 -0.00000000000E+00 -0.45593999997E+02  0.45594000000E+02  0.51100000000E-03 0.  1.
    9900012    2    1    2    0    0 -0.95650869180E+00 -0.39467151872E+00 -0.56789954146E+00  0.90007667685E+02  0.89999928098E+02 0.  0.
         12    1    1    2    0    0  0.95650869180E+00  0.39467151872E+00  0.56789954146E+00  0.11803323152E+01  0.00000000000E+00 0. -1.
         11    1    3    3    0    0  0.69560812195E+01 -0.98311900593E+01  0.27380201702E+01  0.12350551349E+02  0.51100000000E-03 0. -1.
        -11    1    3    3    0    0 -0.24836160179E+02 -0.92419120568E+01 -0.30617154873E+02  0.40492690250E+02  0.51100000000E-03 0.  1.
         12    1    3    3    0    0  0.16923570268E+02  0.18678430597E+02  0.27311235162E+02  0.37164426085E+02  0.00000000000E+00 0. -1.
</event>
<event>
 7    1  0.2090370E-015  0.9000747E+02  0.7816164E-02  0.1186340E+00
        -11   -1    0    0    0    0  0.00000000000E+00  0.00000000000E+00  0.45593999997E+02  0.45594000000E+02  0.51100000000E-03 0. -1.
         11   -1    0    0    0    0 -0.00000000000E+00 -0.00000000000E+00 -0.45593999997E+02  0.45594000000E+02  0.51100000000E-03 0.  1.
    9900012    2    1    2    0    0 -0.28572099092E+00 -0.15768731486E+00 -0.11345299177E+01  0.90007466261E+02  0.89999724016E+02 0.  0.
         12    1    1    2    0    0  0.28572099092E+00  0.15768731486E+00  0.11345299177E+01  0.11805337386E+01  0.00000000000E+00 0. -1.
         11    1    3    3    0    0 -0.44024035928E+01 -0.11323667844E+02 -0.93822581397E+00  0.12185519225E+02  0.51100000000E-03 0. -1.
        -11    1    3    3    0    0 -0.17956636328E+02  0.43967114562E+01 -0.32930373514E+02  0.37764816429E+02  0.51100000000E-03 0.  1.
         12    1    3    3    0    0  0.22073318930E+02  0.67692690733E+01  0.32734069410E+02  0.40057130608E+02  0.00000000000E+00 0. -1.
</event>
<event>
 7    1  0.2090370E-015  0.9000773E+02  0.7816164E-02  0.1186339E+00
        -11   -1    0    0    0    0  0.00000000000E+00  0.00000000000E+00  0.45593999997E+02  0.45594000000E+02  0.51100000000E-03 0.  1.
         11   -1    0    0    0    0 -0.00000000000E+00 -0.00000000000E+00 -0.45593999997E+02  0.45594000000E+02  0.51100000000E-03 0. -1.
    9900012    2    1    2    0    0  0.62375464646E+00  0.19143489964E+00  0.98352982805E+00  0.90007725412E+02  0.89999986588E+02 0.  0.
         12    1    1    2    0    0 -0.62375464646E+00 -0.19143489964E+00 -0.98352982805E+00  0.11802745877E+01  0.00000000000E+00 0. -1.
         11    1    3    3    0    0 -0.55307186787E+01 -0.26904135632E+01  0.76981604721E+01  0.98533674020E+01  0.51100000000E-03 0. -1.
        -11    1    3    3    0    0  0.67504715828E+01  0.40589065557E+02  0.28603452100E+01  0.41245880817E+02  0.51100000000E-03 0.  1.
         12    1    3    3    0    0 -0.59599825768E+00 -0.37707217094E+02 -0.95749758540E+01  0.38908477193E+02  0.00000000000E+00 0. -1.
</event>
<event>
 7    1  0.2090370E-015  0.9000748E+02  0.7816164E-02  0.1186340E+00
        -11   -1    0    0    0    0  0.00000000000E+00  0.00000000000E+00  0.45593999997E+02  0.45594000000E+02  0.51100000000E-03 0.  1.
         11   -1    0    0    0    0 -0.00000000000E+00 -0.00000000000E+00 -0.45593999997E+02  0.45594000000E+02  0.51100000000E-03 0. -1.
    9900012    2    1    2    0    0  0.23022862637E-01  0.10273977714E+01  0.58098605856E+00  0.90007482726E+02  0.89999740698E+02 0.  0.
         12    1    1    2    0    0 -0.23022862637E-01 -0.10273977714E+01 -0.58098605856E+00  0.11805172735E+01  0.00000000000E+00 0. -1.
         11    1    3    3    0    0  0.57760866199E+01 -0.86271645163E+01  0.15619604755E+01  0.10499088771E+02  0.51100000000E-03 0. -1.
        -11    1    3    3    0    0  0.34519385259E+02 -0.48856217026E+01 -0.88622911512E+01  0.35972176231E+02  0.51100000000E-03 0.  1.
         12    1    3    3    0    0 -0.40272449017E+02  0.14540183990E+02  0.78813167343E+01  0.43536217724E+02  0.00000000000E+00 0. -1.
</event>
<event>
 7    1  0.2090370E-015  0.9000774E+02  0.7816164E-02  0.1186339E+00
        -11   -1    0    0    0    0  0.00000000000E+00  0.00000000000E+00  0.45593999997E+02  0.45594000000E+02  0.51100000000E-03 0.  1.
         11   -1    0    0    0    0 -0.00000000000E+00 -0.00000000000E+00 -0.45593999997E+02  0.45594000000E+02  0.51100000000E-03 0. -1.
    9900012    2    1    2    0    0  0.23432304784E+00  0.33581424682E+00  0.11069454732E+01  0.90007742918E+02  0.90000004324E+02 0.  0.
         12    1    1    2    0    0 -0.23432304784E+00 -0.33581424682E+00 -0.11069454732E+01  0.11802570820E+01  0.00000000000E+00 0. -1.
         11    1    3    3    0    0  0.18416666184E+02  0.73959357944E+01 -0.30548454818E+02  0.36429130537E+02  0.51100000000E-03 0. -1.
        -11    1    3    3    0    0 -0.12517866054E+01  0.49082464061E+01 -0.76295705659E+01  0.91579582752E+01  0.51100000000E-03 0.  1.
        -12    1    3    3    0    0 -0.16930556531E+02 -0.11968367954E+02  0.39284970857E+02  0.44420654106E+02  0.00000000000E+00 0.  1.
</event>
<event>
 7    1  0.2090370E-015  0.9000773E+02  0.7816164E-02  0.1186339E+00
        -11   -1    0    0    0    0  0.00000000000E+00  0.00000000000E+00  0.45593999997E+02  0.45594000000E+02  0.51100000000E-03 0.  1.
         11   -1    0    0    0    0 -0.00000000000E+00 -0.00000000000E+00 -0.45593999997E+02  0.45594000000E+02  0.51100000000E-03 0. -1.
    9900012    2    1    2    0    0 -0.38379019030E+00  0.10438425505E+01  0.39512528197E+00  0.90007734704E+02  0.89999996002E+02 0.  0.
         12    1    1    2    0    0  0.38379019030E+00 -0.10438425505E+01 -0.39512528197E+00  0.11802652960E+01  0.00000000000E+00 0. -1.
         11    1    3    3    0    0  0.39733691254E+02 -0.87776086464E+01 -0.16242727156E+01  0.40724082510E+02  0.51100000000E-03 0. -1.
        -11    1    3    3    0    0  0.43672590832E+00  0.61945515569E-01  0.72335733237E+01  0.72470097321E+01  0.51100000000E-03 0.  1.
        -12    1    3    3    0    0 -0.40554207352E+02  0.97595056813E+01 -0.52141753262E+01  0.42036642462E+02  0.00000000000E+00 0.  1.
</event>
<event>
 7    1  0.2090370E-015  0.9000775E+02  0.7816164E-02  0.1186339E+00
        -11   -1    0    0    0    0  0.00000000000E+00  0.00000000000E+00  0.45593999997E+02  0.45594000000E+02  0.51100000000E-03 0. -1.
         11   -1    0    0    0    0 -0.00000000000E+00 -0.00000000000E+00 -0.45593999997E+02  0.45594000000E+02  0.51100000000E-03 0.  1.
    9900012    2    1    2    0    0  0.61699191430E+00  0.59072245327E+00 -0.81447257704E+00  0.90007746799E+02  0.90000008257E+02 0.  0.
         12    1    1    2    0    0 -0.61699191430E+00 -0.59072245327E+00  0.81447257704E+00  0.11802532007E+01  0.00000000000E+00 0. -1.
         11    1    3    3    0    0 -0.81733709425E+01  0.17598341174E+00 -0.52654689367E+01  0.97242031092E+01  0.51100000000E-03 0. -1.
        -11    1    3    3    0    0 -0.27512814794E+02 -0.23419112449E+02 -0.28648134032E+01  0.36243854126E+02  0.51100000000E-03 0.  1.
         12    1    3    3    0    0  0.36303177651E+02  0.23833851490E+02  0.73158097629E+01  0.44039689564E+02  0.00000000000E+00 0. -1.
</event>
<event>
 7    1  0.2090370E-015  0.9000768E+02  0.7816164E-02  0.1186339E+00
        -11   -1    0    0    0    0  0.00000000000E+00  0.00000000000E+00  0.45593999997E+02  0.45594000000E+02  0.51100000000E-03 0.  1.
         11   -1    0    0    0    0 -0.00000000000E+00 -0.00000000000E+00 -0.45593999997E+02  0.45594000000E+02  0.51100000000E-03 0. -1.
    9900012    2    1    2    0    0 -0.25356518696E+00 -0.48526300706E+00  0.10456522927E+01  0.90007676228E+02  0.89999936754E+02 0.  0.
         12    1    1    2    0    0  0.25356518696E+00  0.48526300706E+00 -0.10456522927E+01  0.11803237722E+01  0.00000000000E+00 0. -1.
         11    1    3    3    0    0  0.17112871953E+02 -0.27245898620E+02  0.28601888633E+02  0.43049476323E+02  0.51100000000E-03 0. -1.
        -11    1    3    3    0    0 -0.54601806250E+01  0.10708355440E+02  0.10456386834E+01  0.12065480065E+02  0.51100000000E-03 0.  1.
        -12    1    3    3    0    0 -0.11906256514E+02  0.16052280173E+02 -0.28601875023E+02  0.34892719839E+02  0.00000000000E+00 0.  1.
</event>
<event>
 7    1  0.2090370E-015  0.9000787E+02  0.7816164E-02  0.1186339E+00
        -11   -1    0    0    0    0  0.00000000000E+00  0.00000000000E+00  0.45593999997E+02  0.45594000000E+02  0.51100000000E-03 0. -1.
         11   -1    0    0    0    0 -0.00000000000E+00 -0.00000000000E+00 -0.45593999997E+02  0.45594000000E+02  0.51100000000E-03 0.  1.
    9900012    2    1    2    0    0  0.45261400167E+00 -0.86593223957E+00 -0.66182918309E+00  0.90007866132E+02  0.90000129165E+02 0.  0.
         12    1    1    2    0    0 -0.45261400167E+00  0.86593223957E+00  0.66182918309E+00  0.11801338677E+01  0.00000000000E+00 0. -1.
         11    1    3    3    0    0 -0.15187214951E+01 -0.73499421640E+01  0.28639368311E+02  0.29606444945E+02  0.51100000000E-03 0. -1.
        -11    1    3    3    0    0  0.16130747323E+02  0.57931477735E+01  0.91437878842E+01  0.19426024489E+02  0.51100000000E-03 0.  1.
        -12    1    3    3    0    0 -0.14159411826E+02  0.69086215088E+00 -0.38444985378E+02  0.40975396698E+02  0.00000000000E+00 0.  1.
</event>
<event>
 7    1  0.2090370E-015  0.9000777E+02  0.7816164E-02  0.1186339E+00
        -11   -1    0    0    0    0  0.00000000000E+00  0.00000000000E+00  0.45593999997E+02  0.45594000000E+02  0.51100000000E-03 0. -1.
         11   -1    0    0    0    0 -0.00000000000E+00 -0.00000000000E+00 -0.45593999997E+02  0.45594000000E+02  0.51100000000E-03 0.  1.
    9900012    2    1    2    0    0 -0.10110462897E+01  0.58826316356E+00 -0.15711608982E+00  0.90007765441E+02  0.90000027144E+02 0.  0.
         12    1    1    2    0    0  0.10110462897E+01 -0.58826316356E+00  0.15711608982E+00  0.11802345594E+01  0.00000000000E+00 0. -1.
         11    1    3    3    0    0  0.36551189997E+02  0.12319676164E+02  0.17240878469E+01  0.38610055558E+02  0.51100000000E-03 0. -1.
        -11    1    3    3    0    0 -0.70218308159E+00  0.86620246415E+01  0.25056066622E+01  0.90444345858E+01  0.51100000000E-03 0.  1.
        -12    1    3    3    0    0 -0.36860053206E+02 -0.20393437642E+02 -0.43868105989E+01  0.42353275297E+02  0.00000000000E+00 0.  1.
</event>
<event>
 7    1  0.2090370E-015  0.9000768E+02  0.7816164E-02  0.1186339E+00
        -11   -1    0    0    0    0  0.00000000000E+00  0.00000000000E+00  0.45593999997E+02  0.45594000000E+02  0.51100000000E-03 0.  1.
         11   -1    0    0    0    0 -0.00000000000E+00 -0.00000000000E+00 -0.45593999997E+02  0.45594000000E+02  0.51100000000E-03 0. -1.
    9900012    2    1    2    0    0  0.62108680791E+00  0.21953638936E+00  0.97939383793E+00  0.90007679137E+02  0.89999939702E+02 0.  0.
         12    1    1    2    0    0 -0.62108680791E+00 -0.21953638936E+00 -0.97939383793E+00  0.11803208627E+01  0.00000000000E+00 0. -1.
         11    1    3    3    0    0  0.75675532459E+01  0.35909858136E+02  0.12020992919E+02  0.38617224713E+02  0.51100000000E-03 0. -1.
        -11    1    3    3    0    0 -0.65009355921E+01  0.49200130008E+01  0.25846236540E+01  0.85527171820E+01  0.51100000000E-03 0.  1.
        -12    1    3    3    0    0 -0.44553084581E+00 -0.40610334748E+02 -0.13626222735E+02  0.42837737243E+02  0.00000000000E+00 0.  1.
</event>
<event>
 7    1  0.2090370E-015  0.9000768E+02  0.7816164E-02  0.1186339E+00
        -11   -1    0    0    0    0  0.00000000000E+00  0.00000000000E+00  0.45593999997E+02  0.45594000000E+02  0.51100000000E-03 0.  1.
         11   -1    0    0    0    0 -0.00000000000E+00 -0.00000000000E+00 -0.45593999997E+02  0.45594000000E+02  0.51100000000E-03 0. -1.
    9900012    2    1    2    0    0  0.11177403131E+01 -0.10532719212E+00  0.36429558287E+00  0.90007682883E+02  0.89999943497E+02 0.  0.
         12    1    1    2    0    0 -0.11177403131E+01  0.10532719212E+00 -0.36429558287E+00  0.11803171170E+01  0.00000000000E+00 0. -1.
         11    1    3    3    0    0  0.33017394857E+01  0.40774768277E+01  0.80554718812E+01  0.96134243848E+01  0.51100000000E-03 0. -1.
        -11    1    3    3    0    0  0.16315628284E+02  0.30889706754E+02  0.10906925899E+02  0.36596922582E+02  0.51100000000E-03 0.  1.
         12    1    3    3    0    0 -0.18499627456E+02 -0.35072510774E+02 -0.18598102198E+02  0.43797335916E+02  0.00000000000E+00 0. -1.
</event>
<event>
 7    1  0.2090370E-015  0.9000771E+02  0.7816164E-02  0.1186339E+00
        -11   -1    0    0    0    0  0.00000000000E+00  0.00000000000E+00  0.45593999997E+02  0.45594000000E+02  0.51100000000E-03 0. -1.
         11   -1    0    0    0    0 -0.00000000000E+00 -0.00000000000E+00 -0.45593999997E+02  0.45594000000E+02  0.51100000000E-03 0.  1.
    9900012    2    1    2    0    0 -0.91974241546E+00  0.32536565762E+00 -0.66429367452E+00  0.90007714014E+02  0.89999975039E+02 0.  0.
         12    1    1    2    0    0  0.91974241546E+00 -0.32536565762E+00  0.66429367452E+00  0.11802859857E+01  0.00000000000E+00 0. -1.
         11    1    3    3    0    0  0.53808839221E+01  0.10183644859E+01 -0.50781864803E+01  0.74685310603E+01  0.51100000000E-03 0. -1.
        -11    1    3    3    0    0 -0.26046268712E+02 -0.44947163617E+01 -0.31657966923E+02  0.41241210688E+02  0.51100000000E-03 0.  1.
         12    1    3    3    0    0  0.19745642375E+02  0.38017175334E+01  0.36071859729E+02  0.41297972266E+02  0.00000000000E+00 0. -1.
</event>
<event>
 7    1  0.2090370E-015  0.9000786E+02  0.7816164E-02  0.1186339E+00
        -11   -1    0    0    0    0  0.00000000000E+00  0.00000000000E+00  0.45593999997E+02  0.45594000000E+02  0.51100000000E-03 0.  1.
         11   -1    0    0    0    0 -0.00000000000E+00 -0.00000000000E+00 -0.45593999997E+02  0.45594000000E+02  0.51100000000E-03 0. -1.
    9900012    2    1    2    0    0  0.25949770592E+00  0.61382429998E+00  0.97396687944E+00  0.90007859833E+02  0.90000122783E+02 0.  0.
         12    1    1    2    0    0 -0.25949770592E+00 -0.61382429998E+00 -0.97396687944E+00  0.11801401666E+01  0.00000000000E+00 0. -1.
         11    1    3    3    0    0  0.48399931342E+01 -0.56480944821E+01  0.35145284652E+01  0.82266892132E+01  0.51100000000E-03 0. -1.
        -11    1    3    3    0    0 -0.20079169037E+02 -0.33219262994E+02  0.33471090368E+01  0.38960179700E+02  0.51100000000E-03 0.  1.
         12    1    3    3    0    0  0.15498673609E+02  0.39481181776E+02 -0.58876706226E+01  0.42820990920E+02  0.00000000000E+00 0. -1.
</event>
<event>
 7    1  0.2090370E-015  0.9000775E+02  0.7816164E-02  0.1186339E+00
        -11   -1    0    0    0    0  0.00000000000E+00  0.00000000000E+00  0.45593999997E+02  0.45594000000E+02  0.51100000000E-03 0.  1.
         11   -1    0    0    0    0 -0.00000000000E+00 -0.00000000000E+00 -0.45593999997E+02  0.45594000000E+02  0.51100000000E-03 0. -1.
    9900012    2    1    2    0    0 -0.34413970703E+00 -0.25636690188E+00  0.10994736487E+01  0.90007746455E+02  0.90000007908E+02 0.  0.
         12    1    1    2    0    0  0.34413970703E+00  0.25636690188E+00 -0.10994736487E+01  0.11802535451E+01  0.00000000000E+00 0. -1.
         11    1    3    3    0    0  0.48511680259E+01  0.12269252643E+01  0.85993114893E+01  0.99492379191E+01  0.51100000000E-03 0. -1.
        -11    1    3    3    0    0  0.68164100636E+01  0.37659362583E+02 -0.80584611546E+01  0.39110482390E+02  0.51100000000E-03 0.  1.
         12    1    3    3    0    0 -0.12011717796E+02 -0.39142654749E+02  0.55862331404E+00  0.40948026146E+02  0.00000000000E+00 0. -1.
</event>
<event>
 7    1  0.2090370E-015  0.9000777E+02  0.7816164E-02  0.1186339E+00
        -11   -1    0    0    0    0  0.00000000000E+00  0.00000000000E+00  0.45593999997E+02  0.45594000000E+02  0.51100000000E-03 0.  1.
         11   -1    0    0    0    0 -0.00000000000E+00 -0.00000000000E+00 -0.45593999997E+02  0.45594000000E+02  0.51100000000E-03 0. -1.
    9900012    2    1    2    0    0  0.56600693613E+00  0.20300637083E+00  0.10155660292E+01  0.90007767058E+02  0.90000028783E+02 0.  0.
         12    1    1    2    0    0 -0.56600693613E+00 -0.20300637083E+00 -0.10155660292E+01  0.11802329423E+01  0.00000000000E+00 0. -1.
         11    1    3    3    0    0  0.13400494512E+02 -0.20426559738E+02  0.84901268231E+01  0.25863098222E+02  0.51100000000E-03 0. -1.
        -11    1    3    3    0    0  0.75065211703E+01  0.10959630300E+01  0.22048236770E+02  0.23316812389E+02  0.51100000000E-03 0.  1.
         12    1    3    3    0    0 -0.20341008746E+02  0.19533603079E+02 -0.29522797564E+02  0.40827856447E+02  0.00000000000E+00 0. -1.
</event>
<event>
 7    1  0.2090370E-015  0.9000765E+02  0.7816164E-02  0.1186339E+00
        -11   -1    0    0    0    0  0.00000000000E+00  0.00000000000E+00  0.45593999997E+02  0.45594000000E+02  0.51100000000E-03 0.  1.
         11   -1    0    0    0    0 -0.00000000000E+00 -0.00000000000E+00 -0.45593999997E+02  0.45594000000E+02  0.51100000000E-03 0. -1.
    9900012    2    1    2    0    0  0.34121321337E+00 -0.11158950581E+01  0.17767020817E+00  0.90007654737E+02  0.89999914979E+02 0.  0.
         12    1    1    2    0    0 -0.34121321337E+00  0.11158950581E+01 -0.17767020817E+00  0.11803452633E+01  0.00000000000E+00 0. -1.
         11    1    3    3    0    0  0.50313366557E+01 -0.74385454278E+01  0.27133440409E+00  0.89844270404E+01  0.51100000000E-03 0. -1.
        -11    1    3    3    0    0 -0.21220406476E+02 -0.40602881408E+01  0.34845916513E+02  0.41000359616E+02  0.51100000000E-03 0.  1.
         12    1    3    3    0    0  0.16530283033E+02  0.10382938510E+02 -0.34939580709E+02  0.40022868080E+02  0.00000000000E+00 0. -1.
</event>
<event>
 7    1  0.2090370E-015  0.9000776E+02  0.7816164E-02  0.1186339E+00
        -11   -1    0    0    0    0  0.00000000000E+00  0.00000000000E+00  0.45593999997E+02  0.45594000000E+02  0.51100000000E-03 0. -1.
         11   -1    0    0    0    0 -0.00000000000E+00 -0.00000000000E+00 -0.45593999997E+02  0.45594000000E+02  0.51100000000E-03 0.  1.
    9900012    2    1    2    0    0  0.32050664291E+00 -0.62907852254E+00 -0.94578339735E+00  0.90007758275E+02  0.90000019884E+02 0.  0.
         12    1    1    2    0    0 -0.32050664291E+00  0.62907852254E+00  0.94578339735E+00  0.11802417254E+01  0.00000000000E+00 0. -1.
         11    1    3    3    0    0 -0.28014762644E+02  0.19114859646E+01 -0.27975679723E+02  0.39637348055E+02  0.51100000000E-03 0. -1.
        -11    1    3    3    0    0 -0.55012590455E+01 -0.44128511440E+01  0.48143358628E-01  0.70526182619E+01  0.51100000000E-03 0.  1.
        -12    1    3    3    0    0  0.33836528332E+02  0.18722866568E+01  0.26981752967E+02  0.43317791958E+02  0.00000000000E+00 0.  1.
</event>
<event>
 7    1  0.2090370E-015  0.9000752E+02  0.7816164E-02  0.1186339E+00
        -11   -1    0    0    0    0  0.00000000000E+00  0.00000000000E+00  0.45593999997E+02  0.45594000000E+02  0.51100000000E-03 0. -1.
         11   -1    0    0    0    0 -0.00000000000E+00 -0.00000000000E+00 -0.45593999997E+02  0.45594000000E+02  0.51100000000E-03 0.  1.
    9900012    2    1    2    0    0  0.44697094665E+00 -0.91590477134E+00 -0.59569861448E+00  0.90007524919E+02  0.89999783448E+02 0.  0.
         12    1    1    2    0    0 -0.44697094665E+00  0.91590477134E+00  0.59569861448E+00  0.11804750809E+01  0.00000000000E+00 0. -1.
         11    1    3    3    0    0  0.34510284506E+02 -0.46344447854E+01  0.23639617149E+02  0.42086450484E+02  0.51100000000E-03 0. -1.
        -11    1    3    3    0    0 -0.30481111182E+01  0.91078104020E+01 -0.34831183135E+01  0.10216423305E+02  0.51100000000E-03 0.  1.
        -12    1    3    3    0    0 -0.31015202441E+02 -0.53892703880E+01 -0.20752197450E+02  0.37704651129E+02  0.00000000000E+00 0.  1.
</event>
<event>
 7    1  0.2090370E-015  0.9000775E+02  0.7816164E-02  0.1186339E+00
        -11   -1    0    0    0    0  0.00000000000E+00  0.00000000000E+00  0.45593999997E+02  0.45594000000E+02  0.51100000000E-03 0. -1.
         11   -1    0    0    0    0 -0.00000000000E+00 -0.00000000000E+00 -0.45593999997E+02  0.45594000000E+02  0.51100000000E-03 0.  1.
    9900012    2    1    2    0    0  0.37402788358E+00 -0.10986516402E+01  0.21461500624E+00  0.90007749228E+02  0.90000010718E+02 0.  0.
         12    1    1    2    0    0 -0.37402788358E+00  0.10986516402E+01 -0.21461500624E+00  0.11802507721E+01  0.00000000000E+00 0. -1.
         11    1    3    3    0    0 -0.29870748241E+02 -0.82967089112E+01  0.28613974234E+02  0.42188345558E+02  0.51100000000E-03 0. -1.
        -11    1    3    3    0    0  0.19614866089E+01 -0.57616489030E+01 -0.99072840744E+01  0.11627480630E+02  0.51100000000E-03 0.  1.
        -12    1    3    3    0    0  0.28283289515E+02  0.12959706174E+02 -0.18492075153E+02  0.36191923041E+02  0.00000000000E+00 0.  1.
</event>
<event>
 7    1  0.4418668E-015  0.9000768E+02  0.7816164E-02  0.1186339E+00
        -11   -1    0    0    0    0  0.00000000000E+00  0.00000000000E+00  0.45593999997E+02  0.45594000000E+02  0.51100000000E-03 0. -1.
         11   -1    0    0    0    0 -0.00000000000E+00 -0.00000000000E+00 -0.45593999997E+02  0.45594000000E+02  0.51100000000E-03 0.  1.
    9900012    2    1    2    0    0 -0.12197169710E+00  0.56176796107E+00 -0.10308666666E+01  0.90007683762E+02  0.89999944388E+02 0.  0.
         12    1    1    2    0    0  0.12197169710E+00 -0.56176796107E+00  0.10308666666E+01  0.11803162379E+01  0.00000000000E+00 0. -1.
         11    1    3    3    0    0 -0.18914666508E+02  0.27778470211E+01  0.36126493637E+02  0.40873030056E+02  0.51100000000E-03 0. -1.
        -11    1    3    3    0    0  0.96909455691E+01 -0.21650227266E+01  0.93144230598E+00  0.99734314286E+01  0.51100000000E-03 0.  1.
        -12    1    3    3    0    0  0.91017492421E+01 -0.51056333387E-01 -0.38088802610E+02  0.39161222277E+02  0.00000000000E+00 0.  1.
</event>
<event>
 7    1  0.2090370E-015  0.9000774E+02  0.7816164E-02  0.1186339E+00
        -11   -1    0    0    0    0  0.00000000000E+00  0.00000000000E+00  0.45593999997E+02  0.45594000000E+02  0.51100000000E-03 0. -1.
         11   -1    0    0    0    0 -0.00000000000E+00 -0.00000000000E+00 -0.45593999997E+02  0.45594000000E+02  0.51100000000E-03 0.  1.
    9900012    2    1    2    0    0  0.10620984875E+01 -0.48645918029E+00 -0.16824555044E+00  0.90007744817E+02  0.90000006249E+02 0.  0.
         12    1    1    2    0    0 -0.10620984875E+01  0.48645918029E+00  0.16824555044E+00  0.11802551827E+01  0.00000000000E+00 0. -1.
         11    1    3    3    0    0 -0.78160163984E+01 -0.23692944923E+02 -0.15307189351E+02  0.29270391141E+02  0.51100000000E-03 0. -1.
        -11    1    3    3    0    0  0.29687721954E+02  0.21810606057E+02  0.38963960030E+01  0.37043829088E+02  0.51100000000E-03 0.  1.
         12    1    3    3    0    0 -0.20809607069E+02  0.13958796855E+01  0.11242547797E+02  0.23693524589E+02  0.00000000000E+00 0. -1.
</event>
<event>
 7    1  0.2090370E-015  0.9000787E+02  0.7816164E-02  0.1186339E+00
        -11   -1    0    0    0    0  0.00000000000E+00  0.00000000000E+00  0.45593999997E+02  0.45594000000E+02  0.51100000000E-03 0.  1.
         11   -1    0    0    0    0 -0.00000000000E+00 -0.00000000000E+00 -0.45593999997E+02  0.45594000000E+02  0.51100000000E-03 0. -1.
    9900012    2    1    2    0    0 -0.11096014255E+01  0.39061569974E+00  0.94360671359E-01  0.90007872937E+02  0.90000136060E+02 0.  0.
         12    1    1    2    0    0  0.11096014255E+01 -0.39061569974E+00 -0.94360671359E-01  0.11801270629E+01  0.00000000000E+00 0. -1.
         11    1    3    3    0    0  0.89777372637E+01 -0.27680412263E+01 -0.18125159790E+00  0.93965244112E+01  0.51100000000E-03 0. -1.
        -11    1    3    3    0    0 -0.25999167416E+02 -0.31427340604E+02 -0.82116521851E+01  0.41606077388E+02  0.51100000000E-03 0.  1.
         12    1    3    3    0    0  0.15911828727E+02  0.34585997530E+02  0.84872644544E+01  0.39005271137E+02  0.00000000000E+00 0. -1.
</event>
<event>
 7    1  0.2090370E-015  0.9000764E+02  0.7816164E-02  0.1186339E+00
        -11   -1    0    0    0    0  0.00000000000E+00  0.00000000000E+00  0.45593999997E+02  0.45594000000E+02  0.51100000000E-03 0.  1.
         11   -1    0    0    0    0 -0.00000000000E+00 -0.00000000000E+00 -0.45593999997E+02  0.45594000000E+02  0.51100000000E-03 0. -1.
    9900012    2    1    2    0    0  0.61502778372E+00 -0.99926211233E+00  0.12834674445E+00  0.90007636992E+02  0.89999897000E+02 0.  0.
         12    1    1    2    0    0 -0.61502778372E+00  0.99926211233E+00 -0.12834674445E+00  0.11803630080E+01  0.00000000000E+00 0. -1.
         11    1    3    3    0    0 -0.69409794583E+00 -0.29358241881E+02  0.56810157869E+00  0.29371940317E+02  0.51100000000E-03 0. -1.
        -11    1    3    3    0    0  0.11228104825E+02 -0.11161439981E+02 -0.10075062580E+02  0.18765792461E+02  0.51100000000E-03 0.  1.
        -12    1    3    3    0    0 -0.99189790956E+01  0.39520419751E+02  0.96353077457E+01  0.41869904214E+02  0.00000000000E+00 0.  1.
</event>
<event>
 7    1  0.2090370E-015  0.9000740E+02  0.7816164E-02  0.1186340E+00
        -11   -1    0    0    0    0  0.00000000000E+00  0.00000000000E+00  0.45593999997E+02  0.45594000000E+02  0.51100000000E-03 0.  1.
         11   -1    0    0    0    0 -0.00000000000E+00 -0.00000000000E+00 -0.45593999997E+02  0.45594000000E+02  0.51100000000E-03 0. -1.
    9900012    2    1    2    0    0 -0.35898557264E+00  0.98572964024E+00  0.54154694783E+00  0.90007404107E+02  0.89999661041E+02 0.  0.
         12    1    1    2    0    0  0.35898557264E+00 -0.98572964024E+00 -0.54154694783E+00  0.11805958926E+01  0.00000000000E+00 0. -1.
         11    1    3    3    0    0 -0.13290455689E+02  0.36593230215E+01  0.35625718001E+01  0.14237934383E+02  0.51100000000E-03 0. -1.
        -11    1    3    3    0    0  0.28843987406E+02  0.38513678771E+01  0.27946837110E+02  0.40346429194E+02  0.51100000000E-03 0.  1.
         12    1    3    3    0    0 -0.15912517290E+02 -0.65249612583E+01 -0.30967861962E+02  0.35423040531E+02  0.00000000000E+00 0. -1.
</event>
<event>
 7    1  0.2090370E-015  0.9000781E+02  0.7816164E-02  0.1186339E+00
        -11   -1    0    0    0    0  0.00000000000E+00  0.00000000000E+00  0.45593999997E+02  0.45594000000E+02  0.51100000000E-03 0.  1.
         11   -1    0    0    0    0 -0.00000000000E+00 -0.00000000000E+00 -0.45593999997E+02  0.45594000000E+02  0.51100000000E-03 0. -1.
    9900012    2    1    2    0    0 -0.38761966705E+00 -0.10830642870E+01  0.26377035702E+00  0.90007808466E+02  0.90000070738E+02 0.  0.
         12    1    1    2    0    0  0.38761966705E+00  0.10830642870E+01 -0.26377035702E+00  0.11801915341E+01  0.00000000000E+00 0. -1.
         11    1    3    3    0    0  0.19997499381E+01  0.84360350896E+01  0.22896700924E+01  0.89670662560E+01  0.51100000000E-03 0. -1.
        -11    1    3    3    0    0 -0.27845419125E+02  0.25010800456E+02  0.43068098965E+01  0.37675670100E+02  0.51100000000E-03 0.  1.
         12    1    3    3    0    0  0.25458049520E+02 -0.34529899833E+02 -0.63327096319E+01  0.43365072110E+02  0.00000000000E+00 0. -1.
</event>
<event>
 7    1  0.2090370E-015  0.9000769E+02  0.7816164E-02  0.1186339E+00
        -11   -1    0    0    0    0  0.00000000000E+00  0.00000000000E+00  0.45593999997E+02  0.45594000000E+02  0.51100000000E-03 0.  1.
         11   -1    0    0    0    0 -0.00000000000E+00 -0.00000000000E+00 -0.45593999997E+02  0.45594000000E+02  0.51100000000E-03 0. -1.
    9900012    2    1    2    0    0 -0.11799543500E+01 -0.29064695410E-01  0.21855159166E-02  0.90007685719E+02  0.89999946371E+02 0.  0.
         12    1    1    2    0    0  0.11799543500E+01  0.29064695410E-01 -0.21855159166E-02  0.11803142806E+01  0.00000000000E+00 0. -1.
         11    1    3    3    0    0  0.75807894746E+01 -0.48309920324E+00  0.64107965529E+01  0.99398222621E+01  0.51100000000E-03 0. -1.
        -11    1    3    3    0    0  0.32568060941E+02  0.14342276713E+02  0.20893138609E+01  0.35647506609E+02  0.51100000000E-03 0.  1.
         12    1    3    3    0    0 -0.41328804766E+02 -0.13888242205E+02 -0.84979248980E+01  0.44420356848E+02  0.00000000000E+00 0. -1.
</event>
<event>
 7    1  0.2090370E-015  0.9000779E+02  0.7816164E-02  0.1186339E+00
        -11   -1    0    0    0    0  0.00000000000E+00  0.00000000000E+00  0.45593999997E+02  0.45594000000E+02  0.51100000000E-03 0.  1.
         11   -1    0    0    0    0 -0.00000000000E+00 -0.00000000000E+00 -0.45593999997E+02  0.45594000000E+02  0.51100000000E-03 0. -1.
    9900012    2    1    2    0    0 -0.24633202722E+00  0.55161619111E+00  0.10138769707E+01  0.90007785443E+02  0.90000047410E+02 0.  0.
         12    1    1    2    0    0  0.24633202722E+00 -0.55161619111E+00 -0.10138769707E+01  0.11802145575E+01  0.00000000000E+00 0. -1.
         11    1    3    3    0    0 -0.14886303083E+01  0.60806722604E+01  0.10315965701E+02  0.12066886257E+02  0.51100000000E-03 0. -1.
        -11    1    3    3    0    0 -0.36541830871E+02 -0.12970495462E+02 -0.27025552921E+01  0.38869563431E+02  0.51100000000E-03 0.  1.
         12    1    3    3    0    0  0.37784129152E+02  0.74414393932E+01 -0.65995334379E+01  0.39071335755E+02  0.00000000000E+00 0. -1.
</event>
<event>
 7    1  0.2090370E-015  0.9000772E+02  0.7816164E-02  0.1186339E+00
        -11   -1    0    0    0    0  0.00000000000E+00  0.00000000000E+00  0.45593999997E+02  0.45594000000E+02  0.51100000000E-03 0.  1.
         11   -1    0    0    0    0 -0.00000000000E+00 -0.00000000000E+00 -0.45593999997E+02  0.45594000000E+02  0.51100000000E-03 0. -1.
    9900012    2    1    2    0    0  0.24715409404E-01 -0.11783072057E+01 -0.63626647596E-01  0.90007717376E+02  0.89999978445E+02 0.  0.
         12    1    1    2    0    0 -0.24715409404E-01  0.11783072057E+01  0.63626647596E-01  0.11802826241E+01  0.00000000000E+00 0. -1.
         11    1    3    3    0    0  0.10035267649E+02  0.68965174579E+01  0.40163695122E+01  0.12821847533E+02  0.51100000000E-03 0. -1.
        -11    1    3    3    0    0 -0.93223930685E+01  0.15706699088E+02  0.30298345128E+02  0.35377918629E+02  0.51100000000E-03 0.  1.
         12    1    3    3    0    0 -0.68815917152E+00 -0.23781523752E+02 -0.34378341288E+02  0.41807951214E+02  0.00000000000E+00 0. -1.
</event>
<event>
 7    1  0.2090370E-015  0.9000782E+02  0.7816164E-02  0.1186339E+00
        -11   -1    0    0    0    0  0.00000000000E+00  0.00000000000E+00  0.45593999997E+02  0.45594000000E+02  0.51100000000E-03 0.  1.
         11   -1    0    0    0    0 -0.00000000000E+00 -0.00000000000E+00 -0.45593999997E+02  0.45594000000E+02  0.51100000000E-03 0. -1.
    9900012    2    1    2    0    0  0.11444087050E+01 -0.58977121616E-01  0.28226678671E+00  0.90007820300E+02  0.90000082728E+02 0.  0.
         12    1    1    2    0    0 -0.11444087050E+01  0.58977121616E-01 -0.28226678671E+00  0.11801796998E+01  0.00000000000E+00 0. -1.
         11    1    3    3    0    0 -0.38863654331E+01 -0.28941512778E+01 -0.84602682057E+01  0.97496710853E+01  0.51100000000E-03 0. -1.
        -11    1    3    3    0    0 -0.12299206348E+02 -0.35335505047E+02 -0.10113984135E+00  0.37414951867E+02  0.51100000000E-03 0.  1.
         12    1    3    3    0    0  0.17329980486E+02  0.38170679203E+02  0.88436748337E+01  0.42843197348E+02  0.00000000000E+00 0. -1.
</event>
<event>
 7    1  0.2090370E-015  0.9000689E+02  0.7816164E-02  0.1186341E+00
        -11   -1    0    0    0    0  0.00000000000E+00  0.00000000000E+00  0.45593999997E+02  0.45594000000E+02  0.51100000000E-03 0. -1.
         11   -1    0    0    0    0 -0.00000000000E+00 -0.00000000000E+00 -0.45593999997E+02  0.45594000000E+02  0.51100000000E-03 0.  1.
    9900012    2    1    2    0    0 -0.44540759893E+00 -0.10804612994E+01  0.17099550522E+00  0.90006888654E+02  0.89999138780E+02 0.  0.
         12    1    1    2    0    0  0.44540759893E+00  0.10804612994E+01 -0.17099550522E+00  0.11811113459E+01  0.00000000000E+00 0. -1.
         11    1    3    3    0    0 -0.20567803750E+00  0.25825571660E+01  0.86378063255E+01  0.90179600436E+01  0.51100000000E-03 0. -1.
        -11    1    3    3    0    0 -0.75199357980E+01  0.37689572886E+02 -0.62919939347E+01  0.38944094888E+02  0.51100000000E-03 0.  1.
         12    1    3    3    0    0  0.72802062366E+01 -0.41352591351E+02 -0.21748168855E+01  0.42044833723E+02  0.00000000000E+00 0. -1.
</event>
<event>
 7    1  0.2090370E-015  0.9000779E+02  0.7816164E-02  0.1186339E+00
        -11   -1    0    0    0    0  0.00000000000E+00  0.00000000000E+00  0.45593999997E+02  0.45594000000E+02  0.51100000000E-03 0.  1.
         11   -1    0    0    0    0 -0.00000000000E+00 -0.00000000000E+00 -0.45593999997E+02  0.45594000000E+02  0.51100000000E-03 0. -1.
    9900012    2    1    2    0    0 -0.24920952571E+00  0.94857776307E+00  0.65649053373E+00  0.90007794517E+02  0.90000056605E+02 0.  0.
         12    1    1    2    0    0  0.24920952571E+00 -0.94857776307E+00 -0.65649053373E+00  0.11802054826E+01  0.00000000000E+00 0. -1.
         11    1    3    3    0    0  0.15678405771E+02 -0.30836488588E+02  0.15698205087E+02  0.37988617758E+02  0.51100000000E-03 0. -1.
        -11    1    3    3    0    0 -0.44763427708E+01 -0.72646083716E+01  0.27653513970E+00  0.85374850711E+01  0.51100000000E-03 0.  1.
        -12    1    3    3    0    0 -0.11451272526E+02  0.39049674723E+02 -0.15318249693E+02  0.43481691688E+02  0.00000000000E+00 0.  1.
</event>
<event>
 7    1  0.2090370E-015  0.9000770E+02  0.7816164E-02  0.1186339E+00
        -11   -1    0    0    0    0  0.00000000000E+00  0.00000000000E+00  0.45593999997E+02  0.45594000000E+02  0.51100000000E-03 0. -1.
         11   -1    0    0    0    0 -0.00000000000E+00 -0.00000000000E+00 -0.45593999997E+02  0.45594000000E+02  0.51100000000E-03 0.  1.
    9900012    2    1    2    0    0  0.69622364474E+00 -0.94084138782E+00 -0.15232146897E+00  0.90007698466E+02  0.89999959286E+02 0.  0.
         12    1    1    2    0    0 -0.69622364474E+00  0.94084138782E+00  0.15232146897E+00  0.11803015337E+01  0.00000000000E+00 0. -1.
         11    1    3    3    0    0 -0.57187654023E+01  0.57683488173E+01 -0.18497318680E+01  0.83306442758E+01  0.51100000000E-03 0. -1.
        -11    1    3    3    0    0  0.15912115483E+02  0.32403399061E+02 -0.13660050715E+02  0.38597573442E+02  0.51100000000E-03 0.  1.
         12    1    3    3    0    0 -0.94971264355E+01 -0.39112589267E+02  0.15357461114E+02  0.43079480748E+02  0.00000000000E+00 0. -1.
</event>
<event>
 7    1  0.2090370E-015  0.9000766E+02  0.7816164E-02  0.1186339E+00
        -11   -1    0    0    0    0  0.00000000000E+00  0.00000000000E+00  0.45593999997E+02  0.45594000000E+02  0.51100000000E-03 0. -1.
         11   -1    0    0    0    0 -0.00000000000E+00 -0.00000000000E+00 -0.45593999997E+02  0.45594000000E+02  0.51100000000E-03 0.  1.
    9900012    2    1    2    0    0  0.38041685155E+00 -0.78822955158E-01 -0.11145740262E+01  0.90007658821E+02  0.89999919117E+02 0.  0.
         12    1    1    2    0    0 -0.38041685155E+00  0.78822955158E-01  0.11145740262E+01  0.11803411791E+01  0.00000000000E+00 0. -1.
         11    1    3    3    0    0  0.62534413914E+01 -0.74393585076E+01  0.26417144325E+01  0.10071158803E+02  0.51100000000E-03 0. -1.
        -11    1    3    3    0    0 -0.32092047877E+02  0.98344266426E+01 -0.28325486487E+02  0.43919798147E+02  0.51100000000E-03 0.  1.
         12    1    3    3    0    0  0.26219023337E+02 -0.24738910902E+01  0.24569198028E+02  0.36016701870E+02  0.00000000000E+00 0. -1.
</event>
<event>
 7    1  0.2090370E-015  0.9000788E+02  0.7816164E-02  0.1186339E+00
        -11   -1    0    0    0    0  0.00000000000E+00  0.00000000000E+00  0.45593999997E+02  0.45594000000E+02  0.51100000000E-03 0.  1.
         11   -1    0    0    0    0 -0.00000000000E+00 -0.00000000000E+00 -0.45593999997E+02  0.45594000000E+02  0.51100000000E-03 0. -1.
    9900012    2    1    2    0    0 -0.10274557076E+01 -0.54812135621E+00  0.19126196715E+00  0.90007879925E+02  0.90000143139E+02 0.  0.
         12    1    1    2    0    0  0.10274557076E+01  0.54812135621E+00 -0.19126196715E+00  0.11801200754E+01  0.00000000000E+00 0. -1.
         11    1    3    3    0    0  0.14764870550E+02  0.12787582961E+01 -0.39006006517E+02  0.41726552335E+02  0.51100000000E-03 0. -1.
        -11    1    3    3    0    0 -0.62005411774E+01 -0.77764189055E+01  0.30351402567E+01  0.10398628685E+02  0.51100000000E-03 0.  1.
        -12    1    3    3    0    0 -0.95917850803E+01  0.59495392532E+01  0.36162128227E+02  0.37882698904E+02  0.00000000000E+00 0.  1.
</event>
<event>
 7    1  0.2090370E-015  0.9000775E+02  0.7816164E-02  0.1186339E+00
        -11   -1    0    0    0    0  0.00000000000E+00  0.00000000000E+00  0.45593999997E+02  0.45594000000E+02  0.51100000000E-03 0. -1.
         11   -1    0    0    0    0 -0.00000000000E+00 -0.00000000000E+00 -0.45593999997E+02  0.45594000000E+02  0.51100000000E-03 0.  1.
    9900012    2    1    2    0    0  0.10190034437E+01  0.21450297220E+00  0.55552137082E+00  0.90007752765E+02  0.90000014301E+02 0.  0.
         12    1    1    2    0    0 -0.10190034437E+01 -0.21450297220E+00 -0.55552137082E+00  0.11802472354E+01  0.00000000000E+00 0. -1.
         11    1    3    3    0    0 -0.16395618112E+02  0.79716168960E+01  0.31546871405E+02  0.36435807455E+02  0.51100000000E-03 0. -1.
        -11    1    3    3    0    0  0.25266528833E+01  0.90265181267E+01  0.54022143567E+01  0.10818776479E+02  0.51100000000E-03 0.  1.
        -12    1    3    3    0    0  0.14887968672E+02 -0.16783632051E+02 -0.36393564391E+02  0.42753168831E+02  0.00000000000E+00 0.  1.
</event>
<event>
 7    1  0.2090370E-015  0.9000773E+02  0.7816164E-02  0.1186339E+00
        -11   -1    0    0    0    0  0.00000000000E+00  0.00000000000E+00  0.45593999997E+02  0.45594000000E+02  0.51100000000E-03 0.  1.
         11   -1    0    0    0    0 -0.00000000000E+00 -0.00000000000E+00 -0.45593999997E+02  0.45594000000E+02  0.51100000000E-03 0. -1.
    9900012    2    1    2    0    0 -0.64025041430E+00 -0.42354743491E+00  0.89650439656E+00  0.90007731744E+02  0.89999993003E+02 0.  0.
         12    1    1    2    0    0  0.64025041430E+00  0.42354743491E+00 -0.89650439656E+00  0.11802682558E+01  0.00000000000E+00 0. -1.
         11    1    3    3    0    0  0.74136080361E+01 -0.26315447990E+01  0.22799275209E+01  0.81905239090E+01  0.51100000000E-03 0. -1.
        -11    1    3    3    0    0 -0.11413838789E+02  0.97598733533E+01  0.38374897508E+02  0.41208780651E+02  0.51100000000E-03 0.  1.
         12    1    3    3    0    0  0.33599803384E+01 -0.75518759892E+01 -0.39758320632E+02  0.40608427184E+02  0.00000000000E+00 0. -1.
</event>
<event>
 7    1  0.2090370E-015  0.9000782E+02  0.7816164E-02  0.1186339E+00
        -11   -1    0    0    0    0  0.00000000000E+00  0.00000000000E+00  0.45593999997E+02  0.45594000000E+02  0.51100000000E-03 0.  1.
         11   -1    0    0    0    0 -0.00000000000E+00 -0.00000000000E+00 -0.45593999997E+02  0.45594000000E+02  0.51100000000E-03 0. -1.
    9900012    2    1    2    0    0 -0.11259214945E+00 -0.22486638429E+00  0.11530798910E+01  0.90007815642E+02  0.90000078009E+02 0.  0.
         12    1    1    2    0    0  0.11259214945E+00  0.22486638429E+00 -0.11530798910E+01  0.11801843576E+01  0.00000000000E+00 0. -1.
         11    1    3    3    0    0  0.62216663195E+01 -0.66823452120E+01 -0.40564687444E+01  0.99908862599E+01  0.51100000000E-03 0. -1.
        -11    1    3    3    0    0 -0.30464181623E+02 -0.13304482868E+02 -0.20963454467E+02  0.39300662205E+02  0.51100000000E-03 0.  1.
         12    1    3    3    0    0  0.24129923154E+02  0.19761961696E+02  0.26173003102E+02  0.40716267177E+02  0.00000000000E+00 0. -1.
</event>
<event>
 7    1  0.2090370E-015  0.9000785E+02  0.7816164E-02  0.1186339E+00
        -11   -1    0    0    0    0  0.00000000000E+00  0.00000000000E+00  0.45593999997E+02  0.45594000000E+02  0.51100000000E-03 0. -1.
         11   -1    0    0    0    0 -0.00000000000E+00 -0.00000000000E+00 -0.45593999997E+02  0.45594000000E+02  0.51100000000E-03 0.  1.
    9900012    2    1    2    0    0 -0.57378925268E+00  0.88082558126E+00 -0.53634520192E+00  0.90007850015E+02  0.90000112835E+02 0.  0.
         12    1    1    2    0    0  0.57378925268E+00 -0.88082558126E+00  0.53634520192E+00  0.11801499848E+01  0.00000000000E+00 0. -1.
         11    1    3    3    0    0 -0.45767318617E+01  0.36025157993E+01  0.74725252774E+01  0.94743458297E+01  0.51100000000E-03 0. -1.
        -11    1    3    3    0    0  0.41109409553E+02 -0.71760835569E+01  0.22075389823E+01  0.41789388098E+02  0.51100000000E-03 0.  1.
         12    1    3    3    0    0 -0.37106466944E+02  0.44543933389E+01 -0.10216409462E+02  0.38744116087E+02  0.00000000000E+00 0. -1.
</event>
<event>
 7    1  0.2090370E-015  0.9000774E+02  0.7816164E-02  0.1186339E+00
        -11   -1    0    0    0    0  0.00000000000E+00  0.00000000000E+00  0.45593999997E+02  0.45594000000E+02  0.51100000000E-03 0.  1.
         11   -1    0    0    0    0 -0.00000000000E+00 -0.00000000000E+00 -0.45593999997E+02  0.45594000000E+02  0.51100000000E-03 0. -1.
    9900012    2    1    2    0    0  0.92695557431E+00 -0.49792715004E+00  0.53463457462E+00  0.90007740617E+02  0.90000001993E+02 0.  0.
         12    1    1    2    0    0 -0.92695557431E+00  0.49792715004E+00 -0.53463457462E+00  0.11802593833E+01  0.00000000000E+00 0. -1.
         11    1    3    3    0    0 -0.80103765863E+01  0.44644517661E+01  0.28560072502E+01  0.96049070949E+01  0.51100000000E-03 0. -1.
        -11    1    3    3    0    0 -0.24221375801E+02 -0.28777703946E+02  0.76352715161E+01  0.38381358255E+02  0.51100000000E-03 0.  1.
         12    1    3    3    0    0  0.33158707962E+02  0.23815325030E+02 -0.99566441917E+01  0.42021475266E+02  0.00000000000E+00 0. -1.
</event>
<event>
 7    1  0.2090370E-015  0.9000782E+02  0.7816164E-02  0.1186339E+00
        -11   -1    0    0    0    0  0.00000000000E+00  0.00000000000E+00  0.45593999997E+02  0.45594000000E+02  0.51100000000E-03 0. -1.
         11   -1    0    0    0    0 -0.00000000000E+00 -0.00000000000E+00 -0.45593999997E+02  0.45594000000E+02  0.51100000000E-03 0.  1.
    9900012    2    1    2    0    0 -0.90685512913E+00 -0.75325689162E+00 -0.55129453335E-01  0.90007821443E+02  0.90000083886E+02 0.  0.
         12    1    1    2    0    0  0.90685512913E+00  0.75325689162E+00  0.55129453335E-01  0.11801785571E+01  0.00000000000E+00 0. -1.
         11    1    3    3    0    0  0.36679604105E+02  0.22617057690E+01  0.35970782676E+01  0.36924891911E+02  0.51100000000E-03 0. -1.
        -11    1    3    3    0    0  0.63433225695E+01  0.43761512562E+01 -0.36701407427E+01  0.85357117085E+01  0.51100000000E-03 0.  1.
        -12    1    3    3    0    0 -0.43929781804E+02 -0.73911139168E+01  0.17933021762E-01  0.44547217824E+02  0.00000000000E+00 0.  1.
</event>
<event>
 7    1  0.2090370E-015  0.9000781E+02  0.7816164E-02  0.1186339E+00
        -11   -1    0    0    0    0  0.00000000000E+00  0.00000000000E+00  0.45593999997E+02  0.45594000000E+02  0.51100000000E-03 0.  1.
         11   -1    0    0    0    0 -0.00000000000E+00 -0.00000000000E+00 -0.45593999997E+02  0.45594000000E+02  0.51100000000E-03 0. -1.
    9900012    2    1    2    0    0  0.11684579437E+01  0.15632990384E+00 -0.55823896093E-01  0.90007809629E+02  0.90000071916E+02 0.  0.
         12    1    1    2    0    0 -0.11684579437E+01 -0.15632990384E+00  0.55823896093E-01  0.11801903712E+01  0.00000000000E+00 0. -1.
         11    1    3    3    0    0 -0.28683236623E+02  0.46289132456E+01  0.20268022274E+02  0.35425239987E+02  0.51100000000E-03 0. -1.
        -11    1    3    3    0    0  0.25335224914E+01 -0.19037696919E+02 -0.41301482200E+01  0.19644611596E+02  0.51100000000E-03 0.  1.
        -12    1    3    3    0    0  0.27318172075E+02  0.14565113577E+02 -0.16193697950E+02  0.34937958045E+02  0.00000000000E+00 0.  1.
</event>
<event>
 7    1  0.2090370E-015  0.9000774E+02  0.7816164E-02  0.1186339E+00
        -11   -1    0    0    0    0  0.00000000000E+00  0.00000000000E+00  0.45593999997E+02  0.45594000000E+02  0.51100000000E-03 0.  1.
         11   -1    0    0    0    0 -0.00000000000E+00 -0.00000000000E+00 -0.45593999997E+02  0.45594000000E+02  0.51100000000E-03 0. -1.
    9900012    2    1    2    0    0  0.70072143089E+00  0.42494913530E+00  0.84936475934E+00  0.90007740374E+02  0.90000001747E+02 0.  0.
         12    1    1    2    0    0 -0.70072143089E+00 -0.42494913530E+00 -0.84936475934E+00  0.11802596264E+01  0.00000000000E+00 0. -1.
         11    1    3    3    0    0 -0.30426002040E+01  0.30595962041E+02 -0.13093188555E+02  0.33418586087E+02  0.51100000000E-03 0. -1.
        -11    1    3    3    0    0  0.46253699116E+00  0.10279390251E+02  0.12211894681E+02  0.15969038054E+02  0.51100000000E-03 0.  1.
        -12    1    3    3    0    0  0.32807846437E+01 -0.40450403157E+02  0.17306586335E+01  0.40620116233E+02  0.00000000000E+00 0.  1.
</event>
<event>
 7    1  0.2090370E-015  0.9000776E+02  0.7816164E-02  0.1186339E+00
        -11   -1    0    0    0    0  0.00000000000E+00  0.00000000000E+00  0.45593999997E+02  0.45594000000E+02  0.51100000000E-03 0.  1.
         11   -1    0    0    0    0 -0.00000000000E+00 -0.00000000000E+00 -0.45593999997E+02  0.45594000000E+02  0.51100000000E-03 0. -1.
    9900012    2    1    2    0    0  0.26861011382E+00 -0.38981049053E+00  0.10811362666E+01  0.90007763058E+02  0.90000024731E+02 0.  0.
         12    1    1    2    0    0 -0.26861011382E+00  0.38981049053E+00 -0.10811362666E+01  0.11802369418E+01  0.00000000000E+00 0. -1.
         11    1    3    3    0    0 -0.19221099918E+02 -0.19744742714E+02 -0.11947239026E+02  0.30034015175E+02  0.51100000000E-03 0. -1.
        -11    1    3    3    0    0 -0.44738222425E+01 -0.13216222858E+02  0.13667952443E+02  0.19531936830E+02  0.51100000000E-03 0.  1.
        -12    1    3    3    0    0  0.23963532274E+02  0.32571155082E+02 -0.63957715052E+00  0.40441811054E+02  0.00000000000E+00 0.  1.
</event>
<event>
 7    1  0.2090370E-015  0.9000770E+02  0.7816164E-02  0.1186339E+00
        -11   -1    0    0    0    0  0.00000000000E+00  0.00000000000E+00  0.45593999997E+02  0.45594000000E+02  0.51100000000E-03 0.  1.
         11   -1    0    0    0    0 -0.00000000000E+00 -0.00000000000E+00 -0.45593999997E+02  0.45594000000E+02  0.51100000000E-03 0. -1.
    9900012    2    1    2    0    0 -0.79606018322E+00  0.63783240784E+00  0.59376788995E+00  0.90007702452E+02  0.89999963324E+02 0.  0.
         12    1    1    2    0    0  0.79606018322E+00 -0.63783240784E+00 -0.59376788995E+00  0.11802975485E+01  0.00000000000E+00 0. -1.
         11    1    3    3    0    0 -0.29966469283E+01 -0.57185560197E+01 -0.74317512363E+01  0.98444249433E+01  0.51100000000E-03 0. -1.
        -11    1    3    3    0    0  0.74876451427E+01 -0.32371676432E+02 -0.13119990971E+02  0.35722883816E+02  0.51100000000E-03 0.  1.
         12    1    3    3    0    0 -0.52870583976E+01  0.38728064859E+02  0.21145510098E+02  0.44440393692E+02  0.00000000000E+00 0. -1.
</event>
<event>
 7    1  0.2090370E-015  0.9000764E+02  0.7816164E-02  0.1186339E+00
        -11   -1    0    0    0    0  0.00000000000E+00  0.00000000000E+00  0.45593999997E+02  0.45594000000E+02  0.51100000000E-03 0.  1.
         11   -1    0    0    0    0 -0.00000000000E+00 -0.00000000000E+00 -0.45593999997E+02  0.45594000000E+02  0.51100000000E-03 0. -1.
    9900012    2    1    2    0    0 -0.10907499941E+01  0.17013681391E+00  0.41780589307E+00  0.90007642491E+02  0.89999902572E+02 0.  0.
         12    1    1    2    0    0  0.10907499941E+01 -0.17013681391E+00 -0.41780589307E+00  0.11803575091E+01  0.00000000000E+00 0. -1.
         11    1    3    3    0    0 -0.13497790485E+02 -0.17243305638E+02  0.22988646821E+02  0.31749012901E+02  0.51100000000E-03 0. -1.
        -11    1    3    3    0    0  0.80398688400E+00  0.32437201923E+01  0.15582787647E+02  0.15937107225E+02  0.51100000000E-03 0.  1.
        -12    1    3    3    0    0  0.11603053607E+02  0.14169722259E+02 -0.38153628574E+02  0.42321522365E+02  0.00000000000E+00 0.  1.
</event>
<event>
 7    1  0.2090370E-015  0.9000777E+02  0.7816164E-02  0.1186339E+00
        -11   -1    0    0    0    0  0.00000000000E+00  0.00000000000E+00  0.45593999997E+02  0.45594000000E+02  0.51100000000E-03 0.  1.
         11   -1    0    0    0    0 -0.00000000000E+00 -0.00000000000E+00 -0.45593999997E+02  0.45594000000E+02  0.51100000000E-03 0. -1.
    9900012    2    1    2    0    0 -0.18787488541E-01  0.53055096430E+00  0.10540941528E+01  0.90007766219E+02  0.90000027933E+02 0.  0.
         12    1    1    2    0    0  0.18787488541E-01 -0.53055096430E+00 -0.10540941528E+01  0.11802337813E+01  0.00000000000E+00 0. -1.
         11    1    3    3    0    0  0.31499989596E+01 -0.23276189353E+02  0.30192017575E+02  0.38252600039E+02  0.51100000000E-03 0. -1.
        -11    1    3    3    0    0 -0.39995400496E+01  0.43368589765E+01  0.79258508532E+01  0.98804746040E+01  0.51100000000E-03 0.  1.
        -12    1    3    3    0    0  0.83075360151E+00  0.19469881341E+02 -0.37063774275E+02  0.41874691575E+02  0.00000000000E+00 0.  1.
</event>
<event>
 7    1  0.2090370E-015  0.9000747E+02  0.7816164E-02  0.1186340E+00
        -11   -1    0    0    0    0  0.00000000000E+00  0.00000000000E+00  0.45593999997E+02  0.45594000000E+02  0.51100000000E-03 0. -1.
         11   -1    0    0    0    0 -0.00000000000E+00 -0.00000000000E+00 -0.45593999997E+02  0.45594000000E+02  0.51100000000E-03 0.  1.
    9900012    2    1    2    0    0  0.64337808490E+00 -0.98889260414E+00 -0.42645042304E-01  0.90007465146E+02  0.89999722885E+02 0.  0.
         12    1    1    2    0    0 -0.64337808490E+00  0.98889260414E+00  0.42645042304E-01  0.11805348543E+01  0.00000000000E+00 0. -1.
         11    1    3    3    0    0 -0.11864189572E+01 -0.28757158399E+02  0.34367887107E+02  0.44827819639E+02  0.51100000000E-03 0. -1.
        -11    1    3    3    0    0  0.38640534526E+01  0.45911067510E+01 -0.75269745664E+01  0.96262410456E+01  0.51100000000E-03 0.  1.
        -12    1    3    3    0    0 -0.20342564105E+01  0.23177159044E+02 -0.26883557582E+02  0.35553404461E+02  0.00000000000E+00 0.  1.
</event>
<event>
 7    1  0.2090370E-015  0.9000769E+02  0.7816164E-02  0.1186339E+00
        -11   -1    0    0    0    0  0.00000000000E+00  0.00000000000E+00  0.45593999997E+02  0.45594000000E+02  0.51100000000E-03 0.  1.
         11   -1    0    0    0    0 -0.00000000000E+00 -0.00000000000E+00 -0.45593999997E+02  0.45594000000E+02  0.51100000000E-03 0. -1.
    9900012    2    1    2    0    0 -0.43136457100E+00 -0.31161993120E-01  0.10982239652E+01  0.90007685491E+02  0.89999946139E+02 0.  0.
         12    1    1    2    0    0  0.43136457100E+00  0.31161993120E-01 -0.10982239652E+01  0.11803145092E+01  0.00000000000E+00 0. -1.
         11    1    3    3    0    0  0.72037956841E+01  0.49002043047E+01  0.40162589256E+01  0.95935921586E+01  0.51100000000E-03 0. -1.
        -11    1    3    3    0    0  0.29560483717E+02 -0.20367961652E+02  0.11412702873E+02  0.37668632130E+02  0.51100000000E-03 0.  1.
         12    1    3    3    0    0 -0.37195643972E+02  0.15436595354E+02 -0.14330737833E+02  0.42745461203E+02  0.00000000000E+00 0. -1.
</event>
<event>
 7    1  0.2090370E-015  0.9000793E+02  0.7816164E-02  0.1186339E+00
        -11   -1    0    0    0    0  0.00000000000E+00  0.00000000000E+00  0.45593999997E+02  0.45594000000E+02  0.51100000000E-03 0. -1.
         11   -1    0    0    0    0 -0.00000000000E+00 -0.00000000000E+00 -0.45593999997E+02  0.45594000000E+02  0.51100000000E-03 0.  1.
    9900012    2    1    2    0    0  0.49172469008E+00 -0.73228251382E+00 -0.78391699498E+00  0.90007933601E+02  0.90000197524E+02 0.  0.
         12    1    1    2    0    0 -0.49172469008E+00  0.73228251382E+00  0.78391699498E+00  0.11800663989E+01  0.00000000000E+00 0. -1.
         11    1    3    3    0    0 -0.26235365762E+02 -0.16412024090E+02  0.11606109146E+02  0.33050729511E+02  0.51100000000E-03 0. -1.
        -11    1    3    3    0    0 -0.12770605571E+02 -0.41949951991E+00 -0.47137556059E+01  0.13619245158E+02  0.51100000000E-03 0.  1.
        -12    1    3    3    0    0  0.39497696024E+02  0.16099241096E+02 -0.76762705354E+01  0.43337958932E+02  0.00000000000E+00 0.  1.
</event>
<event>
 7    1  0.2090370E-015  0.9000731E+02  0.7816164E-02  0.1186340E+00
        -11   -1    0    0    0    0  0.00000000000E+00  0.00000000000E+00  0.45593999997E+02  0.45594000000E+02  0.51100000000E-03 0. -1.
         11   -1    0    0    0    0 -0.00000000000E+00 -0.00000000000E+00 -0.45593999997E+02  0.45594000000E+02  0.51100000000E-03 0.  1.
    9900012    2    1    2    0    0 -0.99670610238E-01  0.11321989469E+01 -0.31970300975E+00  0.90007314309E+02  0.89999570057E+02 0.  0.
         12    1    1    2    0    0  0.99670610238E-01 -0.11321989469E+01  0.31970300975E+00  0.11806856907E+01  0.00000000000E+00 0. -1.
         11    1    3    3    0    0  0.33064370295E+02  0.14534518704E+02 -0.23850676491E+02  0.43282324179E+02  0.51100000000E-03 0. -1.
        -11    1    3    3    0    0 -0.18489922981E+00 -0.58945682176E+01  0.67648275235E+01  0.89745759722E+01  0.51100000000E-03 0.  1.
        -12    1    3    3    0    0 -0.32979141676E+02 -0.75077515396E+01  0.16766145957E+02  0.37750414158E+02  0.00000000000E+00 0.  1.
</event>
<event>
 7    1  0.2090370E-015  0.9000780E+02  0.7816164E-02  0.1186339E+00
        -11   -1    0    0    0    0  0.00000000000E+00  0.00000000000E+00  0.45593999997E+02  0.45594000000E+02  0.51100000000E-03 0.  1.
         11   -1    0    0    0    0 -0.00000000000E+00 -0.00000000000E+00 -0.45593999997E+02  0.45594000000E+02  0.51100000000E-03 0. -1.
    9900012    2    1    2    0    0  0.34034022044E+00  0.13526615223E+00  0.11219352349E+01  0.90007802106E+02  0.90000064294E+02 0.  0.
         12    1    1    2    0    0 -0.34034022044E+00 -0.13526615223E+00 -0.11219352349E+01  0.11801978940E+01  0.00000000000E+00 0. -1.
         11    1    3    3    0    0  0.78354380492E+01 -0.23831619777E+01  0.19430689270E+02  0.21086138485E+02  0.51100000000E-03 0. -1.
        -11    1    3    3    0    0  0.16643773592E+02  0.19206688347E+02  0.10775593980E+02  0.27604809409E+02  0.51100000000E-03 0.  1.
         12    1    3    3    0    0 -0.24138871420E+02 -0.16688260217E+02 -0.29084348015E+02  0.41316854212E+02  0.00000000000E+00 0. -1.
</event>
<event>
 7    1  0.2090370E-015  0.9000772E+02  0.7816164E-02  0.1186339E+00
        -11   -1    0    0    0    0  0.00000000000E+00  0.00000000000E+00  0.45593999997E+02  0.45594000000E+02  0.51100000000E-03 0.  1.
         11   -1    0    0    0    0 -0.00000000000E+00 -0.00000000000E+00 -0.45593999997E+02  0.45594000000E+02  0.51100000000E-03 0. -1.
    9900012    2    1    2    0    0 -0.72413291642E+00 -0.42438132839E+00 -0.82981110837E+00  0.90007722716E+02  0.89999983855E+02 0.  0.
         12    1    1    2    0    0  0.72413291642E+00  0.42438132839E+00  0.82981110837E+00  0.11802772844E+01  0.00000000000E+00 0. -1.
         11    1    3    3    0    0 -0.17047523986E+02  0.29253261818E+02 -0.19437478674E+02  0.39040837318E+02  0.51100000000E-03 0. -1.
        -11    1    3    3    0    0  0.60803105695E+01  0.12757341348E+01 -0.71090559918E+01  0.94412049845E+01  0.51100000000E-03 0.  1.
        -12    1    3    3    0    0  0.10243080500E+02 -0.30953377281E+02  0.25716723558E+02  0.41525680413E+02  0.00000000000E+00 0.  1.
</event>
<event>
 7    1  0.2090370E-015  0.9000779E+02  0.7816164E-02  0.1186339E+00
        -11   -1    0    0    0    0  0.00000000000E+00  0.00000000000E+00  0.45593999997E+02  0.45594000000E+02  0.51100000000E-03 0.  1.
         11   -1    0    0    0    0 -0.00000000000E+00 -0.00000000000E+00 -0.45593999997E+02  0.45594000000E+02  0.51100000000E-03 0. -1.
    9900012    2    1    2    0    0 -0.11502753364E+01  0.39453000206E-01  0.26114700911E+00  0.90007793387E+02  0.90000055460E+02 0.  0.
         12    1    1    2    0    0  0.11502753364E+01 -0.39453000206E-01 -0.26114700911E+00  0.11802066129E+01  0.00000000000E+00 0. -1.
         11    1    3    3    0    0 -0.49631232555E+01 -0.23129278857E+02  0.24345794163E+02  0.33945748284E+02  0.51100000000E-03 0. -1.
        -11    1    3    3    0    0  0.43649405726E+00  0.63055333818E+01  0.13402541753E+02  0.14818178160E+02  0.51100000000E-03 0.  1.
        -12    1    3    3    0    0  0.33763538619E+01  0.16863198476E+02 -0.37487188907E+02  0.41243866942E+02  0.00000000000E+00 0.  1.
</event>
<event>
 7    1  0.2090370E-015  0.9000772E+02  0.7816164E-02  0.1186339E+00
        -11   -1    0    0    0    0  0.00000000000E+00  0.00000000000E+00  0.45593999997E+02  0.45594000000E+02  0.51100000000E-03 0. -1.
         11   -1    0    0    0    0 -0.00000000000E+00 -0.00000000000E+00 -0.45593999997E+02  0.45594000000E+02  0.51100000000E-03 0.  1.
    9900012    2    1    2    0    0  0.48114564926E+00 -0.97340647278E+00 -0.46265686378E+00  0.90007715004E+02  0.89999976043E+02 0.  0.
         12    1    1    2    0    0 -0.48114564926E+00  0.97340647278E+00  0.46265686378E+00  0.11802849955E+01  0.00000000000E+00 0. -1.
         11    1    3    3    0    0  0.50504620305E+01  0.32395038728E+01 -0.66806692308E+01  0.89795820446E+01  0.51100000000E-03 0. -1.
        -11    1    3    3    0    0 -0.25062289065E+02  0.93101518920E+01 -0.28129093975E+02  0.38807772282E+02  0.51100000000E-03 0.  1.
         12    1    3    3    0    0  0.20492972683E+02 -0.13523062238E+02  0.34347106342E+02  0.42220360678E+02  0.00000000000E+00 0. -1.
</event>
<event>
 7    1  0.2090370E-015  0.9000787E+02  0.7816164E-02  0.1186339E+00
        -11   -1    0    0    0    0  0.00000000000E+00  0.00000000000E+00  0.45593999997E+02  0.45594000000E+02  0.51100000000E-03 0.  1.
         11   -1    0    0    0    0 -0.00000000000E+00 -0.00000000000E+00 -0.45593999997E+02  0.45594000000E+02  0.51100000000E-03 0. -1.
    9900012    2    1    2    0    0 -0.58728154423E+00 -0.31645586413E+00  0.97348319453E+00  0.90007867187E+02  0.90000130234E+02 0.  0.
         12    1    1    2    0    0  0.58728154423E+00  0.31645586413E+00 -0.97348319453E+00  0.11801328129E+01  0.00000000000E+00 0. -1.
         11    1    3    3    0    0  0.29019216041E+02 -0.98021205329E+01 -0.17465667307E+02  0.35259693721E+02  0.51100000000E-03 0. -1.
        -11    1    3    3    0    0  0.99106353019E+01  0.12768411225E+01 -0.82342678600E+00  0.10026417469E+02  0.51100000000E-03 0.  1.
        -12    1    3    3    0    0 -0.39517132887E+02  0.82088235463E+01  0.19262577287E+02  0.44721755996E+02  0.00000000000E+00 0.  1.
</event>
<event>
 7    1  0.2090370E-015  0.9000776E+02  0.7816164E-02  0.1186339E+00
        -11   -1    0    0    0    0  0.00000000000E+00  0.00000000000E+00  0.45593999997E+02  0.45594000000E+02  0.51100000000E-03 0. -1.
         11   -1    0    0    0    0 -0.00000000000E+00 -0.00000000000E+00 -0.45593999997E+02  0.45594000000E+02  0.51100000000E-03 0.  1.
    9900012    2    1    2    0    0 -0.11061146339E+01 -0.17824101435E+00 -0.37107675367E+00  0.90007763837E+02  0.90000025520E+02 0.  0.
         12    1    1    2    0    0  0.11061146339E+01  0.17824101435E+00  0.37107675367E+00  0.11802361626E+01  0.00000000000E+00 0. -1.
         11    1    3    3    0    0  0.58713692565E+01 -0.57350567609E+01  0.36112906884E+01  0.89668987780E+01  0.51100000000E-03 0. -1.
        -11    1    3    3    0    0 -0.30772417839E+02  0.22741701404E+02 -0.24313831975E+02  0.45335296492E+02  0.51100000000E-03 0.  1.
         12    1    3    3    0    0  0.23794933948E+02 -0.17184885658E+02  0.20331464533E+02  0.35705568568E+02  0.00000000000E+00 0. -1.
</event>
<event>
 7    1  0.2090370E-015  0.9000792E+02  0.7816164E-02  0.1186339E+00
        -11   -1    0    0    0    0  0.00000000000E+00  0.00000000000E+00  0.45593999997E+02  0.45594000000E+02  0.51100000000E-03 0.  1.
         11   -1    0    0    0    0 -0.00000000000E+00 -0.00000000000E+00 -0.45593999997E+02  0.45594000000E+02  0.51100000000E-03 0. -1.
    9900012    2    1    2    0    0 -0.34314958027E+00 -0.58708206345E+00 -0.96445205448E+00  0.90007921719E+02  0.90000185486E+02 0.  0.
         12    1    1    2    0    0  0.34314958027E+00  0.58708206345E+00  0.96445205448E+00  0.11800782809E+01  0.00000000000E+00 0. -1.
         11    1    3    3    0    0 -0.27027197135E+01 -0.79519528265E+01 -0.32651289500E+02  0.33714165478E+02  0.51100000000E-03 0. -1.
        -11    1    3    3    0    0 -0.16356044012E+02  0.10717351899E+02  0.25224180044E+00  0.19556212149E+02  0.51100000000E-03 0.  1.
        -12    1    3    3    0    0  0.18715614145E+02 -0.33524811356E+01  0.31434595645E+02  0.36737544092E+02  0.00000000000E+00 0.  1.
</event>
<event>
 7    1  0.2180321E-015  0.9000779E+02  0.7816164E-02  0.1186339E+00
        -11   -1    0    0    0    0  0.00000000000E+00  0.00000000000E+00  0.45593999997E+02  0.45594000000E+02  0.51100000000E-03 0. -1.
         11   -1    0    0    0    0 -0.00000000000E+00 -0.00000000000E+00 -0.45593999997E+02  0.45594000000E+02  0.51100000000E-03 0.  1.
    9900012    2    1    2    0    0 -0.54711963903E+00  0.42252234475E+00 -0.95656743257E+00  0.90007793965E+02  0.90000056046E+02 0.  0.
         12    1    1    2    0    0  0.54711963903E+00 -0.42252234475E+00  0.95656743257E+00  0.11802060347E+01  0.00000000000E+00 0. -1.
         11    1    3    3    0    0  0.23736778300E+02 -0.14113782883E+02  0.21968908125E+02  0.35288332856E+02  0.51100000000E-03 0. -1.
        -11    1    3    3    0    0  0.64561027817E+01 -0.45957793615E+00  0.68121712923E+01  0.93967096892E+01  0.51100000000E-03 0.  1.
        -12    1    3    3    0    0 -0.30740000720E+02  0.14995883164E+02 -0.29737646850E+02  0.45322751420E+02  0.00000000000E+00 0.  1.
</event>
<event>
 7    1  0.2090370E-015  0.9000771E+02  0.7816164E-02  0.1186339E+00
        -11   -1    0    0    0    0  0.00000000000E+00  0.00000000000E+00  0.45593999997E+02  0.45594000000E+02  0.51100000000E-03 0.  1.
         11   -1    0    0    0    0 -0.00000000000E+00 -0.00000000000E+00 -0.45593999997E+02  0.45594000000E+02  0.51100000000E-03 0. -1.
    9900012    2    1    2    0    0 -0.18141477997E+00 -0.11527211317E+01 -0.17720932307E+00  0.90007711699E+02  0.89999972693E+02 0.  0.
         12    1    1    2    0    0  0.18141477997E+00  0.11527211317E+01  0.17720932307E+00  0.11802883013E+01  0.00000000000E+00 0. -1.
         11    1    3    3    0    0 -0.23755614677E+01 -0.30038905897E+01  0.10265413344E+02  0.10956521453E+02  0.51100000000E-03 0. -1.
        -11    1    3    3    0    0 -0.17128354280E+02 -0.28161143778E+02  0.13977869489E+02  0.35802393424E+02  0.51100000000E-03 0.  1.
         12    1    3    3    0    0  0.19322500967E+02  0.30012313236E+02 -0.24420492156E+02  0.43248796822E+02  0.00000000000E+00 0. -1.
</event>
<event>
 7    1  0.2090370E-015  0.9000772E+02  0.7816164E-02  0.1186339E+00
        -11   -1    0    0    0    0  0.00000000000E+00  0.00000000000E+00  0.45593999997E+02  0.45594000000E+02  0.51100000000E-03 0. -1.
         11   -1    0    0    0    0 -0.00000000000E+00 -0.00000000000E+00 -0.45593999997E+02  0.45594000000E+02  0.51100000000E-03 0.  1.
    9900012    2    1    2    0    0  0.87399676512E+00  0.39834769438E+00 -0.68593199817E+00  0.90007722941E+02  0.89999984083E+02 0.  0.
         12    1    1    2    0    0 -0.87399676512E+00 -0.39834769438E+00  0.68593199817E+00  0.11802770595E+01  0.00000000000E+00 0. -1.
         11    1    3    3    0    0 -0.18639719422E+01 -0.59570019735E+01  0.75099164486E+01  0.97651988838E+01  0.51100000000E-03 0. -1.
        -11    1    3    3    0    0 -0.31998804847E+02 -0.14799169435E+02 -0.16186647998E+02  0.38793639959E+02  0.51100000000E-03 0.  1.
         12    1    3    3    0    0  0.34736773554E+02  0.21154519103E+02  0.79907995517E+01  0.41448884097E+02  0.00000000000E+00 0. -1.
</event>
<event>
 7    1  0.2090370E-015  0.9000774E+02  0.7816164E-02  0.1186339E+00
        -11   -1    0    0    0    0  0.00000000000E+00  0.00000000000E+00  0.45593999997E+02  0.45594000000E+02  0.51100000000E-03 0.  1.
         11   -1    0    0    0    0 -0.00000000000E+00 -0.00000000000E+00 -0.45593999997E+02  0.45594000000E+02  0.51100000000E-03 0. -1.
    9900012    2    1    2    0    0 -0.17686194948E+00 -0.11032677780E+01  0.38018824684E+00  0.90007736029E+02  0.89999997344E+02 0.  0.
         12    1    1    2    0    0  0.17686194948E+00  0.11032677780E+01 -0.38018824684E+00  0.11802639714E+01  0.00000000000E+00 0. -1.
         11    1    3    3    0    0 -0.27302328576E+02  0.15317344318E+02 -0.14649779348E+02  0.34563770307E+02  0.51100000000E-03 0. -1.
        -11    1    3    3    0    0 -0.51038176137E+01  0.45569936892E+01 -0.80731815200E+01  0.10582599200E+02  0.51100000000E-03 0.  1.
        -12    1    3    3    0    0  0.32229284240E+02 -0.20977605786E+02  0.23103149114E+02  0.44861366521E+02  0.00000000000E+00 0.  1.
</event>
<event>
 7    1  0.2090370E-015  0.9000784E+02  0.7816164E-02  0.1186339E+00
        -11   -1    0    0    0    0  0.00000000000E+00  0.00000000000E+00  0.45593999997E+02  0.45594000000E+02  0.51100000000E-03 0.  1.
         11   -1    0    0    0    0 -0.00000000000E+00 -0.00000000000E+00 -0.45593999997E+02  0.45594000000E+02  0.51100000000E-03 0. -1.
    9900012    2    1    2    0    0  0.51079363549E+00 -0.15819543539E+00  0.10520650699E+01  0.90007840331E+02  0.90000103023E+02 0.  0.
         12    1    1    2    0    0 -0.51079363549E+00  0.15819543539E+00 -0.10520650699E+01  0.11801596693E+01  0.00000000000E+00 0. -1.
         11    1    3    3    0    0  0.11656198031E+02  0.33881227937E+02 -0.11385640105E+02  0.37595709328E+02  0.51100000000E-03 0. -1.
        -11    1    3    3    0    0  0.31399190255E+01  0.32243906579E+01 -0.67642369366E+01  0.81246961911E+01  0.51100000000E-03 0.  1.
        -12    1    3    3    0    0 -0.14285323421E+02 -0.37263814030E+02  0.19201942111E+02  0.44287434811E+02  0.00000000000E+00 0.  1.
</event>
<event>
 7    1  0.2090370E-015  0.9000767E+02  0.7816164E-02  0.1186339E+00
        -11   -1    0    0    0    0  0.00000000000E+00  0.00000000000E+00  0.45593999997E+02  0.45594000000E+02  0.51100000000E-03 0.  1.
         11   -1    0    0    0    0 -0.00000000000E+00 -0.00000000000E+00 -0.45593999997E+02  0.45594000000E+02  0.51100000000E-03 0. -1.
    9900012    2    1    2    0    0  0.85269290797E+00  0.79323529489E+00 -0.19199378160E+00  0.90007674180E+02  0.89999934680E+02 0.  0.
         12    1    1    2    0    0 -0.85269290797E+00 -0.79323529489E+00  0.19199378160E+00  0.11803258196E+01  0.00000000000E+00 0. -1.
         11    1    3    3    0    0 -0.44556146572E+01  0.10787363438E+01  0.69684553104E+01  0.83411955826E+01  0.51100000000E-03 0. -1.
        -11    1    3    3    0    0  0.11888283305E+02  0.14159184026E+02  0.33364151724E+02  0.38144205232E+02  0.51100000000E-03 0.  1.
         12    1    3    3    0    0 -0.65799757398E+01 -0.14444685075E+02 -0.40524600816E+02  0.43522273366E+02  0.00000000000E+00 0. -1.
</event>
<event>
 7    1  0.2090370E-015  0.9000779E+02  0.7816164E-02  0.1186339E+00
        -11   -1    0    0    0    0  0.00000000000E+00  0.00000000000E+00  0.45593999997E+02  0.45594000000E+02  0.51100000000E-03 0. -1.
         11   -1    0    0    0    0 -0.00000000000E+00 -0.00000000000E+00 -0.45593999997E+02  0.45594000000E+02  0.51100000000E-03 0.  1.
    9900012    2    1    2    0    0 -0.42428154434E+00 -0.54146502210E+00  0.95900801598E+00  0.90007790030E+02  0.90000052058E+02 0.  0.
         12    1    1    2    0    0  0.42428154434E+00  0.54146502210E+00 -0.95900801598E+00  0.11802099702E+01  0.00000000000E+00 0. -1.
         11    1    3    3    0    0  0.14844690145E+02  0.11268638909E+02  0.30903221557E+02  0.36088171902E+02  0.51100000000E-03 0. -1.
        -11    1    3    3    0    0  0.15815580878E+01  0.84008475475E+01  0.52076474462E+01  0.10009753128E+02  0.51100000000E-03 0.  1.
        -12    1    3    3    0    0 -0.16850529777E+02 -0.20210951479E+02 -0.35151860987E+02  0.43909865000E+02  0.00000000000E+00 0.  1.
</event>
<event>
 7    1  0.2090370E-015  0.9000778E+02  0.7816164E-02  0.1186339E+00
        -11   -1    0    0    0    0  0.00000000000E+00  0.00000000000E+00  0.45593999997E+02  0.45594000000E+02  0.51100000000E-03 0. -1.
         11   -1    0    0    0    0 -0.00000000000E+00 -0.00000000000E+00 -0.45593999997E+02  0.45594000000E+02  0.51100000000E-03 0.  1.
    9900012    2    1    2    0    0  0.96970246135E+00  0.61911716247E+00  0.26322751464E+00  0.90007780678E+02  0.90000042583E+02 0.  0.
         12    1    1    2    0    0 -0.96970246135E+00 -0.61911716247E+00 -0.26322751464E+00  0.11802193224E+01  0.00000000000E+00 0. -1.
         11    1    3    3    0    0  0.35087832385E+02 -0.27043122468E+02  0.44366326246E+01  0.44521569645E+02  0.51100000000E-03 0. -1.
        -11    1    3    3    0    0 -0.41656250974E+01  0.27114543264E+01 -0.41933212771E+01  0.65029501467E+01  0.51100000000E-03 0.  1.
        -12    1    3    3    0    0 -0.29952504826E+02  0.24950785305E+02  0.19916167171E-01  0.38983260886E+02  0.00000000000E+00 0.  1.
</event>
<event>
 7    1  0.2090370E-015  0.9000803E+02  0.7816164E-02  0.1186338E+00
        -11   -1    0    0    0    0  0.00000000000E+00  0.00000000000E+00  0.45593999997E+02  0.45594000000E+02  0.51100000000E-03 0. -1.
         11   -1    0    0    0    0 -0.00000000000E+00 -0.00000000000E+00 -0.45593999997E+02  0.45594000000E+02  0.51100000000E-03 0.  1.
    9900012    2    1    2    0    0  0.10879781101E+01  0.87489123616E-01 -0.44830434635E+00  0.90008030720E+02  0.90000295925E+02 0.  0.
         12    1    1    2    0    0 -0.10879781101E+01 -0.87489123616E-01  0.44830434635E+00  0.11799692800E+01  0.00000000000E+00 0. -1.
         11    1    3    3    0    0 -0.99485436740E+01 -0.49876259066E+00 -0.16250888427E+02  0.19060788554E+02  0.51100000000E-03 0. -1.
        -11    1    3    3    0    0  0.39208883965E+02  0.37013564669E+01  0.20332573084E+01  0.39435653374E+02  0.51100000000E-03 0.  1.
         12    1    3    3    0    0 -0.28172362181E+02 -0.31151047526E+01  0.13769326773E+02  0.31511588793E+02  0.00000000000E+00 0. -1.
</event>
<event>
 7    1  0.2090370E-015  0.9000772E+02  0.7816164E-02  0.1186339E+00
        -11   -1    0    0    0    0  0.00000000000E+00  0.00000000000E+00  0.45593999997E+02  0.45594000000E+02  0.51100000000E-03 0. -1.
         11   -1    0    0    0    0 -0.00000000000E+00 -0.00000000000E+00 -0.45593999997E+02  0.45594000000E+02  0.51100000000E-03 0.  1.
    9900012    2    1    2    0    0 -0.50236658752E+00  0.61238815898E+00 -0.87502844673E+00  0.90007717734E+02  0.89999978808E+02 0.  0.
         12    1    1    2    0    0  0.50236658752E+00 -0.61238815898E+00  0.87502844673E+00  0.11802822663E+01  0.00000000000E+00 0. -1.
         11    1    3    3    0    0 -0.81114079168E+01  0.70507944673E+01 -0.13830041778E+01  0.10836112856E+02  0.51100000000E-03 0. -1.
        -11    1    3    3    0    0  0.14119824844E+02 -0.12369652728E+02 -0.36546088053E+02  0.41085207976E+02  0.51100000000E-03 0.  1.
         12    1    3    3    0    0 -0.65107835147E+01  0.59312464194E+01  0.37054063784E+02  0.38086396902E+02  0.00000000000E+00 0. -1.
</event>
<event>
 7    1  0.2090370E-015  0.9000787E+02  0.7816164E-02  0.1186339E+00
        -11   -1    0    0    0    0  0.00000000000E+00  0.00000000000E+00  0.45593999997E+02  0.45594000000E+02  0.51100000000E-03 0.  1.
         11   -1    0    0    0    0 -0.00000000000E+00 -0.00000000000E+00 -0.45593999997E+02  0.45594000000E+02  0.51100000000E-03 0. -1.
    9900012    2    1    2    0    0  0.96400337635E+00  0.34888259448E+00  0.58453736626E+00  0.90007870555E+02  0.90000133646E+02 0.  0.
         12    1    1    2    0    0 -0.96400337635E+00 -0.34888259448E+00 -0.58453736626E+00  0.11801294450E+01  0.00000000000E+00 0. -1.
         11    1    3    3    0    0  0.60569261344E+01 -0.67305425117E+01  0.10989136419E+01  0.91210837159E+01  0.51100000000E-03 0. -1.
        -11    1    3    3    0    0 -0.15256915446E+02 -0.30554834011E+02  0.17001267320E+02  0.38149894378E+02  0.51100000000E-03 0.  1.
         12    1    3    3    0    0  0.10163992688E+02  0.37634259117E+02 -0.17515643596E+02  0.42736892461E+02  0.00000000000E+00 0. -1.
</event>
<event>
 7    1  0.2090370E-015  0.9000776E+02  0.7816164E-02  0.1186339E+00
        -11   -1    0    0    0    0  0.00000000000E+00  0.00000000000E+00  0.45593999997E+02  0.45594000000E+02  0.51100000000E-03 0. -1.
         11   -1    0    0    0    0 -0.00000000000E+00 -0.00000000000E+00 -0.45593999997E+02  0.45594000000E+02  0.51100000000E-03 0.  1.
    9900012    2    1    2    0    0  0.11372927701E+01  0.21161949469E+00  0.23398283229E+00  0.90007760354E+02  0.90000021991E+02 0.  0.
         12    1    1    2    0    0 -0.11372927701E+01 -0.21161949469E+00 -0.23398283229E+00  0.11802396457E+01  0.00000000000E+00 0. -1.
         11    1    3    3    0    0  0.59941104761E+01 -0.31464017592E+01  0.59529444798E+01  0.90148074117E+01  0.51100000000E-03 0. -1.
        -11    1    3    3    0    0  0.26505897365E+01 -0.72759266743E+01 -0.41864660958E+02  0.42574811477E+02  0.51100000000E-03 0.  1.
         12    1    3    3    0    0 -0.75074074425E+01  0.10633947928E+02  0.36145699310E+02  0.38418141466E+02  0.00000000000E+00 0. -1.
</event>
<event>
 7    1  0.2090370E-015  0.9000789E+02  0.7816164E-02  0.1186339E+00
        -11   -1    0    0    0    0  0.00000000000E+00  0.00000000000E+00  0.45593999997E+02  0.45594000000E+02  0.51100000000E-03 0.  1.
         11   -1    0    0    0    0 -0.00000000000E+00 -0.00000000000E+00 -0.45593999997E+02  0.45594000000E+02  0.51100000000E-03 0. -1.
    9900012    2    1    2    0    0 -0.37709655716E+00  0.10655884530E+00  0.11131457803E+01  0.90007894018E+02  0.90000157419E+02 0.  0.
         12    1    1    2    0    0  0.37709655716E+00 -0.10655884530E+00 -0.11131457803E+01  0.11801059822E+01  0.00000000000E+00 0. -1.
         11    1    3    3    0    0 -0.27272927070E+02 -0.17305431404E+00 -0.26205482193E+02  0.37822873979E+02  0.51100000000E-03 0. -1.
        -11    1    3    3    0    0  0.22926506066E+01  0.86838358381E+01 -0.53341175106E+01  0.10445959101E+02  0.51100000000E-03 0.  1.
        -12    1    3    3    0    0  0.24603179907E+02 -0.84042226788E+01  0.32652745484E+02  0.41739060938E+02  0.00000000000E+00 0.  1.
</event>
<event>
 7    1  0.2090370E-015  0.9000778E+02  0.7816164E-02  0.1186339E+00
        -11   -1    0    0    0    0  0.00000000000E+00  0.00000000000E+00  0.45593999997E+02  0.45594000000E+02  0.51100000000E-03 0. -1.
         11   -1    0    0    0    0 -0.00000000000E+00 -0.00000000000E+00 -0.45593999997E+02  0.45594000000E+02  0.51100000000E-03 0.  1.
    9900012    2    1    2    0    0  0.56572486670E+00  0.46188248913E+00 -0.92711563005E+00  0.90007778220E+02  0.90000040092E+02 0.  0.
         12    1    1    2    0    0 -0.56572486670E+00 -0.46188248913E+00  0.92711563005E+00  0.11802217800E+01  0.00000000000E+00 0. -1.
         11    1    3    3    0    0  0.66737976896E+01 -0.48402374734E+01  0.49209806407E+01  0.96012251889E+01  0.51100000000E-03 0. -1.
        -11    1    3    3    0    0  0.24632672610E+02  0.26305132340E+02 -0.19225629640E+02  0.40845481790E+02  0.51100000000E-03 0.  1.
         12    1    3    3    0    0 -0.30740745433E+02 -0.21003012377E+02  0.13377533369E+02  0.39561071241E+02  0.00000000000E+00 0. -1.
</event>
<event>
 7    1  0.2090370E-015  0.9000774E+02  0.7816164E-02  0.1186339E+00
        -11   -1    0    0    0    0  0.00000000000E+00  0.00000000000E+00  0.45593999997E+02  0.45594000000E+02  0.51100000000E-03 0. -1.
         11   -1    0    0    0    0 -0.00000000000E+00 -0.00000000000E+00 -0.45593999997E+02  0.45594000000E+02  0.51100000000E-03 0.  1.
    9900012    2    1    2    0    0 -0.96306623887E+00 -0.61617040374E+00  0.29299777306E+00  0.90007741451E+02  0.90000002838E+02 0.  0.
         12    1    1    2    0    0  0.96306623887E+00  0.61617040374E+00 -0.29299777306E+00  0.11802585488E+01  0.00000000000E+00 0. -1.
         11    1    3    3    0    0  0.12143093148E+02  0.67941736484E+01 -0.98303908124E+01  0.17036786392E+02  0.51100000000E-03 0. -1.
        -11    1    3    3    0    0 -0.11033533677E+02  0.48528666902E+01 -0.29273280250E+02  0.31657765515E+02  0.51100000000E-03 0.  1.
         12    1    3    3    0    0 -0.20726257102E+01 -0.12263210742E+02  0.39396668836E+02  0.41313189545E+02  0.00000000000E+00 0. -1.
</event>
<event>
 7    1  0.2090370E-015  0.9000787E+02  0.7816164E-02  0.1186339E+00
        -11   -1    0    0    0    0  0.00000000000E+00  0.00000000000E+00  0.45593999997E+02  0.45594000000E+02  0.51100000000E-03 0. -1.
         11   -1    0    0    0    0 -0.00000000000E+00 -0.00000000000E+00 -0.45593999997E+02  0.45594000000E+02  0.51100000000E-03 0.  1.
    9900012    2    1    2    0    0 -0.81811731639E+00 -0.36271799097E+00 -0.76930042320E+00  0.90007871437E+02  0.90000134540E+02 0.  0.
         12    1    1    2    0    0  0.81811731639E+00  0.36271799097E+00  0.76930042320E+00  0.11801285631E+01  0.00000000000E+00 0. -1.
         11    1    3    3    0    0 -0.82477011212E+01 -0.59068781427E+01 -0.31369321177E+01  0.10618668775E+02  0.51100000000E-03 0. -1.
        -11    1    3    3    0    0  0.40394437678E+01  0.28494876779E+02 -0.28680618540E+02  0.40630690232E+02  0.51100000000E-03 0.  1.
         12    1    3    3    0    0  0.33901400371E+01 -0.22950716627E+02  0.31048250235E+02  0.38758512430E+02  0.00000000000E+00 0. -1.
</event>
<event>
 7    1  0.2090370E-015  0.9000766E+02  0.7816164E-02  0.1186339E+00
        -11   -1    0    0    0    0  0.00000000000E+00  0.00000000000E+00  0.45593999997E+02  0.45594000000E+02  0.51100000000E-03 0. -1.
         11   -1    0    0    0    0 -0.00000000000E+00 -0.00000000000E+00 -0.45593999997E+02  0.45594000000E+02  0.51100000000E-03 0.  1.
    9900012    2    1    2    0    0 -0.31208931191E+00  0.62300002297E+00 -0.95272384247E+00  0.90007656200E+02  0.89999916461E+02 0.  0.
         12    1    1    2    0    0  0.31208931191E+00 -0.62300002297E+00  0.95272384247E+00  0.11803438004E+01  0.00000000000E+00 0. -1.
         11    1    3    3    0    0 -0.95635209294E+01 -0.58656591395E+01 -0.68532113236E+01  0.13146611556E+02  0.51100000000E-03 0. -1.
        -11    1    3    3    0    0 -0.13841800833E+01  0.36868369874E+02 -0.13490890561E+02  0.39283543375E+02  0.51100000000E-03 0.  1.
         12    1    3    3    0    0  0.10635611701E+02 -0.30379710712E+02  0.19391378042E+02  0.37577501268E+02  0.00000000000E+00 0. -1.
</event>
<event>
 7    1  0.2090370E-015  0.9000776E+02  0.7816164E-02  0.1186339E+00
        -11   -1    0    0    0    0  0.00000000000E+00  0.00000000000E+00  0.45593999997E+02  0.45594000000E+02  0.51100000000E-03 0. -1.
         11   -1    0    0    0    0 -0.00000000000E+00 -0.00000000000E+00 -0.45593999997E+02  0.45594000000E+02  0.51100000000E-03 0.  1.
    9900012    2    1    2    0    0  0.63421391134E+00  0.33890121754E+00 -0.93588275085E+00  0.90007763649E+02  0.90000025329E+02 0.  0.
         12    1    1    2    0    0 -0.63421391134E+00 -0.33890121754E+00  0.93588275085E+00  0.11802363509E+01  0.00000000000E+00 0. -1.
         11    1    3    3    0    0  0.90753998888E+01 -0.49691417756E+01 -0.20740942775E+01  0.10552588330E+02  0.51100000000E-03 0. -1.
        -11    1    3    3    0    0  0.33126704692E+02  0.15247617410E+02 -0.25512522842E+01  0.36556494483E+02  0.51100000000E-03 0.  1.
         12    1    3    3    0    0 -0.41567890669E+02 -0.99395744165E+01  0.36894638109E+01  0.42898680836E+02  0.00000000000E+00 0. -1.
</event>
<event>
 7    1  0.2090370E-015  0.9000771E+02  0.7816164E-02  0.1186339E+00
        -11   -1    0    0    0    0  0.00000000000E+00  0.00000000000E+00  0.45593999997E+02  0.45594000000E+02  0.51100000000E-03 0.  1.
         11   -1    0    0    0    0 -0.00000000000E+00 -0.00000000000E+00 -0.45593999997E+02  0.45594000000E+02  0.51100000000E-03 0. -1.
    9900012    2    1    2    0    0  0.78911653012E+00 -0.49445571217E+00  0.72519124509E+00  0.90007706100E+02  0.89999967020E+02 0.  0.
         12    1    1    2    0    0 -0.78911653012E+00  0.49445571217E+00 -0.72519124509E+00  0.11802939004E+01  0.00000000000E+00 0. -1.
         11    1    3    3    0    0 -0.72932109192E+01  0.71655201263E+01 -0.25784447143E+01  0.10544381518E+02  0.51100000000E-03 0. -1.
        -11    1    3    3    0    0 -0.23543311434E+02  0.22005058526E+02  0.13467493460E+02  0.34926830580E+02  0.51100000000E-03 0.  1.
         12    1    3    3    0    0  0.31625638883E+02 -0.29665034365E+02 -0.10163857501E+02  0.44536494001E+02  0.00000000000E+00 0. -1.
</event>
<event>
 7    1  0.2090370E-015  0.9000775E+02  0.7816164E-02  0.1186339E+00
        -11   -1    0    0    0    0  0.00000000000E+00  0.00000000000E+00  0.45593999997E+02  0.45594000000E+02  0.51100000000E-03 0.  1.
         11   -1    0    0    0    0 -0.00000000000E+00 -0.00000000000E+00 -0.45593999997E+02  0.45594000000E+02  0.51100000000E-03 0. -1.
    9900012    2    1    2    0    0 -0.11116553932E+01 -0.27732152906E-01  0.39551955241E+00  0.90007753203E+02  0.90000014745E+02 0.  0.
         12    1    1    2    0    0  0.11116553932E+01  0.27732152906E-01 -0.39551955241E+00  0.11802467970E+01  0.00000000000E+00 0. -1.
         11    1    3    3    0    0 -0.36348039653E+02 -0.34281127138E+01 -0.14628327893E+02  0.39330902870E+02  0.51100000000E-03 0. -1.
        -11    1    3    3    0    0 -0.30596893606E+01  0.74104615972E+01 -0.24624206328E+01  0.83869038209E+01  0.51100000000E-03 0.  1.
        -12    1    3    3    0    0  0.38296073621E+02 -0.40100810364E+01  0.17486268078E+02  0.42289946512E+02  0.00000000000E+00 0.  1.
</event>
<event>
 7    1  0.2090370E-015  0.9000773E+02  0.7816164E-02  0.1186339E+00
        -11   -1    0    0    0    0  0.00000000000E+00  0.00000000000E+00  0.45593999997E+02  0.45594000000E+02  0.51100000000E-03 0. -1.
         11   -1    0    0    0    0 -0.00000000000E+00 -0.00000000000E+00 -0.45593999997E+02  0.45594000000E+02  0.51100000000E-03 0.  1.
    9900012    2    1    2    0    0  0.88466102621E+00  0.27672883536E+00 -0.73063333712E+00  0.90007733482E+02  0.89999994764E+02 0.  0.
         12    1    1    2    0    0 -0.88466102621E+00 -0.27672883536E+00  0.73063333712E+00  0.11802665178E+01  0.00000000000E+00 0. -1.
         11    1    3    3    0    0 -0.10524074588E+01 -0.41750858946E+00 -0.64610964553E+01  0.65595459101E+01  0.51100000000E-03 0. -1.
        -11    1    3    3    0    0  0.75915017478E+01  0.24274315054E+02 -0.30586795368E+02  0.39779709920E+02  0.51100000000E-03 0.  1.
         12    1    3    3    0    0 -0.56544332628E+01 -0.23580077629E+02  0.36317258486E+02  0.43668477653E+02  0.00000000000E+00 0. -1.
</event>
<event>
 7    1  0.2090370E-015  0.9000771E+02  0.7816164E-02  0.1186339E+00
        -11   -1    0    0    0    0  0.00000000000E+00  0.00000000000E+00  0.45593999997E+02  0.45594000000E+02  0.51100000000E-03 0. -1.
         11   -1    0    0    0    0 -0.00000000000E+00 -0.00000000000E+00 -0.45593999997E+02  0.45594000000E+02  0.51100000000E-03 0.  1.
    9900012    2    1    2    0    0 -0.26654407970E+00 -0.84157998486E+00 -0.78344623886E+00  0.90007707398E+02  0.89999968336E+02 0.  0.
         12    1    1    2    0    0  0.26654407970E+00  0.84157998486E+00  0.78344623886E+00  0.11802926021E+01  0.00000000000E+00 0. -1.
         11    1    3    3    0    0  0.10347518059E+01  0.95064746048E+01  0.30086581675E+01  0.10024759096E+02  0.51100000000E-03 0. -1.
        -11    1    3    3    0    0 -0.39232340851E+02 -0.14251886529E+02 -0.10697653332E+01  0.41754487620E+02  0.51100000000E-03 0.  1.
         12    1    3    3    0    0  0.37931044966E+02  0.39038319392E+01 -0.27223390732E+01  0.38228460681E+02  0.00000000000E+00 0. -1.
</event>
<event>
 7    1  0.2090370E-015  0.9000772E+02  0.7816164E-02  0.1186339E+00
        -11   -1    0    0    0    0  0.00000000000E+00  0.00000000000E+00  0.45593999997E+02  0.45594000000E+02  0.51100000000E-03 0. -1.
         11   -1    0    0    0    0 -0.00000000000E+00 -0.00000000000E+00 -0.45593999997E+02  0.45594000000E+02  0.51100000000E-03 0.  1.
    9900012    2    1    2    0    0  0.10799693010E+01  0.11369656404E+00  0.46238592384E+00  0.90007719803E+02  0.89999980905E+02 0.  0.
         12    1    1    2    0    0 -0.10799693010E+01 -0.11369656404E+00 -0.46238592384E+00  0.11802801966E+01  0.00000000000E+00 0. -1.
         11    1    3    3    0    0  0.62773396247E+01  0.54752859512E+01 -0.31912205915E+01  0.89200694020E+01  0.51100000000E-03 0. -1.
        -11    1    3    3    0    0  0.24596081393E+02 -0.32308469833E+02 -0.12024832753E+01  0.40623274229E+02  0.51100000000E-03 0.  1.
         12    1    3    3    0    0 -0.29793451716E+02  0.26946880446E+02  0.48560897906E+01  0.40464376172E+02  0.00000000000E+00 0. -1.
</event>
<event>
 7    1  0.2090370E-015  0.9000776E+02  0.7816164E-02  0.1186339E+00
        -11   -1    0    0    0    0  0.00000000000E+00  0.00000000000E+00  0.45593999997E+02  0.45594000000E+02  0.51100000000E-03 0. -1.
         11   -1    0    0    0    0 -0.00000000000E+00 -0.00000000000E+00 -0.45593999997E+02  0.45594000000E+02  0.51100000000E-03 0.  1.
    9900012    2    1    2    0    0 -0.22732746157E+00 -0.90225146451E+00 -0.72610433737E+00  0.90007761470E+02  0.90000023121E+02 0.  0.
         12    1    1    2    0    0  0.22732746157E+00  0.90225146451E+00  0.72610433737E+00  0.11802385304E+01  0.00000000000E+00 0. -1.
         11    1    3    3    0    0  0.97113732568E+01  0.28387413152E+02 -0.61647024080E+01  0.30629390331E+02  0.51100000000E-03 0. -1.
        -11    1    3    3    0    0  0.17302939196E+02 -0.21417155573E+02 -0.70070619755E+01  0.28411004478E+02  0.51100000000E-03 0.  1.
        -12    1    3    3    0    0 -0.27241639915E+02 -0.78725090443E+01  0.12445660046E+02  0.30967366661E+02  0.00000000000E+00 0.  1.
</event>
<event>
 7    1  0.2090370E-015  0.9000778E+02  0.7816164E-02  0.1186339E+00
        -11   -1    0    0    0    0  0.00000000000E+00  0.00000000000E+00  0.45593999997E+02  0.45594000000E+02  0.51100000000E-03 0. -1.
         11   -1    0    0    0    0 -0.00000000000E+00 -0.00000000000E+00 -0.45593999997E+02  0.45594000000E+02  0.51100000000E-03 0.  1.
    9900012    2    1    2    0    0 -0.79639186796E+00  0.85089116984E+00 -0.18620687087E+00  0.90007775958E+02  0.90000037801E+02 0.  0.
         12    1    1    2    0    0  0.79639186796E+00 -0.85089116984E+00  0.18620687087E+00  0.11802240419E+01  0.00000000000E+00 0. -1.
         11    1    3    3    0    0  0.68449093960E+01  0.31758408827E+01 -0.54550919369E+01  0.93111104736E+01  0.51100000000E-03 0. -1.
        -11    1    3    3    0    0  0.24122042019E+02 -0.87654154984E+01 -0.25376483128E+02  0.36092538234E+02  0.51100000000E-03 0.  1.
         12    1    3    3    0    0 -0.31763343283E+02  0.64404657855E+01  0.30645368194E+02  0.44604127250E+02  0.00000000000E+00 0. -1.
</event>
<event>
 7    1  0.2090370E-015  0.9000771E+02  0.7816164E-02  0.1186339E+00
        -11   -1    0    0    0    0  0.00000000000E+00  0.00000000000E+00  0.45593999997E+02  0.45594000000E+02  0.51100000000E-03 0.  1.
         11   -1    0    0    0    0 -0.00000000000E+00 -0.00000000000E+00 -0.45593999997E+02  0.45594000000E+02  0.51100000000E-03 0. -1.
    9900012    2    1    2    0    0  0.11755988787E+01 -0.62383045999E-02  0.10492292183E+00  0.90007711705E+02  0.89999972699E+02 0.  0.
         12    1    1    2    0    0 -0.11755988787E+01  0.62383045999E-02 -0.10492292183E+00  0.11802882951E+01  0.00000000000E+00 0. -1.
         11    1    3    3    0    0  0.41127510523E+02 -0.25655538893E+01 -0.14521941462E+02  0.43691429053E+02  0.51100000000E-03 0. -1.
        -11    1    3    3    0    0 -0.64818174274E+01 -0.64652685286E+01  0.45050239271E+01  0.10203376654E+02  0.51100000000E-03 0.  1.
        -12    1    3    3    0    0 -0.33470094217E+02  0.90245841133E+01  0.10121840457E+02  0.36112905997E+02  0.00000000000E+00 0.  1.
</event>
<event>
 7    1  0.2164285E-015  0.9000773E+02  0.7816164E-02  0.1186339E+00
        -11   -1    0    0    0    0  0.00000000000E+00  0.00000000000E+00  0.45593999997E+02  0.45594000000E+02  0.51100000000E-03 0.  1.
         11   -1    0    0    0    0 -0.00000000000E+00 -0.00000000000E+00 -0.45593999997E+02  0.45594000000E+02  0.51100000000E-03 0. -1.
    9900012    2    1    2    0    0  0.78529438550E+00 -0.70310961510E+00  0.53103370647E+00  0.90007725795E+02  0.89999986975E+02 0.  0.
         12    1    1    2    0    0 -0.78529438550E+00  0.70310961510E+00 -0.53103370647E+00  0.11802742055E+01  0.00000000000E+00 0. -1.
         11    1    3    3    0    0  0.41123439212E+02  0.38338080112E+00 -0.52786120743E+01  0.41462609411E+02  0.51100000000E-03 0. -1.
        -11    1    3    3    0    0 -0.25721875002E+01 -0.91749564003E+01  0.19901268427E+01  0.97342990808E+01  0.51100000000E-03 0.  1.
        -12    1    3    3    0    0 -0.37765957327E+02  0.80884659841E+01  0.38195189380E+01  0.38810817303E+02  0.00000000000E+00 0.  1.
</event>
<event>
 7    1  0.2090370E-015  0.9000776E+02  0.7816164E-02  0.1186339E+00
        -11   -1    0    0    0    0  0.00000000000E+00  0.00000000000E+00  0.45593999997E+02  0.45594000000E+02  0.51100000000E-03 0. -1.
         11   -1    0    0    0    0 -0.00000000000E+00 -0.00000000000E+00 -0.45593999997E+02  0.45594000000E+02  0.51100000000E-03 0.  1.
    9900012    2    1    2    0    0  0.33409646557E+00 -0.17338630505E+00 -0.11186026361E+01  0.90007764805E+02  0.90000026500E+02 0.  0.
         12    1    1    2    0    0 -0.33409646557E+00  0.17338630505E+00  0.11186026361E+01  0.11802351954E+01  0.00000000000E+00 0. -1.
         11    1    3    3    0    0  0.11116694815E+02 -0.52231261437E+01 -0.13289552254E+02  0.18096246840E+02  0.51100000000E-03 0. -1.
        -11    1    3    3    0    0 -0.13431920789E+02  0.13608860037E+02 -0.26240938080E+02  0.32468513966E+02  0.51100000000E-03 0.  1.
         12    1    3    3    0    0  0.26493224391E+01 -0.85591201986E+01  0.38411887697E+02  0.39443003999E+02  0.00000000000E+00 0. -1.
</event>
<event>
 7    1  0.2090370E-015  0.9000775E+02  0.7816164E-02  0.1186339E+00
        -11   -1    0    0    0    0  0.00000000000E+00  0.00000000000E+00  0.45593999997E+02  0.45594000000E+02  0.51100000000E-03 0. -1.
         11   -1    0    0    0    0 -0.00000000000E+00 -0.00000000000E+00 -0.45593999997E+02  0.45594000000E+02  0.51100000000E-03 0.  1.
    9900012    2    1    2    0    0 -0.10727954550E+01  0.49079939344E+00 -0.34907285862E-01  0.90007748903E+02  0.90000010389E+02 0.  0.
         12    1    1    2    0    0  0.10727954550E+01 -0.49079939344E+00  0.34907285862E-01  0.11802510968E+01  0.00000000000E+00 0. -1.
         11    1    3    3    0    0  0.29336067346E+02  0.12902413559E+02  0.24842147838E+02  0.40548852419E+02  0.51100000000E-03 0. -1.
        -11    1    3    3    0    0 -0.31368127127E+01  0.80496979152E+01 -0.45367396255E+01  0.97580344953E+01  0.51100000000E-03 0.  1.
        -12    1    3    3    0    0 -0.27272050089E+02 -0.20461312080E+02 -0.20340315499E+02  0.39700861989E+02  0.00000000000E+00 0.  1.
</event>
<event>
 7    1  0.2090370E-015  0.9000754E+02  0.7816164E-02  0.1186339E+00
        -11   -1    0    0    0    0  0.00000000000E+00  0.00000000000E+00  0.45593999997E+02  0.45594000000E+02  0.51100000000E-03 0.  1.
         11   -1    0    0    0    0 -0.00000000000E+00 -0.00000000000E+00 -0.45593999997E+02  0.45594000000E+02  0.51100000000E-03 0. -1.
    9900012    2    1    2    0    0  0.80434586538E+00 -0.55184667228E+00  0.66480987594E+00  0.90007542804E+02  0.89999801569E+02 0.  0.
         12    1    1    2    0    0 -0.80434586538E+00  0.55184667228E+00 -0.66480987594E+00  0.11804571962E+01  0.00000000000E+00 0. -1.
         11    1    3    3    0    0 -0.76962521888E+01 -0.81088641454E+01 -0.18948997392E+01  0.11339163142E+02  0.51100000000E-03 0. -1.
        -11    1    3    3    0    0 -0.13299768103E+02  0.36312324272E+02  0.13502373819E+02  0.40960747364E+02  0.51100000000E-03 0.  1.
         12    1    3    3    0    0  0.21800366157E+02 -0.28755306799E+02 -0.10942664204E+02  0.37707632298E+02  0.00000000000E+00 0. -1.
</event>
<event>
 7    1  0.2090370E-015  0.9000757E+02  0.7816164E-02  0.1186339E+00
        -11   -1    0    0    0    0  0.00000000000E+00  0.00000000000E+00  0.45593999997E+02  0.45594000000E+02  0.51100000000E-03 0. -1.
         11   -1    0    0    0    0 -0.00000000000E+00 -0.00000000000E+00 -0.45593999997E+02  0.45594000000E+02  0.51100000000E-03 0.  1.
    9900012    2    1    2    0    0  0.90485400541E+00 -0.44416146175E+00 -0.61431050820E+00  0.90007568903E+02  0.89999828012E+02 0.  0.
         12    1    1    2    0    0 -0.90485400541E+00  0.44416146175E+00  0.61431050820E+00  0.11804310974E+01  0.00000000000E+00 0. -1.
         11    1    3    3    0    0  0.18750770432E+02 -0.36060757191E+02 -0.94854028745E+01  0.41736584299E+02  0.51100000000E-03 0. -1.
        -11    1    3    3    0    0 -0.95681312537E+01  0.54101135289E+01 -0.71284080484E+01  0.13100865073E+02  0.51100000000E-03 0.  1.
        -12    1    3    3    0    0 -0.82777851724E+01  0.30206482201E+02  0.15999500415E+02  0.35170119531E+02  0.00000000000E+00 0.  1.
</event>
<event>
 7    1  0.2090370E-015  0.9000758E+02  0.7816164E-02  0.1186339E+00
        -11   -1    0    0    0    0  0.00000000000E+00  0.00000000000E+00  0.45593999997E+02  0.45594000000E+02  0.51100000000E-03 0. -1.
         11   -1    0    0    0    0 -0.00000000000E+00 -0.00000000000E+00 -0.45593999997E+02  0.45594000000E+02  0.51100000000E-03 0.  1.
    9900012    2    1    2    0    0  0.90793785758E+00 -0.33781435846E+00 -0.67447234632E+00  0.90007583701E+02  0.89999843005E+02 0.  0.
         12    1    1    2    0    0 -0.90793785758E+00  0.33781435846E+00  0.67447234632E+00  0.11804162994E+01  0.00000000000E+00 0. -1.
         11    1    3    3    0    0 -0.10801364184E+02  0.32202568877E+02  0.20696921740E+02  0.39774834761E+02  0.51100000000E-03 0. -1.
        -11    1    3    3    0    0 -0.66014404457E+00  0.26853873027E+01 -0.11201767569E+02  0.11538054084E+02  0.51100000000E-03 0.  1.
        -12    1    3    3    0    0  0.12369446086E+02 -0.35225770538E+02 -0.10169626518E+02  0.38694694855E+02  0.00000000000E+00 0.  1.
</event>
<event>
 7    1  0.2090370E-015  0.9000783E+02  0.7816164E-02  0.1186339E+00
        -11   -1    0    0    0    0  0.00000000000E+00  0.00000000000E+00  0.45593999997E+02  0.45594000000E+02  0.51100000000E-03 0.  1.
         11   -1    0    0    0    0 -0.00000000000E+00 -0.00000000000E+00 -0.45593999997E+02  0.45594000000E+02  0.51100000000E-03 0. -1.
    9900012    2    1    2    0    0 -0.33705056136E+00  0.89459476936E-01  0.11274759070E+01  0.90007827131E+02  0.90000089649E+02 0.  0.
         12    1    1    2    0    0  0.33705056136E+00 -0.89459476936E-01 -0.11274759070E+01  0.11801728686E+01  0.00000000000E+00 0. -1.
         11    1    3    3    0    0 -0.22174241261E+01  0.55029280833E+01 -0.87649646575E+01  0.10584129296E+02  0.51100000000E-03 0. -1.
        -11    1    3    3    0    0  0.24536958809E+02  0.28390636259E+02  0.95797126653E+01  0.38728045004E+02  0.51100000000E-03 0.  1.
         12    1    3    3    0    0 -0.22656585245E+02 -0.33804104865E+02  0.31272789929E+00  0.40695652832E+02  0.00000000000E+00 0. -1.
</event>
<event>
 7    1  0.2090370E-015  0.9000774E+02  0.7816164E-02  0.1186339E+00
        -11   -1    0    0    0    0  0.00000000000E+00  0.00000000000E+00  0.45593999997E+02  0.45594000000E+02  0.51100000000E-03 0.  1.
         11   -1    0    0    0    0 -0.00000000000E+00 -0.00000000000E+00 -0.45593999997E+02  0.45594000000E+02  0.51100000000E-03 0. -1.
    9900012    2    1    2    0    0 -0.83127086487E+00 -0.27158714413E+00  0.79261701895E+00  0.90007740467E+02  0.90000001841E+02 0.  0.
         12    1    1    2    0    0  0.83127086487E+00  0.27158714413E+00 -0.79261701895E+00  0.11802595335E+01  0.00000000000E+00 0. -1.
         11    1    3    3    0    0  0.12083842941E+00  0.12195222287E+02 -0.15186922077E+02  0.19477696245E+02  0.51100000000E-03 0. -1.
        -11    1    3    3    0    0  0.20962264974E+00  0.27787453829E+02  0.11261985764E+02  0.29983643134E+02  0.51100000000E-03 0.  1.
         12    1    3    3    0    0 -0.11617319440E+01 -0.40254263261E+02  0.47175533325E+01  0.40546401088E+02  0.00000000000E+00 0. -1.
</event>
<event>
 7    1  0.2090370E-015  0.9000766E+02  0.7816164E-02  0.1186339E+00
        -11   -1    0    0    0    0  0.00000000000E+00  0.00000000000E+00  0.45593999997E+02  0.45594000000E+02  0.51100000000E-03 0. -1.
         11   -1    0    0    0    0 -0.00000000000E+00 -0.00000000000E+00 -0.45593999997E+02  0.45594000000E+02  0.51100000000E-03 0.  1.
    9900012    2    1    2    0    0  0.10052536911E+01 -0.26230332548E+00 -0.56023648673E+00  0.90007659821E+02  0.89999920130E+02 0.  0.
         12    1    1    2    0    0 -0.10052536911E+01  0.26230332548E+00  0.56023648673E+00  0.11803401794E+01  0.00000000000E+00 0. -1.
         11    1    3    3    0    0  0.30847902210E+01 -0.85948330949E+00  0.12955987380E+02  0.13345870205E+02  0.51100000000E-03 0. -1.
        -11    1    3    3    0    0  0.32908384026E+02  0.10457761100E+02 -0.19751545274E+02  0.39780020707E+02  0.51100000000E-03 0.  1.
         12    1    3    3    0    0 -0.34987920556E+02 -0.98605811165E+01  0.62353214072E+01  0.36881768909E+02  0.00000000000E+00 0. -1.
</event>
<event>
 7    1  0.2090370E-015  0.9000770E+02  0.7816164E-02  0.1186339E+00
        -11   -1    0    0    0    0  0.00000000000E+00  0.00000000000E+00  0.45593999997E+02  0.45594000000E+02  0.51100000000E-03 0.  1.
         11   -1    0    0    0    0 -0.00000000000E+00 -0.00000000000E+00 -0.45593999997E+02  0.45594000000E+02  0.51100000000E-03 0. -1.
    9900012    2    1    2    0    0  0.31041444760E+00  0.61893471591E+00  0.95586515761E+00  0.90007696856E+02  0.89999957655E+02 0.  0.
         12    1    1    2    0    0 -0.31041444760E+00 -0.61893471591E+00 -0.95586515761E+00  0.11803031438E+01  0.00000000000E+00 0. -1.
         11    1    3    3    0    0  0.75959725012E+01 -0.34519742582E+01  0.32825012863E+01  0.89660325381E+01  0.51100000000E-03 0. -1.
        -11    1    3    3    0    0  0.11335006196E+01 -0.32930628376E+02  0.18465504208E+02  0.37771496592E+02  0.51100000000E-03 0.  1.
         12    1    3    3    0    0 -0.84190586732E+01  0.37001537350E+02 -0.20792140337E+02  0.43270167726E+02  0.00000000000E+00 0. -1.
</event>
<event>
 7    1  0.2090370E-015  0.9000775E+02  0.7816164E-02  0.1186339E+00
        -11   -1    0    0    0    0  0.00000000000E+00  0.00000000000E+00  0.45593999997E+02  0.45594000000E+02  0.51100000000E-03 0.  1.
         11   -1    0    0    0    0 -0.00000000000E+00 -0.00000000000E+00 -0.45593999997E+02  0.45594000000E+02  0.51100000000E-03 0. -1.
    9900012    2    1    2    0    0 -0.82358091191E+00 -0.30573957359E+00  0.78818657633E+00  0.90007745670E+02  0.90000007112E+02 0.  0.
         12    1    1    2    0    0  0.82358091191E+00  0.30573957359E+00 -0.78818657633E+00  0.11802543304E+01  0.00000000000E+00 0. -1.
         11    1    3    3    0    0  0.13089378221E+02  0.13127139796E+02  0.66233603356E+01  0.19685591783E+02  0.51100000000E-03 0. -1.
        -11    1    3    3    0    0  0.27412378078E+02 -0.43548574304E+01 -0.29695592663E+01  0.27914539896E+02  0.51100000000E-03 0.  1.
         12    1    3    3    0    0 -0.41325337211E+02 -0.90780219397E+01 -0.28656144930E+01  0.42407613990E+02  0.00000000000E+00 0. -1.
</event>
<event>
 7    1  0.2090370E-015  0.9000821E+02  0.7816164E-02  0.1186338E+00
        -11   -1    0    0    0    0  0.00000000000E+00  0.00000000000E+00  0.45593999997E+02  0.45594000000E+02  0.51100000000E-03 0. -1.
         11   -1    0    0    0    0 -0.00000000000E+00 -0.00000000000E+00 -0.45593999997E+02  0.45594000000E+02  0.51100000000E-03 0.  1.
    9900012    2    1    2    0    0  0.20863483642E+00 -0.21573419162E+00 -0.11409826430E+01  0.90008207167E+02  0.90000474701E+02 0.  0.
         12    1    1    2    0    0 -0.20863483642E+00  0.21573419162E+00  0.11409826430E+01  0.11797928327E+01  0.00000000000E+00 0. -1.
         11    1    3    3    0    0 -0.54319641598E+01 -0.89824530707E+01  0.13587073079E+01  0.10584742964E+02  0.51100000000E-03 0. -1.
        -11    1    3    3    0    0 -0.11920678801E+02  0.16624092013E+02 -0.35645815539E+02  0.41098505861E+02  0.51100000000E-03 0.  1.
         12    1    3    3    0    0  0.17561277797E+02 -0.78573731335E+01  0.33146125588E+02  0.38324958342E+02  0.00000000000E+00 0. -1.
</event>
<event>
 7    1  0.2090370E-015  0.9000774E+02  0.7816164E-02  0.1186339E+00
        -11   -1    0    0    0    0  0.00000000000E+00  0.00000000000E+00  0.45593999997E+02  0.45594000000E+02  0.51100000000E-03 0. -1.
         11   -1    0    0    0    0 -0.00000000000E+00 -0.00000000000E+00 -0.45593999997E+02  0.45594000000E+02  0.51100000000E-03 0.  1.
    9900012    2    1    2    0    0  0.82260223932E+00  0.25077932915E+00 -0.80835966564E+00  0.90007741526E+02  0.90000002914E+02 0.  0.
         12    1    1    2    0    0 -0.82260223932E+00 -0.25077932915E+00  0.80835966564E+00  0.11802584739E+01  0.00000000000E+00 0. -1.
         11    1    3    3    0    0 -0.36949846007E+02  0.83106983696E+01 -0.93575428183E+01  0.39011824300E+02  0.51100000000E-03 0. -1.
        -11    1    3    3    0    0 -0.23558082937E+01  0.25041927111E+01 -0.60902871617E+01  0.69937409034E+01  0.51100000000E-03 0.  1.
        -12    1    3    3    0    0  0.40128256540E+02 -0.10564111752E+02  0.14639470314E+02  0.44002176323E+02  0.00000000000E+00 0.  1.
</event>
<event>
 7    1  0.2090370E-015  0.9000784E+02  0.7816164E-02  0.1186339E+00
        -11   -1    0    0    0    0  0.00000000000E+00  0.00000000000E+00  0.45593999997E+02  0.45594000000E+02  0.51100000000E-03 0. -1.
         11   -1    0    0    0    0 -0.00000000000E+00 -0.00000000000E+00 -0.45593999997E+02  0.45594000000E+02  0.51100000000E-03 0.  1.
    9900012    2    1    2    0    0  0.81260752316E-01  0.11585441524E+01 -0.20963702885E+00  0.90007840881E+02  0.90000103580E+02 0.  0.
         12    1    1    2    0    0 -0.81260752316E-01 -0.11585441524E+01  0.20963702885E+00  0.11801591193E+01  0.00000000000E+00 0. -1.
         11    1    3    3    0    0  0.16335876356E+01  0.44135448268E+01 -0.76563602873E+01  0.89870929455E+01  0.51100000000E-03 0. -1.
        -11    1    3    3    0    0  0.39592660363E+01  0.37770169721E+02 -0.36874086690E+01  0.38155713743E+02  0.51100000000E-03 0.  1.
         12    1    3    3    0    0 -0.55115929195E+01 -0.41025170396E+02  0.11134131927E+02  0.42865034192E+02  0.00000000000E+00 0. -1.
</event>
<event>
 7    1  0.2090370E-015  0.9000778E+02  0.7816164E-02  0.1186339E+00
        -11   -1    0    0    0    0  0.00000000000E+00  0.00000000000E+00  0.45593999997E+02  0.45594000000E+02  0.51100000000E-03 0.  1.
         11   -1    0    0    0    0 -0.00000000000E+00 -0.00000000000E+00 -0.45593999997E+02  0.45594000000E+02  0.51100000000E-03 0. -1.
    9900012    2    1    2    0    0  0.95544471554E+00 -0.54640359591E+00  0.42600475805E+00  0.90007783262E+02  0.90000045201E+02 0.  0.
         12    1    1    2    0    0 -0.95544471554E+00  0.54640359591E+00 -0.42600475805E+00  0.11802167377E+01  0.00000000000E+00 0. -1.
         11    1    3    3    0    0  0.40641271990E+02  0.86943858764E+01 -0.98919408712E+01  0.42721842531E+02  0.51100000000E-03 0. -1.
        -11    1    3    3    0    0 -0.32272762817E+01 -0.87677669059E+01 -0.17506031081E+00  0.93445007940E+01  0.51100000000E-03 0.  1.
        -12    1    3    3    0    0 -0.36458550993E+02 -0.47302256633E+00  0.10493005940E+02  0.37941439937E+02  0.00000000000E+00 0.  1.
</event>
<event>
 7    1  0.2090370E-015  0.9000766E+02  0.7816164E-02  0.1186339E+00
        -11   -1    0    0    0    0  0.00000000000E+00  0.00000000000E+00  0.45593999997E+02  0.45594000000E+02  0.51100000000E-03 0. -1.
         11   -1    0    0    0    0 -0.00000000000E+00 -0.00000000000E+00 -0.45593999997E+02  0.45594000000E+02  0.51100000000E-03 0.  1.
    9900012    2    1    2    0    0 -0.13567205238E+00  0.95458606104E+00 -0.68085621624E+00  0.90007658252E+02  0.89999918541E+02 0.  0.
         12    1    1    2    0    0  0.13567205238E+00 -0.95458606104E+00  0.68085621624E+00  0.11803417475E+01  0.00000000000E+00 0. -1.
         11    1    3    3    0    0 -0.55718974618E+01 -0.45023679581E+01 -0.87679895243E+01  0.11322323044E+02  0.51100000000E-03 0. -1.
        -11    1    3    3    0    0 -0.34179177120E+02  0.31928344583E+01  0.16555643274E+02  0.38111673604E+02  0.51100000000E-03 0.  1.
         12    1    3    3    0    0  0.39615402529E+02  0.22641195607E+01 -0.84685099658E+01  0.40573661604E+02  0.00000000000E+00 0. -1.
</event>
<event>
 7    1  0.2090370E-015  0.9000780E+02  0.7816164E-02  0.1186339E+00
        -11   -1    0    0    0    0  0.00000000000E+00  0.00000000000E+00  0.45593999997E+02  0.45594000000E+02  0.51100000000E-03 0.  1.
         11   -1    0    0    0    0 -0.00000000000E+00 -0.00000000000E+00 -0.45593999997E+02  0.45594000000E+02  0.51100000000E-03 0. -1.
    9900012    2    1    2    0    0  0.89024779801E+00  0.16064546130E+00  0.75797860161E+00  0.90007796769E+02  0.90000058886E+02 0.  0.
         12    1    1    2    0    0 -0.89024779801E+00 -0.16064546130E+00 -0.75797860161E+00  0.11802032311E+01  0.00000000000E+00 0. -1.
         11    1    3    3    0    0 -0.16466362848E+02  0.30931997753E+02 -0.77696582588E+01  0.35892856951E+02  0.51100000000E-03 0. -1.
        -11    1    3    3    0    0  0.58911127039E+01  0.96772665596E+01  0.70616931371E+00  0.11351359932E+02  0.51100000000E-03 0.  1.
        -12    1    3    3    0    0  0.11465497942E+02 -0.40448618851E+02  0.78214675467E+01  0.42763579885E+02  0.00000000000E+00 0.  1.
</event>
<event>
 7    1  0.2090370E-015  0.9000776E+02  0.7816164E-02  0.1186339E+00
        -11   -1    0    0    0    0  0.00000000000E+00  0.00000000000E+00  0.45593999997E+02  0.45594000000E+02  0.51100000000E-03 0.  1.
         11   -1    0    0    0    0 -0.00000000000E+00 -0.00000000000E+00 -0.45593999997E+02  0.45594000000E+02  0.51100000000E-03 0. -1.
    9900012    2    1    2    0    0  0.65922721430E+00 -0.16092358481E+00  0.96565675291E+00  0.90007758548E+02  0.90000020161E+02 0.  0.
         12    1    1    2    0    0 -0.65922721430E+00  0.16092358481E+00 -0.96565675291E+00  0.11802414518E+01  0.00000000000E+00 0. -1.
         11    1    3    3    0    0  0.59144223185E+01 -0.83762354604E+01  0.40745351560E+01  0.11033745912E+02  0.51100000000E-03 0. -1.
        -11    1    3    3    0    0 -0.37133023825E+01 -0.20656913851E+02  0.28979167980E+02  0.35781124654E+02  0.51100000000E-03 0.  1.
         12    1    3    3    0    0 -0.15418927218E+01  0.28872225727E+02 -0.32088046383E+02  0.43192887982E+02  0.00000000000E+00 0. -1.
</event>
<event>
 7    1  0.2090370E-015  0.9000765E+02  0.7816164E-02  0.1186339E+00
        -11   -1    0    0    0    0  0.00000000000E+00  0.00000000000E+00  0.45593999997E+02  0.45594000000E+02  0.51100000000E-03 0. -1.
         11   -1    0    0    0    0 -0.00000000000E+00 -0.00000000000E+00 -0.45593999997E+02  0.45594000000E+02  0.51100000000E-03 0.  1.
    9900012    2    1    2    0    0 -0.53618730849E+00  0.10237463435E+01 -0.24015263368E+00  0.90007649758E+02  0.89999909935E+02 0.  0.
         12    1    1    2    0    0  0.53618730849E+00 -0.10237463435E+01  0.24015263368E+00  0.11803502417E+01  0.00000000000E+00 0. -1.
         11    1    3    3    0    0 -0.86923791761E+01 -0.53085587292E+01  0.33587633080E+01  0.10724716441E+02  0.51100000000E-03 0. -1.
        -11    1    3    3    0    0  0.42525599489E+02 -0.54335214882E+01 -0.22519321515E+01  0.42930420058E+02  0.51100000000E-03 0.  1.
         12    1    3    3    0    0 -0.34369407622E+02  0.11765826561E+02 -0.13469837903E+01  0.36352513259E+02  0.00000000000E+00 0. -1.
</event>
<event>
 7    1  0.2090370E-015  0.9000777E+02  0.7816164E-02  0.1186339E+00
        -11   -1    0    0    0    0  0.00000000000E+00  0.00000000000E+00  0.45593999997E+02  0.45594000000E+02  0.51100000000E-03 0. -1.
         11   -1    0    0    0    0 -0.00000000000E+00 -0.00000000000E+00 -0.45593999997E+02  0.45594000000E+02  0.51100000000E-03 0.  1.
    9900012    2    1    2    0    0 -0.32791377082E+00  0.37122762499E+00 -0.10712625514E+01  0.90007770851E+02  0.90000032626E+02 0.  0.
         12    1    1    2    0    0  0.32791377082E+00 -0.37122762499E+00  0.10712625514E+01  0.11802291493E+01  0.00000000000E+00 0. -1.
         11    1    3    3    0    0  0.26411063619E+00 -0.77564238494E+01 -0.51073884336E+01  0.92907094580E+01  0.51100000000E-03 0. -1.
        -11    1    3    3    0    0  0.11954058821E+02  0.15293152945E+02 -0.34486587617E+02  0.39574041681E+02  0.51100000000E-03 0.  1.
         12    1    3    3    0    0 -0.12546083228E+02 -0.71655014703E+01  0.38522713499E+02  0.41143019712E+02  0.00000000000E+00 0. -1.
</event>
<event>
 7    1  0.2090370E-015  0.9000793E+02  0.7816164E-02  0.1186339E+00
        -11   -1    0    0    0    0  0.00000000000E+00  0.00000000000E+00  0.45593999997E+02  0.45594000000E+02  0.51100000000E-03 0. -1.
         11   -1    0    0    0    0 -0.00000000000E+00 -0.00000000000E+00 -0.45593999997E+02  0.45594000000E+02  0.51100000000E-03 0.  1.
    9900012    2    1    2    0    0  0.49736171398E+00  0.14448939818E+00 -0.10603354131E+01  0.90007933456E+02  0.90000197377E+02 0.  0.
         12    1    1    2    0    0 -0.49736171398E+00 -0.14448939818E+00  0.10603354131E+01  0.11800665443E+01  0.00000000000E+00 0. -1.
         11    1    3    3    0    0  0.54645962333E+00 -0.15936661816E+01  0.90402352839E+01  0.91958819190E+01  0.51100000000E-03 0. -1.
        -11    1    3    3    0    0  0.23032644959E+02  0.33178236289E+02 -0.10779269387E+02  0.41802999244E+02  0.51100000000E-03 0.  1.
         12    1    3    3    0    0 -0.23081742868E+02 -0.31440080709E+02  0.67869868987E+00  0.39009052292E+02  0.00000000000E+00 0. -1.
</event>
<event>
 7    1  0.2090370E-015  0.9000776E+02  0.7816164E-02  0.1186339E+00
        -11   -1    0    0    0    0  0.00000000000E+00  0.00000000000E+00  0.45593999997E+02  0.45594000000E+02  0.51100000000E-03 0.  1.
         11   -1    0    0    0    0 -0.00000000000E+00 -0.00000000000E+00 -0.45593999997E+02  0.45594000000E+02  0.51100000000E-03 0. -1.
    9900012    2    1    2    0    0 -0.11587721157E+01  0.15097938277E-01  0.22359922635E+00  0.90007755374E+02  0.90000016945E+02 0.  0.
         12    1    1    2    0    0  0.11587721157E+01 -0.15097938277E-01 -0.22359922635E+00  0.11802446263E+01  0.00000000000E+00 0. -1.
         11    1    3    3    0    0 -0.30990934502E+01  0.83410406870E+01 -0.19431362192E+01  0.91078602637E+01  0.51100000000E-03 0. -1.
        -11    1    3    3    0    0 -0.20158527773E+02 -0.10660812811E+02  0.34687496170E+02  0.41511944818E+02  0.51100000000E-03 0.  1.
         12    1    3    3    0    0  0.22098849108E+02  0.23348700619E+01 -0.32520760725E+02  0.39387950292E+02  0.00000000000E+00 0. -1.
</event>
<event>
 7    1  0.2090370E-015  0.9000778E+02  0.7816164E-02  0.1186339E+00
        -11   -1    0    0    0    0  0.00000000000E+00  0.00000000000E+00  0.45593999997E+02  0.45594000000E+02  0.51100000000E-03 0.  1.
         11   -1    0    0    0    0 -0.00000000000E+00 -0.00000000000E+00 -0.45593999997E+02  0.45594000000E+02  0.51100000000E-03 0. -1.
    9900012    2    1    2    0    0  0.10423422637E+01  0.39824757502E-01  0.55212930057E+00  0.90007783846E+02  0.90000045793E+02 0.  0.
         12    1    1    2    0    0 -0.10423422637E+01 -0.39824757502E-01 -0.55212930057E+00  0.11802161542E+01  0.00000000000E+00 0. -1.
         11    1    3    3    0    0  0.43433318984E+01 -0.67896129088E+01  0.51835031668E+01  0.95829056540E+01  0.51100000000E-03 0. -1.
        -11    1    3    3    0    0 -0.20610898914E+01 -0.36503262470E+02  0.17707015547E+01  0.36604257222E+02  0.51100000000E-03 0.  1.
         12    1    3    3    0    0 -0.12398997433E+01  0.43332700137E+02 -0.64020754210E+01  0.43820620970E+02  0.00000000000E+00 0. -1.
</event>
<event>
 7    1  0.2090370E-015  0.9000765E+02  0.7816164E-02  0.1186339E+00
        -11   -1    0    0    0    0  0.00000000000E+00  0.00000000000E+00  0.45593999997E+02  0.45594000000E+02  0.51100000000E-03 0. -1.
         11   -1    0    0    0    0 -0.00000000000E+00 -0.00000000000E+00 -0.45593999997E+02  0.45594000000E+02  0.51100000000E-03 0.  1.
    9900012    2    1    2    0    0 -0.44077349035E+00  0.48745679613E-01 -0.10938825841E+01  0.90007645596E+02  0.89999905718E+02 0.  0.
         12    1    1    2    0    0  0.44077349035E+00 -0.48745679613E-01  0.10938825841E+01  0.11803544040E+01  0.00000000000E+00 0. -1.
         11    1    3    3    0    0 -0.22802782493E+02 -0.23131034367E+02  0.15432592512E+02  0.35960764066E+02  0.51100000000E-03 0. -1.
        -11    1    3    3    0    0  0.32497152543E+00 -0.10063836400E+02 -0.89025693189E+01  0.13440318088E+02  0.51100000000E-03 0.  1.
        -12    1    3    3    0    0  0.22037037477E+02  0.33243616447E+02 -0.76239057774E+01  0.40606563441E+02  0.00000000000E+00 0.  1.
</event>
<event>
 7    1  0.2090370E-015  0.9000793E+02  0.7816164E-02  0.1186339E+00
        -11   -1    0    0    0    0  0.00000000000E+00  0.00000000000E+00  0.45593999997E+02  0.45594000000E+02  0.51100000000E-03 0. -1.
         11   -1    0    0    0    0 -0.00000000000E+00 -0.00000000000E+00 -0.45593999997E+02  0.45594000000E+02  0.51100000000E-03 0.  1.
    9900012    2    1    2    0    0  0.76333693120E+00  0.85704705064E+00 -0.27451862683E+00  0.90007926530E+02  0.90000190360E+02 0.  0.
         12    1    1    2    0    0 -0.76333693120E+00 -0.85704705064E+00  0.27451862683E+00  0.11800734698E+01  0.00000000000E+00 0. -1.
         11    1    3    3    0    0  0.28742932634E+02 -0.57154022847E+01  0.22491437482E+02  0.36941666990E+02  0.51100000000E-03 0. -1.
        -11    1    3    3    0    0  0.33168023792E+01  0.36022731878E+01  0.78061916813E+01  0.92148889830E+01  0.51100000000E-03 0.  1.
        -12    1    3    3    0    0 -0.31296398082E+02  0.29701761475E+01 -0.30572147791E+02  0.43851370558E+02  0.00000000000E+00 0.  1.
</event>
<event>
 7    1  0.2090370E-015  0.9000771E+02  0.7816164E-02  0.1186339E+00
        -11   -1    0    0    0    0  0.00000000000E+00  0.00000000000E+00  0.45593999997E+02  0.45594000000E+02  0.51100000000E-03 0. -1.
         11   -1    0    0    0    0 -0.00000000000E+00 -0.00000000000E+00 -0.45593999997E+02  0.45594000000E+02  0.51100000000E-03 0.  1.
    9900012    2    1    2    0    0  0.97420227879E+00  0.80964060637E-01 -0.66141264678E+00  0.90007706838E+02  0.89999967768E+02 0.  0.
         12    1    1    2    0    0 -0.97420227879E+00 -0.80964060637E-01  0.66141264678E+00  0.11802931621E+01  0.00000000000E+00 0. -1.
         11    1    3    3    0    0 -0.72641989109E+01 -0.21112648101E+02  0.25220345169E+02  0.33683501991E+02  0.51100000000E-03 0. -1.
        -11    1    3    3    0    0 -0.10554560834E+02  0.15374267839E+01  0.76686252341E+01  0.13136599588E+02  0.51100000000E-03 0.  1.
        -12    1    3    3    0    0  0.18792962023E+02  0.19656185378E+02 -0.33550383050E+02  0.43187605259E+02  0.00000000000E+00 0.  1.
</event>
<event>
 7    1  0.2090370E-015  0.9000765E+02  0.7816164E-02  0.1186339E+00
        -11   -1    0    0    0    0  0.00000000000E+00  0.00000000000E+00  0.45593999997E+02  0.45594000000E+02  0.51100000000E-03 0.  1.
         11   -1    0    0    0    0 -0.00000000000E+00 -0.00000000000E+00 -0.45593999997E+02  0.45594000000E+02  0.51100000000E-03 0. -1.
    9900012    2    1    2    0    0 -0.29853965366E+00 -0.46323409954E+00  0.10437976059E+01  0.90007650392E+02  0.89999910577E+02 0.  0.
         12    1    1    2    0    0  0.29853965366E+00  0.46323409954E+00 -0.10437976059E+01  0.11803496083E+01  0.00000000000E+00 0. -1.
         11    1    3    3    0    0 -0.24273207292E+02  0.25224711926E+02 -0.12046068218E+02  0.37021378199E+02  0.51100000000E-03 0. -1.
        -11    1    3    3    0    0  0.42537713932E+01  0.94655515191E+01 -0.65955753251E+00  0.10398377423E+02  0.51100000000E-03 0.  1.
        -12    1    3    3    0    0  0.19720896245E+02 -0.35153497544E+02  0.13749423356E+02  0.42587894770E+02  0.00000000000E+00 0.  1.
</event>
<event>
 7    1  0.2090370E-015  0.9000790E+02  0.7816164E-02  0.1186339E+00
        -11   -1    0    0    0    0  0.00000000000E+00  0.00000000000E+00  0.45593999997E+02  0.45594000000E+02  0.51100000000E-03 0.  1.
         11   -1    0    0    0    0 -0.00000000000E+00 -0.00000000000E+00 -0.45593999997E+02  0.45594000000E+02  0.51100000000E-03 0. -1.
    9900012    2    1    2    0    0 -0.63848553673E+00 -0.72157779069E+00  0.68140040600E+00  0.90007896275E+02  0.90000159706E+02 0.  0.
         12    1    1    2    0    0  0.63848553673E+00  0.72157779069E+00 -0.68140040600E+00  0.11801037251E+01  0.00000000000E+00 0. -1.
         11    1    3    3    0    0 -0.31178716080E+02  0.14191489513E+02 -0.22521114521E+02  0.40996479245E+02  0.51100000000E-03 0. -1.
        -11    1    3    3    0    0  0.40335380214E+01 -0.11232855439E+01 -0.59440755558E+01  0.72707106845E+01  0.51100000000E-03 0.  1.
        -12    1    3    3    0    0  0.26506692521E+02 -0.13789781760E+02  0.29146590483E+02  0.41740706345E+02  0.00000000000E+00 0.  1.
</event>
<event>
 7    1  0.2090370E-015  0.9000744E+02  0.7816164E-02  0.1186340E+00
        -11   -1    0    0    0    0  0.00000000000E+00  0.00000000000E+00  0.45593999997E+02  0.45594000000E+02  0.51100000000E-03 0.  1.
         11   -1    0    0    0    0 -0.00000000000E+00 -0.00000000000E+00 -0.45593999997E+02  0.45594000000E+02  0.51100000000E-03 0. -1.
    9900012    2    1    2    0    0  0.91683298849E+00  0.69887704024E+00 -0.25437602908E+00  0.90007441230E+02  0.89999698653E+02 0.  0.
         12    1    1    2    0    0 -0.91683298849E+00 -0.69887704024E+00  0.25437602908E+00  0.11805587704E+01  0.00000000000E+00 0. -1.
         11    1    3    3    0    0  0.18251068652E+02  0.76653306778E+01 -0.36631883897E+02  0.41638368357E+02  0.51100000000E-03 0. -1.
        -11    1    3    3    0    0 -0.17333928874E+00 -0.88921309756E+01  0.93416329172E+00  0.89427457256E+01  0.51100000000E-03 0.  1.
        -12    1    3    3    0    0 -0.17160896374E+02  0.19256773380E+01  0.35443344576E+02  0.39426327147E+02  0.00000000000E+00 0.  1.
</event>
<event>
 7    1  0.2090370E-015  0.9000785E+02  0.7816164E-02  0.1186339E+00
        -11   -1    0    0    0    0  0.00000000000E+00  0.00000000000E+00  0.45593999997E+02  0.45594000000E+02  0.51100000000E-03 0.  1.
         11   -1    0    0    0    0 -0.00000000000E+00 -0.00000000000E+00 -0.45593999997E+02  0.45594000000E+02  0.51100000000E-03 0. -1.
    9900012    2    1    2    0    0  0.23410752553E+00  0.61895478549E+00 -0.97716208457E+00  0.90007848696E+02  0.90000111499E+02 0.  0.
         12    1    1    2    0    0 -0.23410752553E+00 -0.61895478549E+00  0.97716208457E+00  0.11801513037E+01  0.00000000000E+00 0. -1.
         11    1    3    3    0    0  0.61068450016E+01 -0.58565628741E+01 -0.66593440232E+01  0.10767532106E+02  0.51100000000E-03 0. -1.
        -11    1    3    3    0    0  0.87157410622E+01  0.40802041517E+02  0.22073783526E+01  0.41780895798E+02  0.51100000000E-03 0.  1.
         12    1    3    3    0    0 -0.14588478538E+02 -0.34326523857E+02  0.34748035860E+01  0.37459420793E+02  0.00000000000E+00 0. -1.
</event>
<event>
 7    1  0.2090370E-015  0.9000774E+02  0.7816164E-02  0.1186339E+00
        -11   -1    0    0    0    0  0.00000000000E+00  0.00000000000E+00  0.45593999997E+02  0.45594000000E+02  0.51100000000E-03 0. -1.
         11   -1    0    0    0    0 -0.00000000000E+00 -0.00000000000E+00 -0.45593999997E+02  0.45594000000E+02  0.51100000000E-03 0.  1.
    9900012    2    1    2    0    0 -0.60036238045E+00  0.61223330590E+00 -0.81101296972E+00  0.90007742975E+02  0.90000004382E+02 0.  0.
         12    1    1    2    0    0  0.60036238045E+00 -0.61223330590E+00  0.81101296972E+00  0.11802570253E+01  0.00000000000E+00 0. -1.
         11    1    3    3    0    0 -0.44713697686E+01 -0.48900558630E+01  0.70352300513E+01  0.96643807917E+01  0.51100000000E-03 0. -1.
        -11    1    3    3    0    0 -0.30500513206E+02 -0.20566121823E+02 -0.47780357728E+01  0.37095502406E+02  0.51100000000E-03 0.  1.
         12    1    3    3    0    0  0.34371520594E+02  0.26068410992E+02 -0.30682072483E+01  0.43247859777E+02  0.00000000000E+00 0. -1.
</event>
<event>
 7    1  0.2090370E-015  0.9000777E+02  0.7816164E-02  0.1186339E+00
        -11   -1    0    0    0    0  0.00000000000E+00  0.00000000000E+00  0.45593999997E+02  0.45594000000E+02  0.51100000000E-03 0. -1.
         11   -1    0    0    0    0 -0.00000000000E+00 -0.00000000000E+00 -0.45593999997E+02  0.45594000000E+02  0.51100000000E-03 0.  1.
    9900012    2    1    2    0    0  0.96971088751E+00 -0.39993335488E+00 -0.54098352961E+00  0.90007767365E+02  0.90000029094E+02 0.  0.
         12    1    1    2    0    0 -0.96971088751E+00  0.39993335488E+00  0.54098352961E+00  0.11802326351E+01  0.00000000000E+00 0. -1.
         11    1    3    3    0    0 -0.68205252417E+01  0.28089849128E+01 -0.67759179755E+01  0.10016138252E+02  0.51100000000E-03 0. -1.
        -11    1    3    3    0    0 -0.19948580962E+02 -0.27471497646E+02 -0.15375913252E+02  0.37269931230E+02  0.51100000000E-03 0.  1.
         12    1    3    3    0    0  0.27738817091E+02  0.24262579379E+02  0.21610847698E+02  0.42721697882E+02  0.00000000000E+00 0. -1.
</event>
<event>
 7    1  0.2090370E-015  0.9000759E+02  0.7816164E-02  0.1186339E+00
        -11   -1    0    0    0    0  0.00000000000E+00  0.00000000000E+00  0.45593999997E+02  0.45594000000E+02  0.51100000000E-03 0.  1.
         11   -1    0    0    0    0 -0.00000000000E+00 -0.00000000000E+00 -0.45593999997E+02  0.45594000000E+02  0.51100000000E-03 0. -1.
    9900012    2    1    2    0    0  0.95656336672E+00  0.62541322254E+00 -0.29531737826E+00  0.90007590102E+02  0.89999849491E+02 0.  0.
         12    1    1    2    0    0 -0.95656336672E+00 -0.62541322254E+00  0.29531737826E+00  0.11804098980E+01  0.00000000000E+00 0. -1.
         11    1    3    3    0    0  0.29227598515E+02  0.29421764472E+02 -0.16759008754E+02  0.44729823544E+02  0.51100000000E-03 0. -1.
        -11    1    3    3    0    0 -0.10461198560E+02 -0.37699557688E+01  0.18902075631E+01  0.11279278643E+02  0.51100000000E-03 0.  1.
        -12    1    3    3    0    0 -0.17809836589E+02 -0.25026395481E+02  0.14573483813E+02  0.33998487915E+02  0.00000000000E+00 0.  1.
</event>
<event>
 7    1  0.2090370E-015  0.9000769E+02  0.7816164E-02  0.1186339E+00
        -11   -1    0    0    0    0  0.00000000000E+00  0.00000000000E+00  0.45593999997E+02  0.45594000000E+02  0.51100000000E-03 0.  1.
         11   -1    0    0    0    0 -0.00000000000E+00 -0.00000000000E+00 -0.45593999997E+02  0.45594000000E+02  0.51100000000E-03 0. -1.
    9900012    2    1    2    0    0  0.52710853985E+00 -0.69813182961E+00 -0.79239976670E+00  0.90007691204E+02  0.89999951928E+02 0.  0.
         12    1    1    2    0    0 -0.52710853985E+00  0.69813182961E+00  0.79239976670E+00  0.11803087963E+01  0.00000000000E+00 0. -1.
         11    1    3    3    0    0  0.30050681360E+01 -0.10327320376E+02 -0.37783300973E+01  0.11399989440E+02  0.51100000000E-03 0. -1.
        -11    1    3    3    0    0  0.32569167225E+02 -0.77345605227E+01  0.16376785172E+02  0.37266247102E+02  0.51100000000E-03 0.  1.
         12    1    3    3    0    0 -0.35047126822E+02  0.17363749069E+02 -0.13390854841E+02  0.41341454662E+02  0.00000000000E+00 0. -1.
</event>
<event>
 7    1  0.2090370E-015  0.9000780E+02  0.7816164E-02  0.1186339E+00
        -11   -1    0    0    0    0  0.00000000000E+00  0.00000000000E+00  0.45593999997E+02  0.45594000000E+02  0.51100000000E-03 0. -1.
         11   -1    0    0    0    0 -0.00000000000E+00 -0.00000000000E+00 -0.45593999997E+02  0.45594000000E+02  0.51100000000E-03 0.  1.
    9900012    2    1    2    0    0  0.68354879865E+00  0.40202387204E-01 -0.96125416314E+00  0.90007803085E+02  0.90000065286E+02 0.  0.
         12    1    1    2    0    0 -0.68354879865E+00 -0.40202387204E-01  0.96125416314E+00  0.11801969150E+01  0.00000000000E+00 0. -1.
         11    1    3    3    0    0 -0.35469731114E+01 -0.10284560010E+02 -0.88127071140E+01  0.14000607122E+02  0.51100000000E-03 0. -1.
        -11    1    3    3    0    0  0.25907554644E+02 -0.17210389920E+02 -0.14629922003E+02  0.34371987532E+02  0.51100000000E-03 0.  1.
         12    1    3    3    0    0 -0.21677032734E+02  0.27535152317E+02  0.22481374954E+02  0.41635208431E+02  0.00000000000E+00 0. -1.
</event>
<event>
 7    1  0.2090370E-015  0.9000773E+02  0.7816164E-02  0.1186339E+00
        -11   -1    0    0    0    0  0.00000000000E+00  0.00000000000E+00  0.45593999997E+02  0.45594000000E+02  0.51100000000E-03 0.  1.
         11   -1    0    0    0    0 -0.00000000000E+00 -0.00000000000E+00 -0.45593999997E+02  0.45594000000E+02  0.51100000000E-03 0. -1.
    9900012    2    1    2    0    0 -0.98972339570E+00  0.63692474306E+00  0.88429065410E-01  0.90007726630E+02  0.89999987822E+02 0.  0.
         12    1    1    2    0    0  0.98972339570E+00 -0.63692474306E+00 -0.88429065410E-01  0.11802733700E+01  0.00000000000E+00 0. -1.
         11    1    3    3    0    0  0.31491171834E+01  0.20251668028E+02 -0.22945225131E+02  0.30765733431E+02  0.51100000000E-03 0. -1.
        -11    1    3    3    0    0 -0.24018035687E+02 -0.41857798989E+01 -0.10602007085E+01  0.24403090325E+02  0.51100000000E-03 0.  1.
        -12    1    3    3    0    0  0.19879195108E+02 -0.15428963386E+02  0.24093854905E+02  0.34838902874E+02  0.00000000000E+00 0.  1.
</event>
<event>
 7    1  0.2090370E-015  0.9000776E+02  0.7816164E-02  0.1186339E+00
        -11   -1    0    0    0    0  0.00000000000E+00  0.00000000000E+00  0.45593999997E+02  0.45594000000E+02  0.51100000000E-03 0. -1.
         11   -1    0    0    0    0 -0.00000000000E+00 -0.00000000000E+00 -0.45593999997E+02  0.45594000000E+02  0.51100000000E-03 0.  1.
    9900012    2    1    2    0    0  0.11714930069E+01 -0.75306274037E-02  0.14323797093E+00  0.90007758630E+02  0.90000020244E+02 0.  0.
         12    1    1    2    0    0 -0.11714930069E+01  0.75306274037E-02 -0.14323797093E+00  0.11802413702E+01  0.00000000000E+00 0. -1.
         11    1    3    3    0    0  0.55713627446E+01  0.25032718304E+01  0.35822655989E+00  0.61183967849E+01  0.51100000000E-03 0. -1.
        -11    1    3    3    0    0  0.81534644895E+01 -0.39377606367E+02  0.13775943388E+02  0.42507075680E+02  0.51100000000E-03 0.  1.
         12    1    3    3    0    0 -0.12553334227E+02  0.36866803909E+02 -0.13990931977E+02  0.41382286165E+02  0.00000000000E+00 0. -1.
</event>
<event>
 7    1  0.2090370E-015  0.9000796E+02  0.7816164E-02  0.1186339E+00
        -11   -1    0    0    0    0  0.00000000000E+00  0.00000000000E+00  0.45593999997E+02  0.45594000000E+02  0.51100000000E-03 0. -1.
         11   -1    0    0    0    0 -0.00000000000E+00 -0.00000000000E+00 -0.45593999997E+02  0.45594000000E+02  0.51100000000E-03 0.  1.
    9900012    2    1    2    0    0  0.10025324894E+01 -0.25764251142E+00 -0.56660985051E+00  0.90007958569E+02  0.90000222822E+02 0.  0.
         12    1    1    2    0    0 -0.10025324894E+01  0.25764251142E+00  0.56660985051E+00  0.11800414309E+01  0.00000000000E+00 0. -1.
         11    1    3    3    0    0 -0.86241945914E+01  0.63082579588E+00  0.58917379174E+01  0.10463615507E+02  0.51100000000E-03 0. -1.
        -11    1    3    3    0    0 -0.25353480988E+02  0.20838094685E+02 -0.17110188180E+02  0.37010589405E+02  0.51100000000E-03 0.  1.
         12    1    3    3    0    0  0.34980208068E+02 -0.21726562992E+02  0.10651840412E+02  0.42533753657E+02  0.00000000000E+00 0. -1.
</event>
<event>
 7    1  0.2090370E-015  0.9000784E+02  0.7816164E-02  0.1186339E+00
        -11   -1    0    0    0    0  0.00000000000E+00  0.00000000000E+00  0.45593999997E+02  0.45594000000E+02  0.51100000000E-03 0.  1.
         11   -1    0    0    0    0 -0.00000000000E+00 -0.00000000000E+00 -0.45593999997E+02  0.45594000000E+02  0.51100000000E-03 0. -1.
    9900012    2    1    2    0    0  0.80531817454E+00 -0.17161087141E+00  0.84544789782E+00  0.90007843315E+02  0.90000106047E+02 0.  0.
         12    1    1    2    0    0 -0.80531817454E+00  0.17161087141E+00 -0.84544789782E+00  0.11801566851E+01  0.00000000000E+00 0. -1.
         11    1    3    3    0    0 -0.75567559645E+01 -0.44221637572E+01 -0.25873517192E+01  0.91298675884E+01  0.51100000000E-03 0. -1.
        -11    1    3    3    0    0  0.34928631344E+02 -0.92363676334E+01  0.25139782587E+02  0.44015093359E+02  0.51100000000E-03 0.  1.
         12    1    3    3    0    0 -0.26566557205E+02  0.13486920519E+02 -0.21706982970E+02  0.36862882368E+02  0.00000000000E+00 0. -1.
</event>
<event>
 7    1  0.2090370E-015  0.9000764E+02  0.7816164E-02  0.1186339E+00
        -11   -1    0    0    0    0  0.00000000000E+00  0.00000000000E+00  0.45593999997E+02  0.45594000000E+02  0.51100000000E-03 0.  1.
         11   -1    0    0    0    0 -0.00000000000E+00 -0.00000000000E+00 -0.45593999997E+02  0.45594000000E+02  0.51100000000E-03 0. -1.
    9900012    2    1    2    0    0  0.98725487799E+00  0.22916026737E+00  0.60503620480E+00  0.90007637585E+02  0.89999897601E+02 0.  0.
         12    1    1    2    0    0 -0.98725487799E+00 -0.22916026737E+00 -0.60503620480E+00  0.11803624153E+01  0.00000000000E+00 0. -1.
         11    1    3    3    0    0 -0.10900814213E+02  0.30184101837E+02  0.19187224282E+02  0.37390604838E+02  0.51100000000E-03 0. -1.
        -11    1    3    3    0    0 -0.89044443739E+01  0.22989446408E+01  0.14791463095E+01  0.93146202357E+01  0.51100000000E-03 0.  1.
        -12    1    3    3    0    0  0.20792513465E+02 -0.32253886211E+02 -0.20061334387E+02  0.43302412511E+02  0.00000000000E+00 0.  1.
</event>
<event>
 7    1  0.2090370E-015  0.9000776E+02  0.7816164E-02  0.1186339E+00
        -11   -1    0    0    0    0  0.00000000000E+00  0.00000000000E+00  0.45593999997E+02  0.45594000000E+02  0.51100000000E-03 0. -1.
         11   -1    0    0    0    0 -0.00000000000E+00 -0.00000000000E+00 -0.45593999997E+02  0.45594000000E+02  0.51100000000E-03 0.  1.
    9900012    2    1    2    0    0  0.98793139090E+00  0.22676186983E+00 -0.60460455348E+00  0.90007755938E+02  0.90000017517E+02 0.  0.
         12    1    1    2    0    0 -0.98793139090E+00 -0.22676186983E+00  0.60460455348E+00  0.11802440616E+01  0.00000000000E+00 0. -1.
         11    1    3    3    0    0  0.22559359258E+01 -0.12004903490E+00  0.16418235058E+02  0.16572932792E+02  0.51100000000E-03 0. -1.
        -11    1    3    3    0    0  0.46368340805E+01 -0.21682034043E+02 -0.36987680146E+02  0.43124231163E+02  0.51100000000E-03 0.  1.
         12    1    3    3    0    0 -0.59048386153E+01  0.22028844947E+02  0.19964840535E+02  0.30310591983E+02  0.00000000000E+00 0. -1.
</event>
<event>
 7    1  0.2090370E-015  0.9000772E+02  0.7816164E-02  0.1186339E+00
        -11   -1    0    0    0    0  0.00000000000E+00  0.00000000000E+00  0.45593999997E+02  0.45594000000E+02  0.51100000000E-03 0.  1.
         11   -1    0    0    0    0 -0.00000000000E+00 -0.00000000000E+00 -0.45593999997E+02  0.45594000000E+02  0.51100000000E-03 0. -1.
    9900012    2    1    2    0    0  0.47957715339E+00  0.90441332310E+00  0.58746255525E+00  0.90007716153E+02  0.89999977206E+02 0.  0.
         12    1    1    2    0    0 -0.47957715339E+00 -0.90441332310E+00 -0.58746255525E+00  0.11802838467E+01  0.00000000000E+00 0. -1.
         11    1    3    3    0    0  0.22597435659E+01 -0.23780564431E+00  0.99145805719E+01  0.10171622323E+02  0.51100000000E-03 0. -1.
        -11    1    3    3    0    0  0.16822952998E+02  0.12520584142E+01  0.31073884333E+02  0.35357682130E+02  0.51100000000E-03 0.  1.
         12    1    3    3    0    0 -0.18603119411E+02 -0.10983944676E+00 -0.40401002349E+02  0.44478411700E+02  0.00000000000E+00 0. -1.
</event>
<event>
 7    1  0.2453816E-015  0.9000767E+02  0.7816164E-02  0.1186339E+00
        -11   -1    0    0    0    0  0.00000000000E+00  0.00000000000E+00  0.45593999997E+02  0.45594000000E+02  0.51100000000E-03 0.  1.
         11   -1    0    0    0    0 -0.00000000000E+00 -0.00000000000E+00 -0.45593999997E+02  0.45594000000E+02  0.51100000000E-03 0. -1.
    9900012    2    1    2    0    0 -0.11262991216E+01 -0.34239643761E+00  0.85928380885E-01  0.90007674317E+02  0.89999934818E+02 0.  0.
         12    1    1    2    0    0  0.11262991216E+01  0.34239643761E+00 -0.85928380885E-01  0.11803256833E+01  0.00000000000E+00 0. -1.
         11    1    3    3    0    0 -0.14098923842E+02  0.33246504631E+02 -0.21204787831E+02  0.41877831259E+02  0.51100000000E-03 0. -1.
        -11    1    3    3    0    0  0.91467107961E+01 -0.56352175399E+00  0.10925445495E+01  0.92289505908E+01  0.51100000000E-03 0.  1.
        -12    1    3    3    0    0  0.38259139241E+01 -0.33025379315E+02  0.20198171663E+02  0.38900892467E+02  0.00000000000E+00 0.  1.
</event>
<event>
 7    1  0.2090370E-015  0.9000775E+02  0.7816164E-02  0.1186339E+00
        -11   -1    0    0    0    0  0.00000000000E+00  0.00000000000E+00  0.45593999997E+02  0.45594000000E+02  0.51100000000E-03 0.  1.
         11   -1    0    0    0    0 -0.00000000000E+00 -0.00000000000E+00 -0.45593999997E+02  0.45594000000E+02  0.51100000000E-03 0. -1.
    9900012    2    1    2    0    0 -0.77544803661E+00 -0.33705741731E-01  0.88912140158E+00  0.90007748924E+02  0.90000010410E+02 0.  0.
         12    1    1    2    0    0  0.77544803661E+00  0.33705741731E-01 -0.88912140158E+00  0.11802510755E+01  0.00000000000E+00 0. -1.
         11    1    3    3    0    0  0.63725827404E+01  0.39881534710E+02 -0.10407736333E+02  0.41706925054E+02  0.51100000000E-03 0. -1.
        -11    1    3    3    0    0  0.71367832448E+01 -0.41250621606E+01  0.36439147653E+01  0.90126537707E+01  0.51100000000E-03 0.  1.
        -12    1    3    3    0    0 -0.14284814022E+02 -0.35790178291E+02  0.76529429691E+01  0.39288170100E+02  0.00000000000E+00 0.  1.
</event>
<event>
 7    1  0.2090370E-015  0.9000771E+02  0.7816164E-02  0.1186339E+00
        -11   -1    0    0    0    0  0.00000000000E+00  0.00000000000E+00  0.45593999997E+02  0.45594000000E+02  0.51100000000E-03 0.  1.
         11   -1    0    0    0    0 -0.00000000000E+00 -0.00000000000E+00 -0.45593999997E+02  0.45594000000E+02  0.51100000000E-03 0. -1.
    9900012    2    1    2    0    0  0.64160872046E+00 -0.99045286116E+00  0.20498219809E-01  0.90007712409E+02  0.89999973413E+02 0.  0.
         12    1    1    2    0    0 -0.64160872046E+00  0.99045286116E+00 -0.20498219809E-01  0.11802875910E+01  0.00000000000E+00 0. -1.
         11    1    3    3    0    0 -0.28822575945E+02 -0.26874660633E+02 -0.57297249503E+01  0.39822330626E+02  0.51100000000E-03 0. -1.
        -11    1    3    3    0    0 -0.21884283117E+00 -0.30854599017E+01  0.80712850536E+01  0.86437027753E+01  0.51100000000E-03 0.  1.
        -12    1    3    3    0    0  0.29683027497E+02  0.28969667673E+02 -0.23210618835E+01  0.41541679007E+02  0.00000000000E+00 0.  1.
</event>
<event>
 7    1  0.2090370E-015  0.9000768E+02  0.7816164E-02  0.1186339E+00
        -11   -1    0    0    0    0  0.00000000000E+00  0.00000000000E+00  0.45593999997E+02  0.45594000000E+02  0.51100000000E-03 0.  1.
         11   -1    0    0    0    0 -0.00000000000E+00 -0.00000000000E+00 -0.45593999997E+02  0.45594000000E+02  0.51100000000E-03 0. -1.
    9900012    2    1    2    0    0 -0.82763806993E+00 -0.48701197681E+00  0.68628587107E+00  0.90007680663E+02  0.89999941248E+02 0.  0.
         12    1    1    2    0    0  0.82763806993E+00  0.48701197681E+00 -0.68628587107E+00  0.11803193370E+01  0.00000000000E+00 0. -1.
         11    1    3    3    0    0 -0.13332054398E+01  0.10682985498E+00 -0.99519126212E+01  0.10041385086E+02  0.51100000000E-03 0. -1.
        -11    1    3    3    0    0 -0.37345368126E+02  0.33869690844E+00  0.17898047940E+02  0.41414144400E+02  0.51100000000E-03 0.  1.
         12    1    3    3    0    0  0.37850935495E+02 -0.93253874023E+00 -0.72598494482E+01  0.38552151177E+02  0.00000000000E+00 0. -1.
</event>
<event>
 7    1  0.2090370E-015  0.9000778E+02  0.7816164E-02  0.1186339E+00
        -11   -1    0    0    0    0  0.00000000000E+00  0.00000000000E+00  0.45593999997E+02  0.45594000000E+02  0.51100000000E-03 0.  1.
         11   -1    0    0    0    0 -0.00000000000E+00 -0.00000000000E+00 -0.45593999997E+02  0.45594000000E+02  0.51100000000E-03 0. -1.
    9900012    2    1    2    0    0 -0.10166935629E+01 -0.37800722812E+00  0.46514413031E+00  0.90007782085E+02  0.90000044008E+02 0.  0.
         12    1    1    2    0    0  0.10166935629E+01  0.37800722812E+00 -0.46514413031E+00  0.11802179152E+01  0.00000000000E+00 0. -1.
         11    1    3    3    0    0 -0.56516510706E+01  0.21969182068E+02  0.23681002261E+02  0.32792925898E+02  0.51100000000E-03 0. -1.
        -11    1    3    3    0    0 -0.19173378158E+02 -0.69087952789E+00 -0.35905837597E+01  0.19518914839E+02  0.51100000000E-03 0.  1.
        -12    1    3    3    0    0  0.23808335665E+02 -0.21656309769E+02 -0.19625274371E+02  0.37695941348E+02  0.00000000000E+00 0.  1.
</event>
<event>
 7    1  0.2090370E-015  0.9000779E+02  0.7816164E-02  0.1186339E+00
        -11   -1    0    0    0    0  0.00000000000E+00  0.00000000000E+00  0.45593999997E+02  0.45594000000E+02  0.51100000000E-03 0.  1.
         11   -1    0    0    0    0 -0.00000000000E+00 -0.00000000000E+00 -0.45593999997E+02  0.45594000000E+02  0.51100000000E-03 0. -1.
    9900012    2    1    2    0    0 -0.11554611092E+01  0.26382423177E-01  0.23896394535E+00  0.90007792317E+02  0.90000054376E+02 0.  0.
         12    1    1    2    0    0  0.11554611092E+01 -0.26382423177E-01 -0.23896394535E+00  0.11802076827E+01  0.00000000000E+00 0. -1.
         11    1    3    3    0    0  0.44482249783E+01 -0.39479803012E+01 -0.74280657887E+01  0.95157456639E+01  0.51100000000E-03 0. -1.
        -11    1    3    3    0    0  0.31614893391E+02 -0.17884962116E+02 -0.15483533542E+01  0.36356165260E+02  0.51100000000E-03 0.  1.
         12    1    3    3    0    0 -0.37218579479E+02  0.21859324841E+02  0.92153830883E+01  0.44135881393E+02  0.00000000000E+00 0. -1.
</event>
<event>
 7    1  0.2090370E-015  0.9000779E+02  0.7816164E-02  0.1186339E+00
        -11   -1    0    0    0    0  0.00000000000E+00  0.00000000000E+00  0.45593999997E+02  0.45594000000E+02  0.51100000000E-03 0. -1.
         11   -1    0    0    0    0 -0.00000000000E+00 -0.00000000000E+00 -0.45593999997E+02  0.45594000000E+02  0.51100000000E-03 0.  1.
    9900012    2    1    2    0    0 -0.54553986328E+00 -0.10463151817E+01 -0.22356238136E-01  0.90007792813E+02  0.90000054879E+02 0.  0.
         12    1    1    2    0    0  0.54553986328E+00  0.10463151817E+01  0.22356238136E-01  0.11802071866E+01  0.00000000000E+00 0. -1.
         11    1    3    3    0    0 -0.39723628180E+01 -0.13486215505E+02 -0.90757581871E+01  0.16734009141E+02  0.51100000000E-03 0. -1.
        -11    1    3    3    0    0 -0.18047110514E+02 -0.23952175188E+02  0.78539069406E+01  0.31001431397E+02  0.51100000000E-03 0.  1.
         12    1    3    3    0    0  0.21473933468E+02  0.36392075512E+02  0.11994950084E+01  0.42272352276E+02  0.00000000000E+00 0. -1.
</event>
<event>
 7    1  0.2090370E-015  0.9000739E+02  0.7816164E-02  0.1186340E+00
        -11   -1    0    0    0    0  0.00000000000E+00  0.00000000000E+00  0.45593999997E+02  0.45594000000E+02  0.51100000000E-03 0. -1.
         11   -1    0    0    0    0 -0.00000000000E+00 -0.00000000000E+00 -0.45593999997E+02  0.45594000000E+02  0.51100000000E-03 0.  1.
    9900012    2    1    2    0    0 -0.18980526665E+00  0.77770960936E+00 -0.86774858259E+00  0.90007387499E+02  0.89999644213E+02 0.  0.
         12    1    1    2    0    0  0.18980526665E+00 -0.77770960936E+00  0.86774858259E+00  0.11806125013E+01  0.00000000000E+00 0. -1.
         11    1    3    3    0    0  0.77409185740E+01 -0.50844994581E+01  0.34029456583E+01  0.98668127845E+01  0.51100000000E-03 0. -1.
        -11    1    3    3    0    0 -0.46122179735E+01 -0.32998710503E+02 -0.19109949759E+02  0.38410644743E+02  0.51100000000E-03 0.  1.
         12    1    3    3    0    0 -0.33185058671E+01  0.38860919571E+02  0.14839255518E+02  0.41729929971E+02  0.00000000000E+00 0. -1.
</event>
<event>
 7    1  0.2090370E-015  0.9000773E+02  0.7816164E-02  0.1186339E+00
        -11   -1    0    0    0    0  0.00000000000E+00  0.00000000000E+00  0.45593999997E+02  0.45594000000E+02  0.51100000000E-03 0. -1.
         11   -1    0    0    0    0 -0.00000000000E+00 -0.00000000000E+00 -0.45593999997E+02  0.45594000000E+02  0.51100000000E-03 0.  1.
    9900012    2    1    2    0    0  0.88272146903E+00  0.76001411225E+00 -0.19029172160E+00  0.90007733258E+02  0.89999994537E+02 0.  0.
         12    1    1    2    0    0 -0.88272146903E+00 -0.76001411225E+00  0.19029172160E+00  0.11802667419E+01  0.00000000000E+00 0. -1.
         11    1    3    3    0    0 -0.10387258388E+02 -0.27321888854E+02  0.16034620921E+02  0.33339013419E+02  0.51100000000E-03 0. -1.
        -11    1    3    3    0    0 -0.10694371779E+02 -0.49447401451E+01  0.36091206834E+01  0.12322572589E+02  0.51100000000E-03 0.  1.
        -12    1    3    3    0    0  0.21964351636E+02  0.33026643111E+02 -0.19834033326E+02  0.44346147251E+02  0.00000000000E+00 0.  1.
</event>
<event>
 7    1  0.2090370E-015  0.9000780E+02  0.7816164E-02  0.1186339E+00
        -11   -1    0    0    0    0  0.00000000000E+00  0.00000000000E+00  0.45593999997E+02  0.45594000000E+02  0.51100000000E-03 0.  1.
         11   -1    0    0    0    0 -0.00000000000E+00 -0.00000000000E+00 -0.45593999997E+02  0.45594000000E+02  0.51100000000E-03 0. -1.
    9900012    2    1    2    0    0  0.31212797650E+00  0.10637744232E+01  0.40476700029E+00  0.90007798228E+02  0.90000060365E+02 0.  0.
         12    1    1    2    0    0 -0.31212797650E+00 -0.10637744232E+01 -0.40476700029E+00  0.11802017716E+01  0.00000000000E+00 0. -1.
         11    1    3    3    0    0  0.17366620807E+02 -0.12195597307E+02 -0.28536684188E+02  0.35562261692E+02  0.51100000000E-03 0. -1.
        -11    1    3    3    0    0  0.10247366034E+02  0.43103793688E+00 -0.28250313191E+01  0.10638378944E+02  0.51100000000E-03 0.  1.
        -12    1    3    3    0    0 -0.27301858865E+02  0.12828333794E+02  0.31766482508E+02  0.43807157592E+02  0.00000000000E+00 0.  1.
</event>
<event>
 7    1  0.2090370E-015  0.9000787E+02  0.7816164E-02  0.1186339E+00
        -11   -1    0    0    0    0  0.00000000000E+00  0.00000000000E+00  0.45593999997E+02  0.45594000000E+02  0.51100000000E-03 0. -1.
         11   -1    0    0    0    0 -0.00000000000E+00 -0.00000000000E+00 -0.45593999997E+02  0.45594000000E+02  0.51100000000E-03 0.  1.
    9900012    2    1    2    0    0  0.28512131188E+00 -0.48536676508E+00 -0.10372192276E+01  0.90007873403E+02  0.90000136532E+02 0.  0.
         12    1    1    2    0    0 -0.28512131188E+00  0.48536676508E+00  0.10372192276E+01  0.11801265971E+01  0.00000000000E+00 0. -1.
         11    1    3    3    0    0 -0.67726170675E+01 -0.43415480262E+01 -0.31340142191E+01  0.86336218700E+01  0.51100000000E-03 0. -1.
        -11    1    3    3    0    0 -0.17818083502E+02 -0.57344801530E+00 -0.33366479166E+02  0.37830343304E+02  0.51100000000E-03 0.  1.
         12    1    3    3    0    0  0.24875821882E+02  0.44296292764E+01  0.35463274158E+02  0.43543908228E+02  0.00000000000E+00 0. -1.
</event>
<event>
 7    1  0.2090370E-015  0.9000759E+02  0.7816164E-02  0.1186339E+00
        -11   -1    0    0    0    0  0.00000000000E+00  0.00000000000E+00  0.45593999997E+02  0.45594000000E+02  0.51100000000E-03 0.  1.
         11   -1    0    0    0    0 -0.00000000000E+00 -0.00000000000E+00 -0.45593999997E+02  0.45594000000E+02  0.51100000000E-03 0. -1.
    9900012    2    1    2    0    0 -0.87882242321E+00  0.71335558555E+00  0.33490781668E+00  0.90007589780E+02  0.89999849164E+02 0.  0.
         12    1    1    2    0    0  0.87882242321E+00 -0.71335558555E+00 -0.33490781668E+00  0.11804102205E+01  0.00000000000E+00 0. -1.
         11    1    3    3    0    0 -0.16583186793E+01  0.20618601987E+01 -0.91653410242E+01  0.95396417476E+01  0.51100000000E-03 0. -1.
        -11    1    3    3    0    0 -0.29245081931E+02  0.21202244258E+02 -0.10904190743E+02  0.37732099793E+02  0.51100000000E-03 0.  1.
         12    1    3    3    0    0  0.30024578187E+02 -0.22550748872E+02  0.20404439584E+02  0.42735848239E+02  0.00000000000E+00 0. -1.
</event>
<event>
 7    1  0.2090370E-015  0.9000749E+02  0.7816164E-02  0.1186340E+00
        -11   -1    0    0    0    0  0.00000000000E+00  0.00000000000E+00  0.45593999997E+02  0.45594000000E+02  0.51100000000E-03 0.  1.
         11   -1    0    0    0    0 -0.00000000000E+00 -0.00000000000E+00 -0.45593999997E+02  0.45594000000E+02  0.51100000000E-03 0. -1.
    9900012    2    1    2    0    0 -0.56797399478E+00 -0.10344449510E+01 -0.30525034001E-01  0.90007490537E+02  0.89999748611E+02 0.  0.
         12    1    1    2    0    0  0.56797399478E+00  0.10344449510E+01  0.30525034001E-01  0.11805094634E+01  0.00000000000E+00 0. -1.
         11    1    3    3    0    0  0.91402074800E+01  0.26148314516E+01 -0.49666802320E+01  0.10726073330E+02  0.51100000000E-03 0. -1.
        -11    1    3    3    0    0  0.59840456052E+01 -0.32958334127E+02  0.23767876963E+02  0.41072771587E+02  0.51100000000E-03 0.  1.
         12    1    3    3    0    0 -0.15692227080E+02  0.29309057725E+02 -0.18831721765E+02  0.38208645619E+02  0.00000000000E+00 0. -1.
</event>
<event>
 7    1  0.2090370E-015  0.9000777E+02  0.7816164E-02  0.1186339E+00
        -11   -1    0    0    0    0  0.00000000000E+00  0.00000000000E+00  0.45593999997E+02  0.45594000000E+02  0.51100000000E-03 0. -1.
         11   -1    0    0    0    0 -0.00000000000E+00 -0.00000000000E+00 -0.45593999997E+02  0.45594000000E+02  0.51100000000E-03 0.  1.
    9900012    2    1    2    0    0  0.15749398186E+00 -0.20556038636E+00 -0.11514745562E+01  0.90007765667E+02  0.90000027374E+02 0.  0.
         12    1    1    2    0    0 -0.15749398186E+00  0.20556038636E+00  0.11514745562E+01  0.11802343328E+01  0.00000000000E+00 0. -1.
         11    1    3    3    0    0  0.20961298846E+02  0.10542672384E+02  0.25898551875E+02  0.34946515990E+02  0.51100000000E-03 0. -1.
        -11    1    3    3    0    0  0.11560119491E+00  0.87151347407E+01  0.65879563765E+01  0.10925571228E+02  0.51100000000E-03 0.  1.
        -12    1    3    3    0    0 -0.20919406059E+02 -0.19463367511E+02 -0.33637982808E+02  0.44135678449E+02  0.00000000000E+00 0.  1.
</event>
<event>
 7    1  0.2090370E-015  0.9000767E+02  0.7816164E-02  0.1186339E+00
        -11   -1    0    0    0    0  0.00000000000E+00  0.00000000000E+00  0.45593999997E+02  0.45594000000E+02  0.51100000000E-03 0.  1.
         11   -1    0    0    0    0 -0.00000000000E+00 -0.00000000000E+00 -0.45593999997E+02  0.45594000000E+02  0.51100000000E-03 0. -1.
    9900012    2    1    2    0    0 -0.51383158684E+00 -0.85725677339E+00  0.62791180775E+00  0.90007667287E+02  0.89999927695E+02 0.  0.
         12    1    1    2    0    0  0.51383158684E+00  0.85725677339E+00 -0.62791180775E+00  0.11803327130E+01  0.00000000000E+00 0. -1.
         11    1    3    3    0    0  0.11346475355E+02 -0.29142864030E+02 -0.23310166878E+02  0.39005293321E+02  0.51100000000E-03 0. -1.
        -11    1    3    3    0    0  0.55621632220E+01  0.39134674762E+01 -0.56899810310E+01  0.88672866081E+01  0.51100000000E-03 0.  1.
        -12    1    3    3    0    0 -0.17422470164E+02  0.24372139781E+02  0.29628059717E+02  0.42135087358E+02  0.00000000000E+00 0.  1.
</event>
<event>
 7    1  0.2090370E-015  0.9000774E+02  0.7816164E-02  0.1186339E+00
        -11   -1    0    0    0    0  0.00000000000E+00  0.00000000000E+00  0.45593999997E+02  0.45594000000E+02  0.51100000000E-03 0.  1.
         11   -1    0    0    0    0 -0.00000000000E+00 -0.00000000000E+00 -0.45593999997E+02  0.45594000000E+02  0.51100000000E-03 0. -1.
    9900012    2    1    2    0    0 -0.10838120484E+01  0.10675611400E+00  0.45493193204E+00  0.90007742195E+02  0.90000003592E+02 0.  0.
         12    1    1    2    0    0  0.10838120484E+01 -0.10675611400E+00 -0.45493193204E+00  0.11802578053E+01  0.00000000000E+00 0. -1.
         11    1    3    3    0    0  0.26415918290E+02 -0.62588714364E+01 -0.30977007986E+02  0.41189188324E+02  0.51100000000E-03 0. -1.
        -11    1    3    3    0    0 -0.84240575459E+01 -0.15597037459E+01 -0.26480210769E+01  0.89671309345E+01  0.51100000000E-03 0.  1.
        -12    1    3    3    0    0 -0.19075672793E+02  0.79253312964E+01  0.34079960995E+02  0.39851422936E+02  0.00000000000E+00 0.  1.
</event>
<event>
 7    1  0.2090370E-015  0.9000773E+02  0.7816164E-02  0.1186339E+00
        -11   -1    0    0    0    0  0.00000000000E+00  0.00000000000E+00  0.45593999997E+02  0.45594000000E+02  0.51100000000E-03 0.  1.
         11   -1    0    0    0    0 -0.00000000000E+00 -0.00000000000E+00 -0.45593999997E+02  0.45594000000E+02  0.51100000000E-03 0. -1.
    9900012    2    1    2    0    0 -0.60501751531E+00  0.62397029615E+00 -0.79852549501E+00  0.90007733890E+02  0.89999995177E+02 0.  0.
         12    1    1    2    0    0  0.60501751531E+00 -0.62397029615E+00  0.79852549501E+00  0.11802661100E+01  0.00000000000E+00 0. -1.
         11    1    3    3    0    0  0.49079345790E+01 -0.15465122033E+01 -0.88736568147E+01  0.10257743775E+02  0.51100000000E-03 0. -1.
        -11    1    3    3    0    0  0.32163582852E+02 -0.30899812186E+01 -0.14606196804E+02  0.35459625367E+02  0.51100000000E-03 0.  1.
         12    1    3    3    0    0 -0.37676534946E+02  0.52604637181E+01  0.22681328124E+02  0.44290364748E+02  0.00000000000E+00 0. -1.
</event>
<event>
 7    1  0.2090370E-015  0.9000772E+02  0.7816164E-02  0.1186339E+00
        -11   -1    0    0    0    0  0.00000000000E+00  0.00000000000E+00  0.45593999997E+02  0.45594000000E+02  0.51100000000E-03 0.  1.
         11   -1    0    0    0    0 -0.00000000000E+00 -0.00000000000E+00 -0.45593999997E+02  0.45594000000E+02  0.51100000000E-03 0. -1.
    9900012    2    1    2    0    0  0.29710402801E+00  0.10972992286E+01  0.31735416127E+00  0.90007724581E+02  0.89999985746E+02 0.  0.
         12    1    1    2    0    0 -0.29710402801E+00 -0.10972992286E+01 -0.31735416127E+00  0.11802754188E+01  0.00000000000E+00 0. -1.
         11    1    3    3    0    0  0.41010965536E+01  0.50214320966E+00  0.70820219968E+01  0.81991570646E+01  0.51100000000E-03 0. -1.
        -11    1    3    3    0    0  0.36726623160E+02 -0.39635408236E+01  0.91021985622E+01  0.38044769989E+02  0.51100000000E-03 0.  1.
         12    1    3    3    0    0 -0.40530615686E+02  0.45586968425E+01 -0.15866866398E+02  0.43763797528E+02  0.00000000000E+00 0. -1.
</event>
<event>
 7    1  0.2090370E-015  0.9000802E+02  0.7816164E-02  0.1186338E+00
        -11   -1    0    0    0    0  0.00000000000E+00  0.00000000000E+00  0.45593999997E+02  0.45594000000E+02  0.51100000000E-03 0.  1.
         11   -1    0    0    0    0 -0.00000000000E+00 -0.00000000000E+00 -0.45593999997E+02  0.45594000000E+02  0.51100000000E-03 0. -1.
    9900012    2    1    2    0    0  0.41920890470E+00 -0.16294055614E+00  0.10909020344E+01  0.90008019924E+02  0.90000284987E+02 0.  0.
         12    1    1    2    0    0 -0.41920890470E+00  0.16294055614E+00 -0.10909020344E+01  0.11799800758E+01  0.00000000000E+00 0. -1.
         11    1    3    3    0    0  0.23031812725E+01 -0.24172802584E+02 -0.37750484996E+01  0.24573970379E+02  0.51100000000E-03 0. -1.
        -11    1    3    3    0    0  0.11462126564E+02 -0.13145080618E+02 -0.13341691837E+02  0.21958466048E+02  0.51100000000E-03 0.  1.
        -12    1    3    3    0    0 -0.13346098932E+02  0.37154942646E+02  0.18207642371E+02  0.43475583498E+02  0.00000000000E+00 0.  1.
</event>
<event>
 7    1  0.2090370E-015  0.9000771E+02  0.7816164E-02  0.1186339E+00
        -11   -1    0    0    0    0  0.00000000000E+00  0.00000000000E+00  0.45593999997E+02  0.45594000000E+02  0.51100000000E-03 0. -1.
         11   -1    0    0    0    0 -0.00000000000E+00 -0.00000000000E+00 -0.45593999997E+02  0.45594000000E+02  0.51100000000E-03 0.  1.
    9900012    2    1    2    0    0 -0.45871368051E+00  0.10760887021E+01  0.15712894355E+00  0.90007714170E+02  0.89999975197E+02 0.  0.
         12    1    1    2    0    0  0.45871368051E+00 -0.10760887021E+01 -0.15712894355E+00  0.11802858299E+01  0.00000000000E+00 0. -1.
         11    1    3    3    0    0 -0.82436889151E+01  0.22135907728E+02  0.31121378277E+02  0.39070410850E+02  0.51100000000E-03 0. -1.
        -11    1    3    3    0    0 -0.29468588310E+01 -0.75451430075E+01  0.60417057587E+01  0.10105214926E+02  0.51100000000E-03 0.  1.
        -12    1    3    3    0    0  0.10731834066E+02 -0.13514676018E+02 -0.37005955092E+02  0.40832088394E+02  0.00000000000E+00 0.  1.
</event>
<event>
 7    1  0.2090370E-015  0.9000766E+02  0.7816164E-02  0.1186339E+00
        -11   -1    0    0    0    0  0.00000000000E+00  0.00000000000E+00  0.45593999997E+02  0.45594000000E+02  0.51100000000E-03 0.  1.
         11   -1    0    0    0    0 -0.00000000000E+00 -0.00000000000E+00 -0.45593999997E+02  0.45594000000E+02  0.51100000000E-03 0. -1.
    9900012    2    1    2    0    0 -0.49284313157E+00 -0.10652610027E+01  0.12461089067E+00  0.90007659697E+02  0.89999920005E+02 0.  0.
         12    1    1    2    0    0  0.49284313157E+00  0.10652610027E+01 -0.12461089067E+00  0.11803403027E+01  0.00000000000E+00 0. -1.
         11    1    3    3    0    0 -0.31440048671E+02 -0.81921765588E+01  0.12520548534E+01  0.32513936379E+02  0.51100000000E-03 0. -1.
        -11    1    3    3    0    0 -0.12322928850E+02  0.69741833766E+01  0.78248876037E+00  0.14181188178E+02  0.51100000000E-03 0.  1.
        -12    1    3    3    0    0  0.43270134390E+02  0.15273217949E+00 -0.19099327231E+01  0.43312535140E+02  0.00000000000E+00 0.  1.
</event>
<event>
 7    1  0.2090370E-015  0.9000784E+02  0.7816164E-02  0.1186339E+00
        -11   -1    0    0    0    0  0.00000000000E+00  0.00000000000E+00  0.45593999997E+02  0.45594000000E+02  0.51100000000E-03 0.  1.
         11   -1    0    0    0    0 -0.00000000000E+00 -0.00000000000E+00 -0.45593999997E+02  0.45594000000E+02  0.51100000000E-03 0. -1.
    9900012    2    1    2    0    0  0.57799175648E+00 -0.86192540636E+00  0.56195110760E+00  0.90007839450E+02  0.90000102131E+02 0.  0.
         12    1    1    2    0    0 -0.57799175648E+00  0.86192540636E+00 -0.56195110760E+00  0.11801605501E+01  0.00000000000E+00 0. -1.
         11    1    3    3    0    0  0.47855183383E+01  0.92728692377E+01  0.11932989935E+01  0.10502916377E+02  0.51100000000E-03 0. -1.
        -11    1    3    3    0    0  0.24691781251E+02  0.18466340036E+02  0.16974988076E+02  0.35197158921E+02  0.51100000000E-03 0.  1.
         12    1    3    3    0    0 -0.28899307833E+02 -0.28601134680E+02 -0.17606335962E+02  0.44307764152E+02  0.00000000000E+00 0. -1.
</event>
<event>
 7    1  0.2090370E-015  0.9000774E+02  0.7816164E-02  0.1186339E+00
        -11   -1    0    0    0    0  0.00000000000E+00  0.00000000000E+00  0.45593999997E+02  0.45594000000E+02  0.51100000000E-03 0. -1.
         11   -1    0    0    0    0 -0.00000000000E+00 -0.00000000000E+00 -0.45593999997E+02  0.45594000000E+02  0.51100000000E-03 0.  1.
    9900012    2    1    2    0    0  0.14421103785E+00  0.89028112580E+00 -0.76132670240E+00  0.90007739158E+02  0.90000000515E+02 0.  0.
         12    1    1    2    0    0 -0.14421103785E+00 -0.89028112580E+00  0.76132670240E+00  0.11802608416E+01  0.00000000000E+00 0. -1.
         11    1    3    3    0    0  0.23495699940E+01 -0.38411608258E+01  0.89509958354E+01  0.10019746621E+02  0.51100000000E-03 0. -1.
        -11    1    3    3    0    0  0.26213204638E+02  0.26759351257E+02  0.10284428766E+02  0.38845391649E+02  0.51100000000E-03 0.  1.
         12    1    3    3    0    0 -0.28418563594E+02 -0.22027909306E+02 -0.19996751304E+02  0.41142600888E+02  0.00000000000E+00 0. -1.
</event>
<event>
 7    1  0.2090370E-015  0.9000750E+02  0.7816164E-02  0.1186340E+00
        -11   -1    0    0    0    0  0.00000000000E+00  0.00000000000E+00  0.45593999997E+02  0.45594000000E+02  0.51100000000E-03 0.  1.
         11   -1    0    0    0    0 -0.00000000000E+00 -0.00000000000E+00 -0.45593999997E+02  0.45594000000E+02  0.51100000000E-03 0. -1.
    9900012    2    1    2    0    0 -0.19601673702E+00  0.17791443420E+00  0.11504316811E+01  0.90007504697E+02  0.89999762959E+02 0.  0.
         12    1    1    2    0    0  0.19601673702E+00 -0.17791443420E+00 -0.11504316811E+01  0.11804953028E+01  0.00000000000E+00 0. -1.
         11    1    3    3    0    0 -0.18909447326E+01  0.41648739029E+01  0.40118317981E+01  0.60841302785E+01  0.51100000000E-03 0. -1.
        -11    1    3    3    0    0  0.74981159155E+01  0.71306760575E+01  0.38934752736E+02  0.40286266322E+02  0.51100000000E-03 0.  1.
         12    1    3    3    0    0 -0.58031879199E+01 -0.11117635526E+02 -0.41796152853E+02  0.43637108097E+02  0.00000000000E+00 0. -1.
</event>
<event>
 7    1  0.2090370E-015  0.9000773E+02  0.7816164E-02  0.1186339E+00
        -11   -1    0    0    0    0  0.00000000000E+00  0.00000000000E+00  0.45593999997E+02  0.45594000000E+02  0.51100000000E-03 0.  1.
         11   -1    0    0    0    0 -0.00000000000E+00 -0.00000000000E+00 -0.45593999997E+02  0.45594000000E+02  0.51100000000E-03 0. -1.
    9900012    2    1    2    0    0  0.53095160725E+00  0.44793569360E+00  0.95418991593E+00  0.90007731221E+02  0.89999992473E+02 0.  0.
         12    1    1    2    0    0 -0.53095160725E+00 -0.44793569360E+00 -0.95418991593E+00  0.11802687789E+01  0.00000000000E+00 0. -1.
         11    1    3    3    0    0  0.33229046292E+02 -0.56068752528E+01  0.19286222624E+02  0.38827373732E+02  0.51100000000E-03 0. -1.
        -11    1    3    3    0    0  0.35444420704E+01 -0.52832247320E+01  0.36174960777E+01  0.73185935324E+01  0.51100000000E-03 0.  1.
        -12    1    3    3    0    0 -0.36242536755E+02  0.11338035678E+02 -0.21949528785E+02  0.43861763957E+02  0.00000000000E+00 0.  1.
</event>
<event>
 7    1  0.2090370E-015  0.9000774E+02  0.7816164E-02  0.1186339E+00
        -11   -1    0    0    0    0  0.00000000000E+00  0.00000000000E+00  0.45593999997E+02  0.45594000000E+02  0.51100000000E-03 0.  1.
         11   -1    0    0    0    0 -0.00000000000E+00 -0.00000000000E+00 -0.45593999997E+02  0.45594000000E+02  0.51100000000E-03 0. -1.
    9900012    2    1    2    0    0 -0.96986785746E+00 -0.24070346388E+00 -0.62803840422E+00  0.90007739836E+02  0.90000001201E+02 0.  0.
         12    1    1    2    0    0  0.96986785746E+00  0.24070346388E+00  0.62803840422E+00  0.11802601644E+01  0.00000000000E+00 0. -1.
         11    1    3    3    0    0 -0.10580294379E+02  0.24639230832E+02 -0.32140466762E+02  0.41857423823E+02  0.51100000000E-03 0. -1.
        -11    1    3    3    0    0 -0.15064877113E+01  0.41597219648E+01  0.80908939810E+01  0.92214617996E+01  0.51100000000E-03 0.  1.
        -12    1    3    3    0    0  0.11116914233E+02 -0.29039656260E+02  0.23421534377E+02  0.38928854213E+02  0.00000000000E+00 0.  1.
</event>
<event>
 7    1  0.2090370E-015  0.9000781E+02  0.7816164E-02  0.1186339E+00
        -11   -1    0    0    0    0  0.00000000000E+00  0.00000000000E+00  0.45593999997E+02  0.45594000000E+02  0.51100000000E-03 0. -1.
         11   -1    0    0    0    0 -0.00000000000E+00 -0.00000000000E+00 -0.45593999997E+02  0.45594000000E+02  0.51100000000E-03 0.  1.
    9900012    2    1    2    0    0  0.85014469080E-01 -0.73626869265E+00 -0.91843794843E+00  0.90007810476E+02  0.90000072774E+02 0.  0.
         12    1    1    2    0    0 -0.85014469080E-01  0.73626869265E+00  0.91843794843E+00  0.11801895241E+01  0.00000000000E+00 0. -1.
         11    1    3    3    0    0  0.13783674392E+01 -0.12164535372E+01 -0.90803832862E+01  0.92646109951E+01  0.51100000000E-03 0. -1.
        -11    1    3    3    0    0  0.25632907560E+02  0.20449162565E+02 -0.18733698947E+02  0.37764608777E+02  0.51100000000E-03 0.  1.
         12    1    3    3    0    0 -0.26926260530E+02 -0.19968977721E+02  0.26895644285E+02  0.42978590703E+02  0.00000000000E+00 0. -1.
</event>
<event>
 7    1  0.2090370E-015  0.9000774E+02  0.7816164E-02  0.1186339E+00
        -11   -1    0    0    0    0  0.00000000000E+00  0.00000000000E+00  0.45593999997E+02  0.45594000000E+02  0.51100000000E-03 0.  1.
         11   -1    0    0    0    0 -0.00000000000E+00 -0.00000000000E+00 -0.45593999997E+02  0.45594000000E+02  0.51100000000E-03 0. -1.
    9900012    2    1    2    0    0  0.24664637991E+00 -0.33364156298E+00  0.11049306496E+01  0.90007736102E+02  0.89999997418E+02 0.  0.
         12    1    1    2    0    0 -0.24664637991E+00  0.33364156298E+00 -0.11049306496E+01  0.11802638983E+01  0.00000000000E+00 0. -1.
         11    1    3    3    0    0 -0.52462132106E+01 -0.38686639717E+01 -0.65185510415E+01  0.92185043211E+01  0.51100000000E-03 0. -1.
        -11    1    3    3    0    0 -0.25643074869E+02  0.29754852938E+02 -0.49045944975E+00  0.39283063944E+02  0.51100000000E-03 0.  1.
         12    1    3    3    0    0  0.31135934460E+02 -0.26219830529E+02  0.81139411409E+01  0.41506167837E+02  0.00000000000E+00 0. -1.
</event>
<event>
 7    1  0.2090370E-015  0.9000773E+02  0.7816164E-02  0.1186339E+00
        -11   -1    0    0    0    0  0.00000000000E+00  0.00000000000E+00  0.45593999997E+02  0.45594000000E+02  0.51100000000E-03 0.  1.
         11   -1    0    0    0    0 -0.00000000000E+00 -0.00000000000E+00 -0.45593999997E+02  0.45594000000E+02  0.51100000000E-03 0. -1.
    9900012    2    1    2    0    0 -0.11318290950E+00  0.34615172135E+00 -0.11226793931E+01  0.90007728673E+02  0.89999989892E+02 0.  0.
         12    1    1    2    0    0  0.11318290950E+00 -0.34615172135E+00  0.11226793931E+01  0.11802713268E+01  0.00000000000E+00 0. -1.
         11    1    3    3    0    0 -0.23513104563E+01 -0.36735101368E+01  0.40600806505E+01  0.59588247781E+01  0.51100000000E-03 0. -1.
        -11    1    3    3    0    0  0.13594289250E+02 -0.25822669550E+02  0.26244013687E+02  0.39247461288E+02  0.51100000000E-03 0.  1.
         12    1    3    3    0    0 -0.11356161704E+02  0.29842331408E+02 -0.31426773731E+02  0.44801442607E+02  0.00000000000E+00 0. -1.
</event>
<event>
 7    1  0.2090370E-015  0.9000714E+02  0.7816164E-02  0.1186340E+00
        -11   -1    0    0    0    0  0.00000000000E+00  0.00000000000E+00  0.45593999997E+02  0.45594000000E+02  0.51100000000E-03 0. -1.
         11   -1    0    0    0    0 -0.00000000000E+00 -0.00000000000E+00 -0.45593999997E+02  0.45594000000E+02  0.51100000000E-03 0.  1.
    9900012    2    1    2    0    0 -0.67379578754E+00 -0.92136498419E+00 -0.30252190960E+00  0.90007138576E+02  0.89999392003E+02 0.  0.
         12    1    1    2    0    0  0.67379578754E+00  0.92136498419E+00  0.30252190960E+00  0.11808614242E+01  0.00000000000E+00 0. -1.
         11    1    3    3    0    0  0.11515222166E+02  0.30728086632E+02 -0.23482615376E+02  0.40351565952E+02  0.51100000000E-03 0. -1.
        -11    1    3    3    0    0  0.22675718217E+00  0.42203184332E+01  0.74544897701E+01  0.85692429357E+01  0.51100000000E-03 0.  1.
        -12    1    3    3    0    0 -0.12415775135E+02 -0.35869770050E+02  0.15725603697E+02  0.41086329688E+02  0.00000000000E+00 0.  1.
</event>
<event>
 7    1  0.2090370E-015  0.9000756E+02  0.7816164E-02  0.1186339E+00
        -11   -1    0    0    0    0  0.00000000000E+00  0.00000000000E+00  0.45593999997E+02  0.45594000000E+02  0.51100000000E-03 0.  1.
         11   -1    0    0    0    0 -0.00000000000E+00 -0.00000000000E+00 -0.45593999997E+02  0.45594000000E+02  0.51100000000E-03 0. -1.
    9900012    2    1    2    0    0  0.86441633279E+00  0.41999580491E+00  0.68544163874E+00  0.90007558425E+02  0.89999817396E+02 0.  0.
         12    1    1    2    0    0 -0.86441633279E+00 -0.41999580491E+00 -0.68544163874E+00  0.11804415753E+01  0.00000000000E+00 0. -1.
         11    1    3    3    0    0  0.57422579579E+01  0.66256637755E+01  0.47932023878E+01  0.99923839154E+01  0.51100000000E-03 0. -1.
        -11    1    3    3    0    0 -0.37558424416E+02  0.49211111648E+01  0.14782911076E+02  0.40661862228E+02  0.51100000000E-03 0.  1.
         12    1    3    3    0    0  0.32680582791E+02 -0.11126779135E+02 -0.18890671825E+02  0.39353312281E+02  0.00000000000E+00 0. -1.
</event>
<event>
 7    1  0.2090370E-015  0.9000773E+02  0.7816164E-02  0.1186339E+00
        -11   -1    0    0    0    0  0.00000000000E+00  0.00000000000E+00  0.45593999997E+02  0.45594000000E+02  0.51100000000E-03 0.  1.
         11   -1    0    0    0    0 -0.00000000000E+00 -0.00000000000E+00 -0.45593999997E+02  0.45594000000E+02  0.51100000000E-03 0. -1.
    9900012    2    1    2    0    0 -0.11114129538E-01 -0.96390575796E+00  0.68103469455E+00  0.90007726265E+02  0.89999987452E+02 0.  0.
         12    1    1    2    0    0  0.11114129538E-01  0.96390575796E+00 -0.68103469455E+00  0.11802737349E+01  0.00000000000E+00 0. -1.
         11    1    3    3    0    0  0.20035444340E+02  0.28509171624E+02 -0.44583343132E+01  0.35129313140E+02  0.51100000000E-03 0. -1.
        -11    1    3    3    0    0  0.77020494761E+01  0.28404318212E+01 -0.67825053657E+01  0.10648567902E+02  0.51100000000E-03 0.  1.
        -12    1    3    3    0    0 -0.27748607946E+02 -0.32313509203E+02  0.11921874373E+02  0.44229845223E+02  0.00000000000E+00 0.  1.
</event>
<event>
 7    1  0.2090370E-015  0.9000777E+02  0.7816164E-02  0.1186339E+00
        -11   -1    0    0    0    0  0.00000000000E+00  0.00000000000E+00  0.45593999997E+02  0.45594000000E+02  0.51100000000E-03 0.  1.
         11   -1    0    0    0    0 -0.00000000000E+00 -0.00000000000E+00 -0.45593999997E+02  0.45594000000E+02  0.51100000000E-03 0. -1.
    9900012    2    1    2    0    0 -0.46083810788E+00 -0.29715680512E+00  0.10451215228E+01  0.90007765733E+02  0.90000027440E+02 0.  0.
         12    1    1    2    0    0  0.46083810788E+00  0.29715680512E+00 -0.10451215228E+01  0.11802342674E+01  0.00000000000E+00 0. -1.
         11    1    3    3    0    0  0.24594215962E+02 -0.27131790080E+02  0.31391728053E+01  0.36754100423E+02  0.51100000000E-03 0. -1.
        -11    1    3    3    0    0  0.59565198280E+01 -0.90412064398E+00 -0.92466151666E+01  0.11036188423E+02  0.51100000000E-03 0.  1.
        -12    1    3    3    0    0 -0.31011573898E+02  0.27738753919E+02  0.71525638841E+01  0.42217476887E+02  0.00000000000E+00 0.  1.
</event>
<event>
 7    1  0.2090370E-015  0.9000774E+02  0.7816164E-02  0.1186339E+00
        -11   -1    0    0    0    0  0.00000000000E+00  0.00000000000E+00  0.45593999997E+02  0.45594000000E+02  0.51100000000E-03 0.  1.
         11   -1    0    0    0    0 -0.00000000000E+00 -0.00000000000E+00 -0.45593999997E+02  0.45594000000E+02  0.51100000000E-03 0. -1.
    9900012    2    1    2    0    0 -0.89507287320E+00  0.74743430975E+00  0.18219586938E+00  0.90007742049E+02  0.90000003444E+02 0.  0.
         12    1    1    2    0    0  0.89507287320E+00 -0.74743430975E+00 -0.18219586938E+00  0.11802579508E+01  0.00000000000E+00 0. -1.
         11    1    3    3    0    0 -0.99028484664E+01 -0.11088523415E+02 -0.36318168647E+02  0.39243230415E+02  0.51100000000E-03 0. -1.
        -11    1    3    3    0    0  0.35050682141E+01  0.36172960599E+01 -0.55918305528E+01  0.75258822182E+01  0.51100000000E-03 0.  1.
        -12    1    3    3    0    0  0.55027073791E+01  0.82186616650E+01  0.42092195069E+02  0.43238629416E+02  0.00000000000E+00 0.  1.
</event>
<event>
 7    1  0.2090370E-015  0.9000777E+02  0.7816164E-02  0.1186339E+00
        -11   -1    0    0    0    0  0.00000000000E+00  0.00000000000E+00  0.45593999997E+02  0.45594000000E+02  0.51100000000E-03 0. -1.
         11   -1    0    0    0    0 -0.00000000000E+00 -0.00000000000E+00 -0.45593999997E+02  0.45594000000E+02  0.51100000000E-03 0.  1.
    9900012    2    1    2    0    0  0.29038916484E+00 -0.88460891923E+00 -0.72532120660E+00  0.90007767116E+02  0.90000028842E+02 0.  0.
         12    1    1    2    0    0 -0.29038916484E+00  0.88460891923E+00  0.72532120660E+00  0.11802328837E+01  0.00000000000E+00 0. -1.
         11    1    3    3    0    0  0.73480529431E+01  0.68330543625E+01  0.20479763308E+01  0.10241031261E+02  0.51100000000E-03 0. -1.
        -11    1    3    3    0    0 -0.37084188992E+02 -0.12907260536E+02 -0.20725263920E+02  0.44400124015E+02  0.51100000000E-03 0.  1.
         12    1    3    3    0    0  0.30026525214E+02  0.51895972545E+01  0.17951966382E+02  0.35366611840E+02  0.00000000000E+00 0. -1.
</event>
<event>
 7    1  0.2090370E-015  0.9000770E+02  0.7816164E-02  0.1186339E+00
        -11   -1    0    0    0    0  0.00000000000E+00  0.00000000000E+00  0.45593999997E+02  0.45594000000E+02  0.51100000000E-03 0.  1.
         11   -1    0    0    0    0 -0.00000000000E+00 -0.00000000000E+00 -0.45593999997E+02  0.45594000000E+02  0.51100000000E-03 0. -1.
    9900012    2    1    2    0    0 -0.86160544418E-03  0.55863902717E+00  0.10397270385E+01  0.90007698928E+02  0.89999959754E+02 0.  0.
         12    1    1    2    0    0  0.86160544418E-03 -0.55863902717E+00 -0.10397270385E+01  0.11803010716E+01  0.00000000000E+00 0. -1.
         11    1    3    3    0    0 -0.79738037487E+01 -0.50519703459E+01  0.33482772273E+01  0.10015733186E+02  0.51100000000E-03 0. -1.
        -11    1    3    3    0    0  0.24374462531E+02 -0.30969065403E+02  0.31374095478E+01  0.39535310478E+02  0.51100000000E-03 0.  1.
         12    1    3    3    0    0 -0.16401520388E+02  0.36579674776E+02 -0.54459597366E+01  0.40456655265E+02  0.00000000000E+00 0. -1.
</event>
<event>
 7    1  0.2090370E-015  0.9000774E+02  0.7816164E-02  0.1186339E+00
        -11   -1    0    0    0    0  0.00000000000E+00  0.00000000000E+00  0.45593999997E+02  0.45594000000E+02  0.51100000000E-03 0. -1.
         11   -1    0    0    0    0 -0.00000000000E+00 -0.00000000000E+00 -0.45593999997E+02  0.45594000000E+02  0.51100000000E-03 0.  1.
    9900012    2    1    2    0    0  0.46930447014E+00  0.44462927232E+00  0.98745372561E+00  0.90007742937E+02  0.90000004343E+02 0.  0.
         12    1    1    2    0    0 -0.46930447014E+00 -0.44462927232E+00 -0.98745372561E+00  0.11802570634E+01  0.00000000000E+00 0. -1.
         11    1    3    3    0    0 -0.11210299343E+02 -0.41170403368E+01 -0.63869250551E+00  0.11959463235E+02  0.51100000000E-03 0. -1.
        -11    1    3    3    0    0 -0.29269373390E+02  0.78902265228E+01 -0.14883834953E+02  0.33770999932E+02  0.51100000000E-03 0.  1.
         12    1    3    3    0    0  0.40948977203E+02 -0.33285569137E+01  0.16509981184E+02  0.44277279770E+02  0.00000000000E+00 0. -1.
</event>
<event>
 7    1  0.2090370E-015  0.9000777E+02  0.7816164E-02  0.1186339E+00
        -11   -1    0    0    0    0  0.00000000000E+00  0.00000000000E+00  0.45593999997E+02  0.45594000000E+02  0.51100000000E-03 0.  1.
         11   -1    0    0    0    0 -0.00000000000E+00 -0.00000000000E+00 -0.45593999997E+02  0.45594000000E+02  0.51100000000E-03 0. -1.
    9900012    2    1    2    0    0 -0.79227482491E+00 -0.32519757340E+00  0.81208273772E+00  0.90007774923E+02  0.90000036752E+02 0.  0.
         12    1    1    2    0    0  0.79227482491E+00  0.32519757340E+00 -0.81208273772E+00  0.11802250772E+01  0.00000000000E+00 0. -1.
         11    1    3    3    0    0  0.32343138757E+02  0.17310703528E+02 -0.11040614316E+02  0.38309714774E+02  0.51100000000E-03 0. -1.
        -11    1    3    3    0    0  0.26132070654E+01 -0.71271297906E+01 -0.66534945238E+01  0.10094246869E+02  0.51100000000E-03 0.  1.
        -12    1    3    3    0    0 -0.35748620648E+02 -0.10508771311E+02  0.18506191578E+02  0.41603813279E+02  0.00000000000E+00 0.  1.
</event>
<event>
 7    1  0.2090370E-015  0.9000776E+02  0.7816164E-02  0.1186339E+00
        -11   -1    0    0    0    0  0.00000000000E+00  0.00000000000E+00  0.45593999997E+02  0.45594000000E+02  0.51100000000E-03 0.  1.
         11   -1    0    0    0    0 -0.00000000000E+00 -0.00000000000E+00 -0.45593999997E+02  0.45594000000E+02  0.51100000000E-03 0. -1.
    9900012    2    1    2    0    0 -0.64597318942E+00 -0.36418998543E+00  0.91818257930E+00  0.90007756400E+02  0.90000017984E+02 0.  0.
         12    1    1    2    0    0  0.64597318942E+00  0.36418998543E+00 -0.91818257930E+00  0.11802436002E+01  0.00000000000E+00 0. -1.
         11    1    3    3    0    0  0.10984000113E+02  0.73465922350E+01 -0.26493505723E+02  0.29606190597E+02  0.51100000000E-03 0. -1.
        -11    1    3    3    0    0  0.86250764182E+01  0.13867265820E+02 -0.44391730764E+01  0.16923334848E+02  0.51100000000E-03 0.  1.
        -12    1    3    3    0    0 -0.20255049720E+02 -0.21578048040E+02  0.31850861378E+02  0.43478230954E+02  0.00000000000E+00 0.  1.
</event>
<event>
 7    1  0.2090370E-015  0.9000771E+02  0.7816164E-02  0.1186339E+00
        -11   -1    0    0    0    0  0.00000000000E+00  0.00000000000E+00  0.45593999997E+02  0.45594000000E+02  0.51100000000E-03 0.  1.
         11   -1    0    0    0    0 -0.00000000000E+00 -0.00000000000E+00 -0.45593999997E+02  0.45594000000E+02  0.51100000000E-03 0. -1.
    9900012    2    1    2    0    0 -0.73079551553E+00  0.83774396870E+00  0.39648452780E+00  0.90007713161E+02  0.89999974174E+02 0.  0.
         12    1    1    2    0    0  0.73079551553E+00 -0.83774396870E+00 -0.39648452780E+00  0.11802868395E+01  0.00000000000E+00 0. -1.
         11    1    3    3    0    0  0.14935009923E+02  0.33336412879E+02 -0.19195032361E+02  0.41265242186E+02  0.51100000000E-03 0. -1.
        -11    1    3    3    0    0  0.44139334326E+01 -0.14693094632E+00 -0.21327855560E+01  0.49044032806E+01  0.51100000000E-03 0.  1.
        -12    1    3    3    0    0 -0.20079738871E+02 -0.32351737964E+02  0.21724302445E+02  0.43838067694E+02  0.00000000000E+00 0.  1.
</event>
<event>
 7    1  0.2090370E-015  0.9000774E+02  0.7816164E-02  0.1186339E+00
        -11   -1    0    0    0    0  0.00000000000E+00  0.00000000000E+00  0.45593999997E+02  0.45594000000E+02  0.51100000000E-03 0.  1.
         11   -1    0    0    0    0 -0.00000000000E+00 -0.00000000000E+00 -0.45593999997E+02  0.45594000000E+02  0.51100000000E-03 0. -1.
    9900012    2    1    2    0    0 -0.18889976397E-01  0.11794670919E+01 -0.39010216400E-01  0.90007736788E+02  0.89999998114E+02 0.  0.
         12    1    1    2    0    0  0.18889976397E-01 -0.11794670919E+01  0.39010216400E-01  0.11802632118E+01  0.00000000000E+00 0. -1.
         11    1    3    3    0    0 -0.10937618193E+02  0.25039308814E+02 -0.22916079109E+02  0.35661536137E+02  0.51100000000E-03 0. -1.
        -11    1    3    3    0    0 -0.20018846393E+00  0.11183507822E+02  0.11056647299E+02  0.15727694439E+02  0.51100000000E-03 0.  1.
        -12    1    3    3    0    0  0.11118916681E+02 -0.35043349544E+02  0.11820421594E+02  0.38618506212E+02  0.00000000000E+00 0.  1.
</event>
<event>
 7    1  0.2090370E-015  0.9000764E+02  0.7816164E-02  0.1186339E+00
        -11   -1    0    0    0    0  0.00000000000E+00  0.00000000000E+00  0.45593999997E+02  0.45594000000E+02  0.51100000000E-03 0. -1.
         11   -1    0    0    0    0 -0.00000000000E+00 -0.00000000000E+00 -0.45593999997E+02  0.45594000000E+02  0.51100000000E-03 0.  1.
    9900012    2    1    2    0    0 -0.77570849257E+00 -0.72726941093E+00 -0.51246171773E+00  0.90007635025E+02  0.89999895007E+02 0.  0.
         12    1    1    2    0    0  0.77570849257E+00  0.72726941093E+00  0.51246171773E+00  0.11803649748E+01  0.00000000000E+00 0. -1.
         11    1    3    3    0    0 -0.43278430136E-01  0.31057941216E+01 -0.90214723934E+01  0.95412155700E+01  0.51100000000E-03 0. -1.
        -11    1    3    3    0    0  0.70435083220E+01  0.34615594187E+02 -0.10532962120E+02  0.36861818481E+02  0.51100000000E-03 0.  1.
         12    1    3    3    0    0 -0.77759383844E+01 -0.38448657720E+02  0.19041972795E+02  0.43604600975E+02  0.00000000000E+00 0. -1.
</event>
<event>
 7    1  0.2090370E-015  0.9000773E+02  0.7816164E-02  0.1186339E+00
        -11   -1    0    0    0    0  0.00000000000E+00  0.00000000000E+00  0.45593999997E+02  0.45594000000E+02  0.51100000000E-03 0.  1.
         11   -1    0    0    0    0 -0.00000000000E+00 -0.00000000000E+00 -0.45593999997E+02  0.45594000000E+02  0.51100000000E-03 0. -1.
    9900012    2    1    2    0    0  0.57887964903E+00  0.10139183042E+01 -0.17293355475E+00  0.90007729696E+02  0.89999990928E+02 0.  0.
         12    1    1    2    0    0 -0.57887964903E+00 -0.10139183042E+01  0.17293355475E+00  0.11802703038E+01  0.00000000000E+00 0. -1.
         11    1    3    3    0    0  0.56283848213E+00  0.21993905260E+01  0.97148834261E+01  0.99766259871E+01  0.51100000000E-03 0. -1.
        -11    1    3    3    0    0 -0.24506726595E+01  0.38730103605E+02 -0.98551639215E+01  0.40039367851E+02  0.51100000000E-03 0.  1.
         12    1    3    3    0    0  0.24667138264E+01 -0.39915575827E+02 -0.32653059309E-01  0.39991735858E+02  0.00000000000E+00 0. -1.
</event>
<event>
 7    1  0.2090370E-015  0.9000783E+02  0.7816164E-02  0.1186339E+00
        -11   -1    0    0    0    0  0.00000000000E+00  0.00000000000E+00  0.45593999997E+02  0.45594000000E+02  0.51100000000E-03 0. -1.
         11   -1    0    0    0    0 -0.00000000000E+00 -0.00000000000E+00 -0.45593999997E+02  0.45594000000E+02  0.51100000000E-03 0.  1.
    9900012    2    1    2    0    0  0.78955233497E+00 -0.58773408681E-01 -0.87518358432E+00  0.90007833270E+02  0.90000095870E+02 0.  0.
         12    1    1    2    0    0 -0.78955233497E+00  0.58773408681E-01  0.87518358432E+00  0.11801667295E+01  0.00000000000E+00 0. -1.
         11    1    3    3    0    0  0.22545460140E+02 -0.13478509861E+00  0.30185384453E+02  0.37675899123E+02  0.51100000000E-03 0. -1.
        -11    1    3    3    0    0  0.81444463113E+01  0.18696399206E+00  0.13253476740E+01  0.82536966245E+01  0.51100000000E-03 0.  1.
        -12    1    3    3    0    0 -0.29900354116E+02 -0.11095230213E+00 -0.32385915711E+02  0.44078237523E+02  0.00000000000E+00 0.  1.
</event>
<event>
 7    1  0.2090370E-015  0.9000776E+02  0.7816164E-02  0.1186339E+00
        -11   -1    0    0    0    0  0.00000000000E+00  0.00000000000E+00  0.45593999997E+02  0.45594000000E+02  0.51100000000E-03 0.  1.
         11   -1    0    0    0    0 -0.00000000000E+00 -0.00000000000E+00 -0.45593999997E+02  0.45594000000E+02  0.51100000000E-03 0. -1.
    9900012    2    1    2    0    0  0.97382588362E+00  0.53979047764E-01  0.66461438890E+00  0.90007761518E+02  0.90000023170E+02 0.  0.
         12    1    1    2    0    0 -0.97382588362E+00 -0.53979047764E-01 -0.66461438890E+00  0.11802384823E+01  0.00000000000E+00 0. -1.
         11    1    3    3    0    0  0.36537813694E+01 -0.94023754082E+01 -0.86790116839E+00  0.10124625144E+02  0.51100000000E-03 0. -1.
        -11    1    3    3    0    0  0.90438051077E+01 -0.24437285014E+02  0.25729809593E+02  0.36619590545E+02  0.51100000000E-03 0.  1.
         12    1    3    3    0    0 -0.11723760593E+02  0.33893639470E+02 -0.24197294036E+02  0.43263545829E+02  0.00000000000E+00 0. -1.
</event>
<event>
 7    1  0.2090370E-015  0.9000777E+02  0.7816164E-02  0.1186339E+00
        -11   -1    0    0    0    0  0.00000000000E+00  0.00000000000E+00  0.45593999997E+02  0.45594000000E+02  0.51100000000E-03 0. -1.
         11   -1    0    0    0    0 -0.00000000000E+00 -0.00000000000E+00 -0.45593999997E+02  0.45594000000E+02  0.51100000000E-03 0.  1.
    9900012    2    1    2    0    0 -0.10326040621E+01 -0.52273592786E+00 -0.23114707208E+00  0.90007765715E+02  0.90000027422E+02 0.  0.
         12    1    1    2    0    0  0.10326040621E+01  0.52273592786E+00  0.23114707208E+00  0.11802342854E+01  0.00000000000E+00 0. -1.
         11    1    3    3    0    0  0.10458977427E+01  0.73304641884E+01 -0.48799166920E+01  0.88680998240E+01  0.51100000000E-03 0. -1.
        -11    1    3    3    0    0  0.38896073796E+02 -0.78891248578E+01 -0.14452828531E+01  0.39714376371E+02  0.51100000000E-03 0.  1.
         12    1    3    3    0    0 -0.40974575601E+02  0.35924741517E-01  0.60940524730E+01  0.41425289520E+02  0.00000000000E+00 0. -1.
</event>
<event>
 7    1  0.2090370E-015  0.9000769E+02  0.7816164E-02  0.1186339E+00
        -11   -1    0    0    0    0  0.00000000000E+00  0.00000000000E+00  0.45593999997E+02  0.45594000000E+02  0.51100000000E-03 0.  1.
         11   -1    0    0    0    0 -0.00000000000E+00 -0.00000000000E+00 -0.45593999997E+02  0.45594000000E+02  0.51100000000E-03 0. -1.
    9900012    2    1    2    0    0 -0.20488114042E+00 -0.74577739062E+00  0.89161127337E+00  0.90007690354E+02  0.89999951066E+02 0.  0.
         12    1    1    2    0    0  0.20488114042E+00  0.74577739062E+00 -0.89161127337E+00  0.11803096462E+01  0.00000000000E+00 0. -1.
         11    1    3    3    0    0  0.46294470726E+01  0.13407166628E+02 -0.39496784513E+01  0.14723581674E+02  0.51100000000E-03 0. -1.
        -11    1    3    3    0    0 -0.39139197429E+01  0.16554459468E+02  0.30720248530E+02  0.35115560169E+02  0.51100000000E-03 0.  1.
         12    1    3    3    0    0 -0.92040847010E+00 -0.30707403486E+02 -0.25878958805E+02  0.40168548511E+02  0.00000000000E+00 0. -1.
</event>
<event>
 7    1  0.2090370E-015  0.9000773E+02  0.7816164E-02  0.1186339E+00
        -11   -1    0    0    0    0  0.00000000000E+00  0.00000000000E+00  0.45593999997E+02  0.45594000000E+02  0.51100000000E-03 0.  1.
         11   -1    0    0    0    0 -0.00000000000E+00 -0.00000000000E+00 -0.45593999997E+02  0.45594000000E+02  0.51100000000E-03 0. -1.
    9900012    2    1    2    0    0  0.36910513966E+00 -0.92669897389E+00  0.63089918202E+00  0.90007727417E+02  0.89999988619E+02 0.  0.
         12    1    1    2    0    0 -0.36910513966E+00  0.92669897389E+00 -0.63089918202E+00  0.11802725830E+01  0.00000000000E+00 0. -1.
         11    1    3    3    0    0 -0.17251713797E+01  0.58959303225E+00  0.97511193351E+01  0.99200889502E+01  0.51100000000E-03 0. -1.
        -11    1    3    3    0    0  0.19074107940E+02 -0.66060507237E+01  0.30561837974E+02  0.36626321689E+02  0.51100000000E-03 0.  1.
         12    1    3    3    0    0 -0.16979831421E+02  0.50897587176E+01 -0.39682058127E+02  0.43461316778E+02  0.00000000000E+00 0. -1.
</event>
<event>
 7    1  0.2090370E-015  0.9000772E+02  0.7816164E-02  0.1186339E+00
        -11   -1    0    0    0    0  0.00000000000E+00  0.00000000000E+00  0.45593999997E+02  0.45594000000E+02  0.51100000000E-03 0. -1.
         11   -1    0    0    0    0 -0.00000000000E+00 -0.00000000000E+00 -0.45593999997E+02  0.45594000000E+02  0.51100000000E-03 0.  1.
    9900012    2    1    2    0    0 -0.58768899470E+00  0.87144408278E+00 -0.53690575971E+00  0.90007719974E+02  0.89999981078E+02 0.  0.
         12    1    1    2    0    0  0.58768899470E+00 -0.87144408278E+00  0.53690575971E+00  0.11802800255E+01  0.00000000000E+00 0. -1.
         11    1    3    3    0    0  0.30950836423E+02 -0.10606922636E+02  0.23093474302E+02  0.40047092762E+02  0.51100000000E-03 0. -1.
        -11    1    3    3    0    0  0.47571997695E+01  0.47322045223E+01 -0.13611181685E+01  0.68467037484E+01  0.51100000000E-03 0.  1.
        -12    1    3    3    0    0 -0.36295725187E+02  0.67461621965E+01 -0.22269261893E+02  0.43113923464E+02  0.00000000000E+00 0.  1.
</event>
<event>
 7    1  0.2090370E-015  0.9000778E+02  0.7816164E-02  0.1186339E+00
        -11   -1    0    0    0    0  0.00000000000E+00  0.00000000000E+00  0.45593999997E+02  0.45594000000E+02  0.51100000000E-03 0. -1.
         11   -1    0    0    0    0 -0.00000000000E+00 -0.00000000000E+00 -0.45593999997E+02  0.45594000000E+02  0.51100000000E-03 0.  1.
    9900012    2    1    2    0    0  0.10465673201E+01  0.26831972407E+00 -0.47499457567E+00  0.90007780327E+02  0.90000042227E+02 0.  0.
         12    1    1    2    0    0 -0.10465673201E+01 -0.26831972407E+00  0.47499457567E+00  0.11802196731E+01  0.00000000000E+00 0. -1.
         11    1    3    3    0    0  0.15912307254E+02 -0.13968116073E+01  0.78406035427E+01  0.17794034646E+02  0.51100000000E-03 0. -1.
        -11    1    3    3    0    0  0.15606275953E+02 -0.15219016051E+02 -0.25351301549E+02  0.33434455120E+02  0.51100000000E-03 0.  1.
         12    1    3    3    0    0 -0.30472015887E+02  0.16884147382E+02  0.17035703430E+02  0.38779290561E+02  0.00000000000E+00 0. -1.
</event>
<event>
 7    1  0.2090370E-015  0.9000762E+02  0.7816164E-02  0.1186339E+00
        -11   -1    0    0    0    0  0.00000000000E+00  0.00000000000E+00  0.45593999997E+02  0.45594000000E+02  0.51100000000E-03 0. -1.
         11   -1    0    0    0    0 -0.00000000000E+00 -0.00000000000E+00 -0.45593999997E+02  0.45594000000E+02  0.51100000000E-03 0.  1.
    9900012    2    1    2    0    0  0.11156054898E+01 -0.29484978565E+00  0.24858117756E+00  0.90007616754E+02  0.89999876495E+02 0.  0.
         12    1    1    2    0    0 -0.11156054898E+01  0.29484978565E+00 -0.24858117756E+00  0.11803832457E+01  0.00000000000E+00 0. -1.
         11    1    3    3    0    0  0.26204291780E+01  0.76266151148E+01  0.44043697160E+01  0.91886005487E+01  0.51100000000E-03 0. -1.
        -11    1    3    3    0    0  0.13392647987E+02  0.70094743749E+01 -0.38024923713E+02  0.40919317868E+02  0.51100000000E-03 0.  1.
         12    1    3    3    0    0 -0.14897471675E+02 -0.14930939275E+02  0.33869135175E+02  0.39899698338E+02  0.00000000000E+00 0. -1.
</event>
<event>
 7    1  0.2090370E-015  0.9000794E+02  0.7816164E-02  0.1186339E+00
        -11   -1    0    0    0    0  0.00000000000E+00  0.00000000000E+00  0.45593999997E+02  0.45594000000E+02  0.51100000000E-03 0.  1.
         11   -1    0    0    0    0 -0.00000000000E+00 -0.00000000000E+00 -0.45593999997E+02  0.45594000000E+02  0.51100000000E-03 0. -1.
    9900012    2    1    2    0    0  0.69648545904E+00 -0.37390137102E+00  0.87614899650E+00  0.90007944368E+02  0.90000208434E+02 0.  0.
         12    1    1    2    0    0 -0.69648545904E+00  0.37390137102E+00 -0.87614899650E+00  0.11800556317E+01  0.00000000000E+00 0. -1.
         11    1    3    3    0    0 -0.33779742582E+02 -0.68512286649E+01 -0.24752795873E+02  0.42434788168E+02  0.51100000000E-03 0. -1.
        -11    1    3    3    0    0  0.17486376182E+02 -0.25023514930E+01  0.30539417126E+01  0.17926563397E+02  0.51100000000E-03 0.  1.
        -12    1    3    3    0    0  0.16989851859E+02  0.89796787869E+01  0.22575003157E+02  0.29646592803E+02  0.00000000000E+00 0.  1.
</event>
<event>
 7    1  0.2090370E-015  0.9000790E+02  0.7816164E-02  0.1186339E+00
        -11   -1    0    0    0    0  0.00000000000E+00  0.00000000000E+00  0.45593999997E+02  0.45594000000E+02  0.51100000000E-03 0.  1.
         11   -1    0    0    0    0 -0.00000000000E+00 -0.00000000000E+00 -0.45593999997E+02  0.45594000000E+02  0.51100000000E-03 0. -1.
    9900012    2    1    2    0    0 -0.96160721370E-01  0.11761050628E+01 -0.13014200407E-01  0.90007898575E+02  0.90000162036E+02 0.  0.
         12    1    1    2    0    0  0.96160721370E-01 -0.11761050628E+01  0.13014200407E-01  0.11801014247E+01  0.00000000000E+00 0. -1.
         11    1    3    3    0    0 -0.13887283272E+02 -0.27336765364E+02  0.10281565442E+02  0.32339851042E+02  0.51100000000E-03 0. -1.
        -11    1    3    3    0    0 -0.12546497562E+02 -0.18264299801E+01  0.63503209373E+01  0.14180163039E+02  0.51100000000E-03 0.  1.
        -12    1    3    3    0    0  0.26337620113E+02  0.30339300407E+02 -0.16644900580E+02  0.43487884493E+02  0.00000000000E+00 0.  1.
</event>
<event>
 7    1  0.2090370E-015  0.9000765E+02  0.7816164E-02  0.1186339E+00
        -11   -1    0    0    0    0  0.00000000000E+00  0.00000000000E+00  0.45593999997E+02  0.45594000000E+02  0.51100000000E-03 0. -1.
         11   -1    0    0    0    0 -0.00000000000E+00 -0.00000000000E+00 -0.45593999997E+02  0.45594000000E+02  0.51100000000E-03 0.  1.
    9900012    2    1    2    0    0  0.18465508684E+00  0.83434489422E+00 -0.81424748012E+00  0.90007649263E+02  0.89999909433E+02 0.  0.
         12    1    1    2    0    0 -0.18465508684E+00 -0.83434489422E+00  0.81424748012E+00  0.11803507371E+01  0.00000000000E+00 0. -1.
         11    1    3    3    0    0 -0.31433062111E+02 -0.61944465919E+01  0.72050737745E+01  0.32837808249E+02  0.51100000000E-03 0. -1.
        -11    1    3    3    0    0 -0.11293573945E+02  0.58620420873E+01  0.25116125254E+01  0.12969832213E+02  0.51100000000E-03 0.  1.
        -12    1    3    3    0    0  0.42911291143E+02  0.11667493988E+01 -0.10530933780E+02  0.44200008801E+02  0.00000000000E+00 0.  1.
</event>
<event>
 7    1  0.2090370E-015  0.9000754E+02  0.7816164E-02  0.1186339E+00
        -11   -1    0    0    0    0  0.00000000000E+00  0.00000000000E+00  0.45593999997E+02  0.45594000000E+02  0.51100000000E-03 0. -1.
         11   -1    0    0    0    0 -0.00000000000E+00 -0.00000000000E+00 -0.45593999997E+02  0.45594000000E+02  0.51100000000E-03 0.  1.
    9900012    2    1    2    0    0  0.52648362697E+00  0.98780169495E+00  0.37488287975E+00  0.90007544846E+02  0.89999803637E+02 0.  0.
         12    1    1    2    0    0 -0.52648362697E+00 -0.98780169495E+00 -0.37488287975E+00  0.11804551544E+01  0.00000000000E+00 0. -1.
         11    1    3    3    0    0  0.89055244620E+01 -0.45137739260E+00 -0.81312287368E+01  0.12067683644E+02  0.51100000000E-03 0. -1.
        -11    1    3    3    0    0  0.33291407312E+02 -0.26422004135E+01 -0.53815755064E+01  0.33826917965E+02  0.51100000000E-03 0.  1.
         12    1    3    3    0    0 -0.41670448147E+02  0.40813795011E+01  0.13887687123E+02  0.44112943237E+02  0.00000000000E+00 0. -1.
</event>
<event>
 7    1  0.2090370E-015  0.9000778E+02  0.7816164E-02  0.1186339E+00
        -11   -1    0    0    0    0  0.00000000000E+00  0.00000000000E+00  0.45593999997E+02  0.45594000000E+02  0.51100000000E-03 0. -1.
         11   -1    0    0    0    0 -0.00000000000E+00 -0.00000000000E+00 -0.45593999997E+02  0.45594000000E+02  0.51100000000E-03 0.  1.
    9900012    2    1    2    0    0  0.86289613043E+00 -0.10869830013E+00 -0.79782170677E+00  0.90007777763E+02  0.90000039630E+02 0.  0.
         12    1    1    2    0    0 -0.86289613043E+00  0.10869830013E+00  0.79782170677E+00  0.11802222368E+01  0.00000000000E+00 0. -1.
         11    1    3    3    0    0  0.13421098162E+02 -0.11631093254E+01  0.20785653642E+02  0.24769378207E+02  0.51100000000E-03 0. -1.
        -11    1    3    3    0    0  0.44910761805E+01 -0.22920229546E+01  0.19759626026E+02  0.20392791752E+02  0.51100000000E-03 0.  1.
        -12    1    3    3    0    0 -0.17049278212E+02  0.33464339799E+01 -0.41343101375E+02  0.44845607804E+02  0.00000000000E+00 0.  1.
</event>
<event>
 7    1  0.2090370E-015  0.9000779E+02  0.7816164E-02  0.1186339E+00
        -11   -1    0    0    0    0  0.00000000000E+00  0.00000000000E+00  0.45593999997E+02  0.45594000000E+02  0.51100000000E-03 0. -1.
         11   -1    0    0    0    0 -0.00000000000E+00 -0.00000000000E+00 -0.45593999997E+02  0.45594000000E+02  0.51100000000E-03 0.  1.
    9900012    2    1    2    0    0 -0.12382381868E+00  0.90418679972E+00 -0.74833777016E+00  0.90007790050E+02  0.90000052079E+02 0.  0.
         12    1    1    2    0    0  0.12382381868E+00 -0.90418679972E+00  0.74833777016E+00  0.11802099496E+01  0.00000000000E+00 0. -1.
         11    1    3    3    0    0  0.66151113559E+01 -0.69350511977E+01  0.35641375411E+00  0.95907071893E+01  0.51100000000E-03 0. -1.
        -11    1    3    3    0    0 -0.31380246022E+02 -0.21485940507E+02  0.12086871185E+02  0.39905612828E+02  0.51100000000E-03 0.  1.
         12    1    3    3    0    0  0.24641310847E+02  0.29325178504E+02 -0.13191622710E+02  0.40511470033E+02  0.00000000000E+00 0. -1.
</event>
<event>
 7    1  0.2933178E-015  0.9000760E+02  0.7816164E-02  0.1186339E+00
        -11   -1    0    0    0    0  0.00000000000E+00  0.00000000000E+00  0.45593999997E+02  0.45594000000E+02  0.51100000000E-03 0.  1.
         11   -1    0    0    0    0 -0.00000000000E+00 -0.00000000000E+00 -0.45593999997E+02  0.45594000000E+02  0.51100000000E-03 0. -1.
    9900012    2    1    2    0    0 -0.39738121722E+00 -0.52575825721E+00  0.97928814771E+00  0.90007602248E+02  0.89999861798E+02 0.  0.
         12    1    1    2    0    0  0.39738121722E+00  0.52575825721E+00 -0.97928814771E+00  0.11803977521E+01  0.00000000000E+00 0. -1.
         11    1    3    3    0    0 -0.11429198934E+02  0.36689316294E+01 -0.34849548742E+02  0.36858902525E+02  0.51100000000E-03 0. -1.
        -11    1    3    3    0    0  0.72872098786E+01  0.33505869419E+00 -0.68859144050E+01  0.10031525786E+02  0.51100000000E-03 0.  1.
        -12    1    3    3    0    0  0.37446078379E+01 -0.45297485808E+01  0.42714751295E+02  0.43117173936E+02  0.00000000000E+00 0.  1.
</event>
<event>
 7    1  0.2090370E-015  0.9000786E+02  0.7816164E-02  0.1186339E+00
        -11   -1    0    0    0    0  0.00000000000E+00  0.00000000000E+00  0.45593999997E+02  0.45594000000E+02  0.51100000000E-03 0.  1.
         11   -1    0    0    0    0 -0.00000000000E+00 -0.00000000000E+00 -0.45593999997E+02  0.45594000000E+02  0.51100000000E-03 0. -1.
    9900012    2    1    2    0    0 -0.10656743084E+01  0.31182537186E+00 -0.39979985910E+00  0.90007857330E+02  0.90000120247E+02 0.  0.
         12    1    1    2    0    0  0.10656743084E+01 -0.31182537186E+00  0.39979985910E+00  0.11801426700E+01  0.00000000000E+00 0. -1.
         11    1    3    3    0    0 -0.11658357341E+02  0.15567583294E+02 -0.35380984412E+02  0.40374261650E+02  0.51100000000E-03 0. -1.
        -11    1    3    3    0    0 -0.10822151850E+01 -0.10966642721E+02 -0.14711933072E+01  0.11117681966E+02  0.51100000000E-03 0.  1.
        -12    1    3    3    0    0  0.11674898218E+02 -0.42891152009E+01  0.36452377860E+02  0.38515913715E+02  0.00000000000E+00 0.  1.
</event>
<event>
 7    1  0.2090370E-015  0.9000771E+02  0.7816164E-02  0.1186339E+00
        -11   -1    0    0    0    0  0.00000000000E+00  0.00000000000E+00  0.45593999997E+02  0.45594000000E+02  0.51100000000E-03 0.  1.
         11   -1    0    0    0    0 -0.00000000000E+00 -0.00000000000E+00 -0.45593999997E+02  0.45594000000E+02  0.51100000000E-03 0. -1.
    9900012    2    1    2    0    0  0.40660079968E+00 -0.76868166587E+00  0.79805748375E+00  0.90007707044E+02  0.89999967977E+02 0.  0.
         12    1    1    2    0    0 -0.40660079968E+00  0.76868166587E+00 -0.79805748375E+00  0.11802929556E+01  0.00000000000E+00 0. -1.
         11    1    3    3    0    0 -0.29071657628E+01 -0.57363050309E+01 -0.68571570141E+01  0.94009260585E+01  0.51100000000E-03 0. -1.
        -11    1    3    3    0    0 -0.40022770368E+00 -0.29736670948E+02  0.27458883103E+02  0.40477401631E+02  0.51100000000E-03 0.  1.
         12    1    3    3    0    0  0.37139942662E+01  0.34704294313E+02 -0.19803668605E+02  0.40129379355E+02  0.00000000000E+00 0. -1.
</event>
<event>
 7    1  0.2090370E-015  0.9000782E+02  0.7816164E-02  0.1186339E+00
        -11   -1    0    0    0    0  0.00000000000E+00  0.00000000000E+00  0.45593999997E+02  0.45594000000E+02  0.51100000000E-03 0. -1.
         11   -1    0    0    0    0 -0.00000000000E+00 -0.00000000000E+00 -0.45593999997E+02  0.45594000000E+02  0.51100000000E-03 0.  1.
    9900012    2    1    2    0    0 -0.59429456226E+00 -0.98464897270E+00  0.26475230611E+00  0.90007824839E+02  0.90000087327E+02 0.  0.
         12    1    1    2    0    0  0.59429456226E+00  0.98464897270E+00 -0.26475230611E+00  0.11801751606E+01  0.00000000000E+00 0. -1.
         11    1    3    3    0    0  0.30152177099E+01 -0.74858155162E+01 -0.64750677292E+01  0.10346761529E+02  0.51100000000E-03 0. -1.
        -11    1    3    3    0    0 -0.17756367204E+00 -0.57795850000E+01 -0.35279170466E+02  0.35749895114E+02  0.51100000000E-03 0.  1.
         12    1    3    3    0    0 -0.34319486001E+01  0.12280751543E+02  0.42018990501E+02  0.43911168197E+02  0.00000000000E+00 0. -1.
</event>
<event>
 7    1  0.2465101E-015  0.9000767E+02  0.7816164E-02  0.1186339E+00
        -11   -1    0    0    0    0  0.00000000000E+00  0.00000000000E+00  0.45593999997E+02  0.45594000000E+02  0.51100000000E-03 0. -1.
         11   -1    0    0    0    0 -0.00000000000E+00 -0.00000000000E+00 -0.45593999997E+02  0.45594000000E+02  0.51100000000E-03 0.  1.
    9900012    2    1    2    0    0  0.99093206103E+00 -0.58996609001E+00 -0.25132845475E+00  0.90007672787E+02  0.89999933268E+02 0.  0.
         12    1    1    2    0    0 -0.99093206103E+00  0.58996609001E+00  0.25132845475E+00  0.11803272127E+01  0.00000000000E+00 0. -1.
         11    1    3    3    0    0  0.16466409741E+02  0.11510019540E+02  0.33910607480E+02  0.39415130337E+02  0.51100000000E-03 0. -1.
        -11    1    3    3    0    0  0.91457689378E+01 -0.29977837374E+01 -0.35290883478E+01  0.10251159038E+02  0.51100000000E-03 0.  1.
        -12    1    3    3    0    0 -0.24621246617E+02 -0.91022018922E+01 -0.30632847587E+02  0.40341383412E+02  0.00000000000E+00 0.  1.
</event>
<event>
 7    1  0.3071596E-015  0.9000792E+02  0.7816164E-02  0.1186339E+00
        -11   -1    0    0    0    0  0.00000000000E+00  0.00000000000E+00  0.45593999997E+02  0.45594000000E+02  0.51100000000E-03 0.  1.
         11   -1    0    0    0    0 -0.00000000000E+00 -0.00000000000E+00 -0.45593999997E+02  0.45594000000E+02  0.51100000000E-03 0. -1.
    9900012    2    1    2    0    0  0.47243962056E+00  0.10779202924E+01  0.86425821386E-01  0.90007923403E+02  0.90000187192E+02 0.  0.
         12    1    1    2    0    0 -0.47243962056E+00 -0.10779202924E+01 -0.86425821386E-01  0.11800765969E+01  0.00000000000E+00 0. -1.
         11    1    3    3    0    0  0.19567787841E+01  0.48145720966E+01 -0.36054595958E+02  0.36427228520E+02  0.51100000000E-03 0. -1.
        -11    1    3    3    0    0  0.25652910433E+01 -0.38037058784E+01 -0.80172002979E+01  0.92371206241E+01  0.51100000000E-03 0.  1.
        -12    1    3    3    0    0 -0.40496302068E+01  0.67054074147E-01  0.44158222077E+02  0.44343574259E+02  0.00000000000E+00 0.  1.
</event>
<event>
 7    1  0.2090370E-015  0.9000778E+02  0.7816164E-02  0.1186339E+00
        -11   -1    0    0    0    0  0.00000000000E+00  0.00000000000E+00  0.45593999997E+02  0.45594000000E+02  0.51100000000E-03 0.  1.
         11   -1    0    0    0    0 -0.00000000000E+00 -0.00000000000E+00 -0.45593999997E+02  0.45594000000E+02  0.51100000000E-03 0. -1.
    9900012    2    1    2    0    0 -0.59118125809E+00  0.10214614396E+01 -0.65599355741E-02  0.90007778925E+02  0.90000040807E+02 0.  0.
         12    1    1    2    0    0  0.59118125809E+00 -0.10214614396E+01  0.65599355741E-02  0.11802210748E+01  0.00000000000E+00 0. -1.
         11    1    3    3    0    0  0.19314732739E+01  0.18819919558E+02  0.22865141734E+02  0.29677174191E+02  0.51100000000E-03 0. -1.
        -11    1    3    3    0    0  0.71826482984E+01  0.13160597405E+02  0.67086830013E+01  0.16425534649E+02  0.51100000000E-03 0.  1.
         12    1    3    3    0    0 -0.97053028304E+01 -0.30959055523E+02 -0.29580384671E+02  0.43905070085E+02  0.00000000000E+00 0. -1.
</event>
<event>
 7    1  0.2090370E-015  0.9000781E+02  0.7816164E-02  0.1186339E+00
        -11   -1    0    0    0    0  0.00000000000E+00  0.00000000000E+00  0.45593999997E+02  0.45594000000E+02  0.51100000000E-03 0.  1.
         11   -1    0    0    0    0 -0.00000000000E+00 -0.00000000000E+00 -0.45593999997E+02  0.45594000000E+02  0.51100000000E-03 0. -1.
    9900012    2    1    2    0    0 -0.59572143658E+00  0.65190615698E+00  0.78293095643E+00  0.90007810799E+02  0.90000073102E+02 0.  0.
         12    1    1    2    0    0  0.59572143658E+00 -0.65190615698E+00 -0.78293095643E+00  0.11801892010E+01  0.00000000000E+00 0. -1.
         11    1    3    3    0    0 -0.13007573047E+02 -0.70328796758E+01  0.38820223412E+02  0.41541161504E+02  0.51100000000E-03 0. -1.
        -11    1    3    3    0    0  0.45520083000E+01 -0.84816239268E+01 -0.49796336293E+01  0.10837687730E+02  0.51100000000E-03 0.  1.
        -12    1    3    3    0    0  0.78598433100E+01  0.16166409760E+02 -0.33057658826E+02  0.37628961565E+02  0.00000000000E+00 0.  1.
</event>
<event>
 7    1  0.2090370E-015  0.9000773E+02  0.7816164E-02  0.1186339E+00
        -11   -1    0    0    0    0  0.00000000000E+00  0.00000000000E+00  0.45593999997E+02  0.45594000000E+02  0.51100000000E-03 0.  1.
         11   -1    0    0    0    0 -0.00000000000E+00 -0.00000000000E+00 -0.45593999997E+02  0.45594000000E+02  0.51100000000E-03 0. -1.
    9900012    2    1    2    0    0 -0.16996979633E+00  0.11059641499E+01  0.37550150414E+00  0.90007725535E+02  0.89999986712E+02 0.  0.
         12    1    1    2    0    0  0.16996979633E+00 -0.11059641499E+01 -0.37550150414E+00  0.11802744647E+01  0.00000000000E+00 0. -1.
         11    1    3    3    0    0  0.23128047278E+02  0.17958442507E+02 -0.25498029620E+02  0.38827332421E+02  0.51100000000E-03 0. -1.
        -11    1    3    3    0    0 -0.33946142520E+01 -0.85846429208E+01 -0.71979833425E+01  0.11706001215E+02  0.51100000000E-03 0.  1.
        -12    1    3    3    0    0 -0.19903402822E+02 -0.82678354359E+01  0.33071514466E+02  0.39474391899E+02  0.00000000000E+00 0.  1.
</event>
<event>
 7    1  0.2461102E-015  0.9000759E+02  0.7816164E-02  0.1186339E+00
        -11   -1    0    0    0    0  0.00000000000E+00  0.00000000000E+00  0.45593999997E+02  0.45594000000E+02  0.51100000000E-03 0.  1.
         11   -1    0    0    0    0 -0.00000000000E+00 -0.00000000000E+00 -0.45593999997E+02  0.45594000000E+02  0.51100000000E-03 0. -1.
    9900012    2    1    2    0    0 -0.10567047142E+01  0.37881512157E+00  0.36503886092E+00  0.90007585192E+02  0.89999844516E+02 0.  0.
         12    1    1    2    0    0  0.10567047142E+01 -0.37881512157E+00 -0.36503886092E+00  0.11804148082E+01  0.00000000000E+00 0. -1.
         11    1    3    3    0    0  0.57650364195E+01 -0.23676274903E+02 -0.26306333580E+02  0.35858399642E+02  0.51100000000E-03 0. -1.
        -11    1    3    3    0    0  0.11941049609E+01 -0.91059031426E+01 -0.22142348719E+01  0.94470204313E+01  0.51100000000E-03 0.  1.
        -12    1    3    3    0    0 -0.80158460946E+01  0.33160993167E+02  0.28885607313E+02  0.44702165118E+02  0.00000000000E+00 0.  1.
</event>
<event>
 7    1  0.2090370E-015  0.9000783E+02  0.7816164E-02  0.1186339E+00
        -11   -1    0    0    0    0  0.00000000000E+00  0.00000000000E+00  0.45593999997E+02  0.45594000000E+02  0.51100000000E-03 0.  1.
         11   -1    0    0    0    0 -0.00000000000E+00 -0.00000000000E+00 -0.45593999997E+02  0.45594000000E+02  0.51100000000E-03 0. -1.
    9900012    2    1    2    0    0 -0.74331221047E+00  0.69645677005E+00  0.59601012661E+00  0.90007833425E+02  0.90000096026E+02 0.  0.
         12    1    1    2    0    0  0.74331221047E+00 -0.69645677005E+00 -0.59601012661E+00  0.11801665755E+01  0.00000000000E+00 0. -1.
         11    1    3    3    0    0 -0.36350227723E+01 -0.99472216549E+00 -0.37554943916E+02  0.37743564690E+02  0.51100000000E-03 0. -1.
        -11    1    3    3    0    0  0.10093001652E+02  0.16893079337E+01 -0.28602585569E+01  0.10625606944E+02  0.51100000000E-03 0.  1.
        -12    1    3    3    0    0 -0.72012910906E+01  0.18710018226E-02  0.41011212599E+02  0.41638661791E+02  0.00000000000E+00 0.  1.
</event>
<event>
 7    1  0.2090370E-015  0.9000772E+02  0.7816164E-02  0.1186339E+00
        -11   -1    0    0    0    0  0.00000000000E+00  0.00000000000E+00  0.45593999997E+02  0.45594000000E+02  0.51100000000E-03 0.  1.
         11   -1    0    0    0    0 -0.00000000000E+00 -0.00000000000E+00 -0.45593999997E+02  0.45594000000E+02  0.51100000000E-03 0. -1.
    9900012    2    1    2    0    0  0.49174467614E+00  0.82851010318E+00  0.68177213437E+00  0.90007722465E+02  0.89999983601E+02 0.  0.
         12    1    1    2    0    0 -0.49174467614E+00 -0.82851010318E+00 -0.68177213437E+00  0.11802775355E+01  0.00000000000E+00 0. -1.
         11    1    3    3    0    0 -0.29220580730E+02 -0.10266652952E+02  0.22382167302E+02  0.38212666938E+02  0.51100000000E-03 0. -1.
        -11    1    3    3    0    0  0.11333102585E+02 -0.27270989516E+01  0.80695521306E+01  0.14177233678E+02  0.51100000000E-03 0.  1.
         12    1    3    3    0    0  0.18379222821E+02  0.13822262007E+02 -0.29769947299E+02  0.37617821849E+02  0.00000000000E+00 0. -1.
</event>
<event>
 7    1  0.2090370E-015  0.9000772E+02  0.7816164E-02  0.1186339E+00
        -11   -1    0    0    0    0  0.00000000000E+00  0.00000000000E+00  0.45593999997E+02  0.45594000000E+02  0.51100000000E-03 0.  1.
         11   -1    0    0    0    0 -0.00000000000E+00 -0.00000000000E+00 -0.45593999997E+02  0.45594000000E+02  0.51100000000E-03 0. -1.
    9900012    2    1    2    0    0  0.53844362073E+00 -0.85201655606E+00 -0.61418011276E+00  0.90007715731E+02  0.89999976779E+02 0.  0.
         12    1    1    2    0    0 -0.53844362073E+00  0.85201655606E+00  0.61418011276E+00  0.11802842689E+01  0.00000000000E+00 0. -1.
         11    1    3    3    0    0  0.12120344314E+02  0.39757892926E+02 -0.26049874082E+01  0.41645873215E+02  0.51100000000E-03 0. -1.
        -11    1    3    3    0    0 -0.10124215915E+02 -0.39840598320E+01 -0.32012636760E+01  0.11341100918E+02  0.51100000000E-03 0.  1.
        -12    1    3    3    0    0 -0.14576847778E+01 -0.36625849650E+02  0.51920709715E+01  0.37020741598E+02  0.00000000000E+00 0.  1.
</event>
<event>
 7    1  0.2090370E-015  0.9000772E+02  0.7816164E-02  0.1186339E+00
        -11   -1    0    0    0    0  0.00000000000E+00  0.00000000000E+00  0.45593999997E+02  0.45594000000E+02  0.51100000000E-03 0. -1.
         11   -1    0    0    0    0 -0.00000000000E+00 -0.00000000000E+00 -0.45593999997E+02  0.45594000000E+02  0.51100000000E-03 0.  1.
    9900012    2    1    2    0    0  0.36885433230E-01 -0.31115059433E+00 -0.11379328158E+01  0.90007717694E+02  0.89999978768E+02 0.  0.
         12    1    1    2    0    0 -0.36885433230E-01  0.31115059433E+00  0.11379328158E+01  0.11802823056E+01  0.00000000000E+00 0. -1.
         11    1    3    3    0    0 -0.33415131270E+02 -0.18937159775E+02 -0.52011749541E+01  0.38758731136E+02  0.51100000000E-03 0. -1.
        -11    1    3    3    0    0  0.15323856364E+01 -0.83004518764E+01  0.43334365655E+01  0.94881178228E+01  0.51100000000E-03 0.  1.
        -12    1    3    3    0    0  0.31919631067E+02  0.26926461057E+02 -0.27019442723E+00  0.41760868735E+02  0.00000000000E+00 0.  1.
</event>
<event>
 7    1  0.2090370E-015  0.9000787E+02  0.7816164E-02  0.1186339E+00
        -11   -1    0    0    0    0  0.00000000000E+00  0.00000000000E+00  0.45593999997E+02  0.45594000000E+02  0.51100000000E-03 0. -1.
         11   -1    0    0    0    0 -0.00000000000E+00 -0.00000000000E+00 -0.45593999997E+02  0.45594000000E+02  0.51100000000E-03 0.  1.
    9900012    2    1    2    0    0  0.15882435248E-01 -0.10412771953E+01 -0.55516402311E+00  0.90007865456E+02  0.90000128480E+02 0.  0.
         12    1    1    2    0    0 -0.15882435248E-01  0.10412771953E+01  0.55516402311E+00  0.11801345439E+01  0.00000000000E+00 0. -1.
         11    1    3    3    0    0 -0.21696017859E+02  0.70547164019E+01  0.32537114072E+02  0.39738520441E+02  0.51100000000E-03 0. -1.
        -11    1    3    3    0    0 -0.25558618275E+01 -0.10348108745E+02 -0.21372182810E+01  0.10871222863E+02  0.51100000000E-03 0.  1.
        -12    1    3    3    0    0  0.24267762121E+02  0.22521151481E+01 -0.30955059814E+02  0.39398122152E+02  0.00000000000E+00 0.  1.
</event>
<event>
 7    1  0.2090370E-015  0.9000772E+02  0.7816164E-02  0.1186339E+00
        -11   -1    0    0    0    0  0.00000000000E+00  0.00000000000E+00  0.45593999997E+02  0.45594000000E+02  0.51100000000E-03 0.  1.
         11   -1    0    0    0    0 -0.00000000000E+00 -0.00000000000E+00 -0.45593999997E+02  0.45594000000E+02  0.51100000000E-03 0. -1.
    9900012    2    1    2    0    0  0.54623018476E+00  0.99453232382E+00  0.32497067406E+00  0.90007717027E+02  0.89999978092E+02 0.  0.
         12    1    1    2    0    0 -0.54623018476E+00 -0.99453232382E+00 -0.32497067406E+00  0.11802829732E+01  0.00000000000E+00 0. -1.
         11    1    3    3    0    0  0.21336455562E+02  0.22193046025E+01  0.29017969700E+02  0.36086177612E+02  0.51100000000E-03 0. -1.
        -11    1    3    3    0    0 -0.61809043712E+01 -0.94392810311E+01  0.78319217240E+01  0.13734722545E+02  0.51100000000E-03 0.  1.
        -12    1    3    3    0    0 -0.14609321007E+02  0.82145087524E+01 -0.36524920750E+02  0.40186816870E+02  0.00000000000E+00 0.  1.
</event>
<event>
 7    1  0.2090370E-015  0.9000778E+02  0.7816164E-02  0.1186339E+00
        -11   -1    0    0    0    0  0.00000000000E+00  0.00000000000E+00  0.45593999997E+02  0.45594000000E+02  0.51100000000E-03 0.  1.
         11   -1    0    0    0    0 -0.00000000000E+00 -0.00000000000E+00 -0.45593999997E+02  0.45594000000E+02  0.51100000000E-03 0. -1.
    9900012    2    1    2    0    0  0.10840498408E+01  0.45586403187E+00  0.99710628540E-01  0.90007780409E+02  0.90000042311E+02 0.  0.
         12    1    1    2    0    0 -0.10840498408E+01 -0.45586403187E+00 -0.99710628540E-01  0.11802195907E+01  0.00000000000E+00 0. -1.
         11    1    3    3    0    0  0.22856651942E+00 -0.11445162907E+02  0.17734809258E+02  0.21108468829E+02  0.51100000000E-03 0. -1.
        -11    1    3    3    0    0 -0.23118352877E+02 -0.16780471947E+02 -0.12443770972E+02  0.31159106450E+02  0.51100000000E-03 0.  1.
         12    1    3    3    0    0  0.23973836199E+02  0.28681498885E+02 -0.51913276579E+01  0.37740205130E+02  0.00000000000E+00 0. -1.
</event>
<event>
 7    1  0.2090370E-015  0.9000758E+02  0.7816164E-02  0.1186339E+00
        -11   -1    0    0    0    0  0.00000000000E+00  0.00000000000E+00  0.45593999997E+02  0.45594000000E+02  0.51100000000E-03 0.  1.
         11   -1    0    0    0    0 -0.00000000000E+00 -0.00000000000E+00 -0.45593999997E+02  0.45594000000E+02  0.51100000000E-03 0. -1.
    9900012    2    1    2    0    0  0.61847966578E+00  0.99503877246E+00 -0.14414016368E+00  0.90007578193E+02  0.89999837425E+02 0.  0.
         12    1    1    2    0    0 -0.61847966578E+00 -0.99503877246E+00  0.14414016368E+00  0.11804218070E+01  0.00000000000E+00 0. -1.
         11    1    3    3    0    0 -0.19069379159E+02 -0.29473516344E+02  0.18314612157E+02  0.39594878532E+02  0.51100000000E-03 0. -1.
        -11    1    3    3    0    0 -0.75230250659E+01  0.58726047327E+01 -0.45948465206E+00  0.95548165286E+01  0.51100000000E-03 0.  1.
        -12    1    3    3    0    0  0.27210883891E+02  0.24595950384E+02 -0.17999267669E+02  0.40857883132E+02  0.00000000000E+00 0.  1.
</event>
<event>
 7    1  0.2090370E-015  0.9000766E+02  0.7816164E-02  0.1186339E+00
        -11   -1    0    0    0    0  0.00000000000E+00  0.00000000000E+00  0.45593999997E+02  0.45594000000E+02  0.51100000000E-03 0.  1.
         11   -1    0    0    0    0 -0.00000000000E+00 -0.00000000000E+00 -0.45593999997E+02  0.45594000000E+02  0.51100000000E-03 0. -1.
    9900012    2    1    2    0    0  0.10655366091E+01  0.32990509052E+00 -0.38599929728E+00  0.90007660603E+02  0.89999920923E+02 0.  0.
         12    1    1    2    0    0 -0.10655366091E+01 -0.32990509052E+00  0.38599929728E+00  0.11803393968E+01  0.00000000000E+00 0. -1.
         11    1    3    3    0    0 -0.26764303356E+01  0.44232034280E+01 -0.43602785961E+01  0.67631381476E+01  0.51100000000E-03 0. -1.
        -11    1    3    3    0    0  0.34623696900E+02 -0.23694552277E+02 -0.11539807187E+02  0.43513208854E+02  0.51100000000E-03 0.  1.
         12    1    3    3    0    0 -0.30881729955E+02  0.19601253939E+02  0.15514086486E+02  0.39731313602E+02  0.00000000000E+00 0. -1.
</event>
<event>
 7    1  0.2090370E-015  0.9000768E+02  0.7816164E-02  0.1186339E+00
        -11   -1    0    0    0    0  0.00000000000E+00  0.00000000000E+00  0.45593999997E+02  0.45594000000E+02  0.51100000000E-03 0. -1.
         11   -1    0    0    0    0 -0.00000000000E+00 -0.00000000000E+00 -0.45593999997E+02  0.45594000000E+02  0.51100000000E-03 0.  1.
    9900012    2    1    2    0    0 -0.44140421104E+00 -0.64886234019E+00 -0.88164606415E+00  0.90007678096E+02  0.89999938647E+02 0.  0.
         12    1    1    2    0    0  0.44140421104E+00  0.64886234019E+00  0.88164606415E+00  0.11803219038E+01  0.00000000000E+00 0. -1.
         11    1    3    3    0    0 -0.13835507939E+02  0.39548159956E+02  0.63415140267E+01  0.42375618417E+02  0.51100000000E-03 0. -1.
        -11    1    3    3    0    0 -0.46381876124E+01 -0.97379334799E+01  0.21878161566E+01  0.11005756338E+02  0.51100000000E-03 0.  1.
        -12    1    3    3    0    0  0.18032291340E+02 -0.30459088816E+02 -0.94109762474E+01  0.36626303341E+02  0.00000000000E+00 0.  1.
</event>
<event>
 7    1  0.2090370E-015  0.9000775E+02  0.7816164E-02  0.1186339E+00
        -11   -1    0    0    0    0  0.00000000000E+00  0.00000000000E+00  0.45593999997E+02  0.45594000000E+02  0.51100000000E-03 0. -1.
         11   -1    0    0    0    0 -0.00000000000E+00 -0.00000000000E+00 -0.45593999997E+02  0.45594000000E+02  0.51100000000E-03 0.  1.
    9900012    2    1    2    0    0  0.90908939153E+00  0.46160437604E-01  0.75127620404E+00  0.90007749924E+02  0.90000011423E+02 0.  0.
         12    1    1    2    0    0 -0.90908939153E+00 -0.46160437604E-01 -0.75127620404E+00  0.11802500763E+01  0.00000000000E+00 0. -1.
         11    1    3    3    0    0 -0.39139355908E+01 -0.37053074983E+01 -0.72704834030E+01  0.90503107482E+01  0.51100000000E-03 0. -1.
        -11    1    3    3    0    0 -0.37719996715E+02 -0.84823791148E+00  0.50085873720E+01  0.38060525581E+02  0.51100000000E-03 0.  1.
         12    1    3    3    0    0  0.42543021698E+02  0.45997058473E+01  0.30131722350E+01  0.42896913595E+02  0.00000000000E+00 0. -1.
</event>
<event>
 7    1  0.2090370E-015  0.9000768E+02  0.7816164E-02  0.1186339E+00
        -11   -1    0    0    0    0  0.00000000000E+00  0.00000000000E+00  0.45593999997E+02  0.45594000000E+02  0.51100000000E-03 0. -1.
         11   -1    0    0    0    0 -0.00000000000E+00 -0.00000000000E+00 -0.45593999997E+02  0.45594000000E+02  0.51100000000E-03 0.  1.
    9900012    2    1    2    0    0 -0.51334743224E+00  0.39305377602E-01 -0.10621134567E+01  0.90007679919E+02  0.89999940494E+02 0.  0.
         12    1    1    2    0    0  0.51334743224E+00 -0.39305377602E-01  0.10621134567E+01  0.11803200811E+01  0.00000000000E+00 0. -1.
         11    1    3    3    0    0  0.26638279222E+02  0.21469865892E+02  0.24184074818E+02  0.41897762904E+02  0.51100000000E-03 0. -1.
        -11    1    3    3    0    0 -0.10374988987E+01  0.37063597967E+01 -0.58429476931E+01  0.69966809926E+01  0.51100000000E-03 0.  1.
        -12    1    3    3    0    0 -0.26114127755E+02 -0.25136920312E+02 -0.19403240581E+02  0.41113236022E+02  0.00000000000E+00 0.  1.
</event>
<event>
 7    1  0.2090370E-015  0.9000770E+02  0.7816164E-02  0.1186339E+00
        -11   -1    0    0    0    0  0.00000000000E+00  0.00000000000E+00  0.45593999997E+02  0.45594000000E+02  0.51100000000E-03 0. -1.
         11   -1    0    0    0    0 -0.00000000000E+00 -0.00000000000E+00 -0.45593999997E+02  0.45594000000E+02  0.51100000000E-03 0.  1.
    9900012    2    1    2    0    0  0.10126302788E+01  0.33990607251E+00  0.50214438408E+00  0.90007701223E+02  0.89999962080E+02 0.  0.
         12    1    1    2    0    0 -0.10126302788E+01 -0.33990607251E+00 -0.50214438408E+00  0.11802987766E+01  0.00000000000E+00 0. -1.
         11    1    3    3    0    0  0.31546248020E+01 -0.39616396283E+02 -0.50271062276E+01  0.40058486109E+02  0.51100000000E-03 0. -1.
        -11    1    3    3    0    0  0.83233765414E+01  0.70236421170E+00  0.40853681924E+01  0.92985023560E+01  0.51100000000E-03 0.  1.
        -12    1    3    3    0    0 -0.10465371065E+02  0.39253938144E+02  0.14438824193E+01  0.40650712758E+02  0.00000000000E+00 0.  1.
</event>
<event>
 7    1  0.2090370E-015  0.9000768E+02  0.7816164E-02  0.1186339E+00
        -11   -1    0    0    0    0  0.00000000000E+00  0.00000000000E+00  0.45593999997E+02  0.45594000000E+02  0.51100000000E-03 0.  1.
         11   -1    0    0    0    0 -0.00000000000E+00 -0.00000000000E+00 -0.45593999997E+02  0.45594000000E+02  0.51100000000E-03 0. -1.
    9900012    2    1    2    0    0  0.66412340102E+00 -0.97572147497E+00  0.76618951181E-02  0.90007681825E+02  0.89999942426E+02 0.  0.
         12    1    1    2    0    0 -0.66412340102E+00  0.97572147497E+00 -0.76618951181E-02  0.11803181745E+01  0.00000000000E+00 0. -1.
         11    1    3    3    0    0  0.26087238966E+01 -0.45941735768E+01  0.11770850017E+02  0.12902123143E+02  0.51100000000E-03 0. -1.
        -11    1    3    3    0    0  0.22963246564E+02 -0.16497622866E+02  0.17895797724E+02  0.33462543678E+02  0.51100000000E-03 0.  1.
         12    1    3    3    0    0 -0.24907847060E+02  0.20116074968E+02 -0.29658985845E+02  0.43643015004E+02  0.00000000000E+00 0. -1.
</event>
<event>
 7    1  0.2090370E-015  0.9000773E+02  0.7816164E-02  0.1186339E+00
        -11   -1    0    0    0    0  0.00000000000E+00  0.00000000000E+00  0.45593999997E+02  0.45594000000E+02  0.51100000000E-03 0. -1.
         11   -1    0    0    0    0 -0.00000000000E+00 -0.00000000000E+00 -0.45593999997E+02  0.45594000000E+02  0.51100000000E-03 0.  1.
    9900012    2    1    2    0    0 -0.12167121559E+00  0.10840006523E+01 -0.45074553583E+00  0.90007731879E+02  0.89999993140E+02 0.  0.
         12    1    1    2    0    0  0.12167121559E+00 -0.10840006523E+01  0.45074553583E+00  0.11802681208E+01  0.00000000000E+00 0. -1.
         11    1    3    3    0    0 -0.32426320594E+02  0.10481584610E+02  0.10115525588E+02  0.35547907693E+02  0.51100000000E-03 0. -1.
        -11    1    3    3    0    0 -0.87866734336E+01 -0.46825598286E+01  0.38260951354E+01  0.10666348992E+02  0.51100000000E-03 0.  1.
        -12    1    3    3    0    0  0.41091322812E+02 -0.47150241286E+01 -0.14392366259E+02  0.43793475194E+02  0.00000000000E+00 0.  1.
</event>
<event>
 7    1  0.2090370E-015  0.9000774E+02  0.7816164E-02  0.1186339E+00
        -11   -1    0    0    0    0  0.00000000000E+00  0.00000000000E+00  0.45593999997E+02  0.45594000000E+02  0.51100000000E-03 0. -1.
         11   -1    0    0    0    0 -0.00000000000E+00 -0.00000000000E+00 -0.45593999997E+02  0.45594000000E+02  0.51100000000E-03 0.  1.
    9900012    2    1    2    0    0  0.55058603107E+00 -0.16028421823E+00 -0.10315944628E+01  0.90007735985E+02  0.89999997300E+02 0.  0.
         12    1    1    2    0    0 -0.55058603107E+00  0.16028421823E+00  0.10315944628E+01  0.11802640145E+01  0.00000000000E+00 0. -1.
         11    1    3    3    0    0  0.75155293103E+00  0.22276531612E+01  0.92764891988E+01  0.95697712894E+01  0.51100000000E-03 0. -1.
        -11    1    3    3    0    0 -0.11556103169E+02  0.32959057625E+02  0.12230734405E+02  0.37005862567E+02  0.51100000000E-03 0.  1.
         12    1    3    3    0    0  0.11355136269E+02 -0.35346995004E+02 -0.22538818067E+02  0.43432102129E+02  0.00000000000E+00 0. -1.
</event>
<event>
 7    1  0.2090370E-015  0.9000776E+02  0.7816164E-02  0.1186339E+00
        -11   -1    0    0    0    0  0.00000000000E+00  0.00000000000E+00  0.45593999997E+02  0.45594000000E+02  0.51100000000E-03 0.  1.
         11   -1    0    0    0    0 -0.00000000000E+00 -0.00000000000E+00 -0.45593999997E+02  0.45594000000E+02  0.51100000000E-03 0. -1.
    9900012    2    1    2    0    0  0.69294057964E+00 -0.60370448805E+00  0.74050645435E+00  0.90007756142E+02  0.90000017723E+02 0.  0.
         12    1    1    2    0    0 -0.69294057964E+00  0.60370448805E+00 -0.74050645435E+00  0.11802438582E+01  0.00000000000E+00 0. -1.
         11    1    3    3    0    0 -0.50611186534E+01  0.70588852705E+01  0.10082300155E+01  0.87441015153E+01  0.51100000000E-03 0. -1.
        -11    1    3    3    0    0 -0.25169090921E+02  0.31823842202E+01  0.28145184165E+02  0.37891451530E+02  0.51100000000E-03 0.  1.
         12    1    3    3    0    0  0.30923150154E+02 -0.10844973979E+02 -0.28412907726E+02  0.43372203097E+02  0.00000000000E+00 0. -1.
</event>
<event>
 7    1  0.2090370E-015  0.9000781E+02  0.7816164E-02  0.1186339E+00
        -11   -1    0    0    0    0  0.00000000000E+00  0.00000000000E+00  0.45593999997E+02  0.45594000000E+02  0.51100000000E-03 0.  1.
         11   -1    0    0    0    0 -0.00000000000E+00 -0.00000000000E+00 -0.45593999997E+02  0.45594000000E+02  0.51100000000E-03 0. -1.
    9900012    2    1    2    0    0  0.55833982385E+00  0.16483421784E+00 -0.10266126363E+01  0.90007810531E+02  0.90000072830E+02 0.  0.
         12    1    1    2    0    0 -0.55833982385E+00 -0.16483421784E+00  0.10266126363E+01  0.11801894693E+01  0.00000000000E+00 0. -1.
         11    1    3    3    0    0  0.53353806641E+01  0.68990256324E+01  0.18618281617E+01  0.89179171263E+01  0.51100000000E-03 0. -1.
        -11    1    3    3    0    0  0.21695388549E+02 -0.99849216191E+01  0.30256376556E+02  0.38546554536E+02  0.51100000000E-03 0.  1.
         12    1    3    3    0    0 -0.26472429390E+02  0.32507302045E+01 -0.33144817354E+02  0.42543338868E+02  0.00000000000E+00 0. -1.
</event>
<event>
 7    1  0.2090370E-015  0.9000774E+02  0.7816164E-02  0.1186339E+00
        -11   -1    0    0    0    0  0.00000000000E+00  0.00000000000E+00  0.45593999997E+02  0.45594000000E+02  0.51100000000E-03 0.  1.
         11   -1    0    0    0    0 -0.00000000000E+00 -0.00000000000E+00 -0.45593999997E+02  0.45594000000E+02  0.51100000000E-03 0. -1.
    9900012    2    1    2    0    0  0.43044981220E+00 -0.97713055965E+00  0.50294188680E+00  0.90007736592E+02  0.89999997915E+02 0.  0.
         12    1    1    2    0    0 -0.43044981220E+00  0.97713055965E+00 -0.50294188680E+00  0.11802634083E+01  0.00000000000E+00 0. -1.
         11    1    3    3    0    0 -0.10433095404E+02 -0.41067621559E+01  0.67632563108E+01  0.13094144161E+02  0.51100000000E-03 0. -1.
        -11    1    3    3    0    0 -0.74671745480E+01 -0.32472217401E+02  0.82430677461E+01  0.34324215429E+02  0.51100000000E-03 0.  1.
         12    1    3    3    0    0  0.18330719764E+02  0.35601848997E+02 -0.14503382170E+02  0.42589377002E+02  0.00000000000E+00 0. -1.
</event>
<event>
 7    1  0.2090370E-015  0.9000774E+02  0.7816164E-02  0.1186339E+00
        -11   -1    0    0    0    0  0.00000000000E+00  0.00000000000E+00  0.45593999997E+02  0.45594000000E+02  0.51100000000E-03 0. -1.
         11   -1    0    0    0    0 -0.00000000000E+00 -0.00000000000E+00 -0.45593999997E+02  0.45594000000E+02  0.51100000000E-03 0.  1.
    9900012    2    1    2    0    0  0.11465569328E+01 -0.87085135755E-01 -0.26614740997E+00  0.90007741103E+02  0.90000002485E+02 0.  0.
         12    1    1    2    0    0 -0.11465569328E+01  0.87085135755E-01  0.26614740997E+00  0.11802588974E+01  0.00000000000E+00 0. -1.
         11    1    3    3    0    0 -0.42915000248E+01 -0.52637017890E+01  0.10135953342E+01  0.68666516403E+01  0.51100000000E-03 0. -1.
        -11    1    3    3    0    0  0.25370239356E+02 -0.34091610855E+01 -0.34804638621E+02  0.43204563348E+02  0.51100000000E-03 0.  1.
         12    1    3    3    0    0 -0.19932182398E+02  0.85857777387E+01  0.33524895877E+02  0.39936526114E+02  0.00000000000E+00 0. -1.
</event>
<event>
 7    1  0.2090370E-015  0.9000764E+02  0.7816164E-02  0.1186339E+00
        -11   -1    0    0    0    0  0.00000000000E+00  0.00000000000E+00  0.45593999997E+02  0.45594000000E+02  0.51100000000E-03 0.  1.
         11   -1    0    0    0    0 -0.00000000000E+00 -0.00000000000E+00 -0.45593999997E+02  0.45594000000E+02  0.51100000000E-03 0. -1.
    9900012    2    1    2    0    0  0.94084360009E+00 -0.69901623441E+00  0.13939053399E+00  0.90007644080E+02  0.89999904182E+02 0.  0.
         12    1    1    2    0    0 -0.94084360009E+00  0.69901623441E+00 -0.13939053399E+00  0.11803559195E+01  0.00000000000E+00 0. -1.
         11    1    3    3    0    0 -0.11008813558E+01 -0.21173397029E+02  0.39122520701E+02  0.44498273088E+02  0.51100000000E-03 0. -1.
        -11    1    3    3    0    0  0.33293138889E+01  0.64786153850E+01 -0.52899194116E+01  0.90022239430E+01  0.51100000000E-03 0.  1.
        -12    1    3    3    0    0 -0.12875889330E+01  0.13995765410E+02 -0.33693210756E+02  0.36507147050E+02  0.00000000000E+00 0.  1.
</event>
<event>
 7    1  0.2090370E-015  0.9000780E+02  0.7816164E-02  0.1186339E+00
        -11   -1    0    0    0    0  0.00000000000E+00  0.00000000000E+00  0.45593999997E+02  0.45594000000E+02  0.51100000000E-03 0. -1.
         11   -1    0    0    0    0 -0.00000000000E+00 -0.00000000000E+00 -0.45593999997E+02  0.45594000000E+02  0.51100000000E-03 0.  1.
    9900012    2    1    2    0    0 -0.18865345811E+00 -0.11137503437E+01 -0.34183342104E+00  0.90007796609E+02  0.90000058725E+02 0.  0.
         12    1    1    2    0    0  0.18865345811E+00  0.11137503437E+01  0.34183342104E+00  0.11802033905E+01  0.00000000000E+00 0. -1.
         11    1    3    3    0    0  0.62873608243E+00 -0.47489266803E+01 -0.12875234626E+01  0.49603760547E+01  0.51100000000E-03 0. -1.
        -11    1    3    3    0    0  0.26206431122E+02 -0.20026530586E+02 -0.24450883024E+02  0.41057090013E+02  0.51100000000E-03 0.  1.
         12    1    3    3    0    0 -0.27023820663E+02  0.23661706922E+02  0.25396573065E+02  0.43990330541E+02  0.00000000000E+00 0. -1.
</event>
<event>
 7    1  0.2090370E-015  0.9000779E+02  0.7816164E-02  0.1186339E+00
        -11   -1    0    0    0    0  0.00000000000E+00  0.00000000000E+00  0.45593999997E+02  0.45594000000E+02  0.51100000000E-03 0. -1.
         11   -1    0    0    0    0 -0.00000000000E+00 -0.00000000000E+00 -0.45593999997E+02  0.45594000000E+02  0.51100000000E-03 0.  1.
    9900012    2    1    2    0    0 -0.26007384472E+00 -0.15676860780E-01 -0.11510947684E+01  0.90007786742E+02  0.90000048727E+02 0.  0.
         12    1    1    2    0    0  0.26007384472E+00  0.15676860780E-01  0.11510947684E+01  0.11802132580E+01  0.00000000000E+00 0. -1.
         11    1    3    3    0    0  0.21656337979E+02  0.27129504438E+02  0.12554026217E+02  0.36913555237E+02  0.51100000000E-03 0. -1.
        -11    1    3    3    0    0  0.59504274833E+00  0.36691398571E+01  0.82636237224E+01  0.90611335080E+01  0.51100000000E-03 0.  1.
        -12    1    3    3    0    0 -0.22511454572E+02 -0.30814321156E+02 -0.21968744708E+02  0.44033097997E+02  0.00000000000E+00 0.  1.
</event>
<event>
 7    1  0.2090370E-015  0.9000726E+02  0.7816164E-02  0.1186340E+00
        -11   -1    0    0    0    0  0.00000000000E+00  0.00000000000E+00  0.45593999997E+02  0.45594000000E+02  0.51100000000E-03 0. -1.
         11   -1    0    0    0    0 -0.00000000000E+00 -0.00000000000E+00 -0.45593999997E+02  0.45594000000E+02  0.51100000000E-03 0.  1.
    9900012    2    1    2    0    0  0.96643166228E-01 -0.11665385407E+01  0.15489258477E+00  0.90007261341E+02  0.89999516389E+02 0.  0.
         12    1    1    2    0    0 -0.96643166228E-01  0.11665385407E+01 -0.15489258477E+00  0.11807386592E+01  0.00000000000E+00 0. -1.
         11    1    3    3    0    0  0.63303230569E+01  0.70790983690E+01 -0.11562235393E+01  0.95667903111E+01  0.51100000000E-03 0. -1.
        -11    1    3    3    0    0  0.29265781040E+02  0.55960964565E+01 -0.20845694634E+02  0.36364064961E+02  0.51100000000E-03 0.  1.
         12    1    3    3    0    0 -0.35499460931E+02 -0.13841733366E+02  0.22156810758E+02  0.44076406069E+02  0.00000000000E+00 0. -1.
</event>
<event>
 7    1  0.2090370E-015  0.9000774E+02  0.7816164E-02  0.1186339E+00
        -11   -1    0    0    0    0  0.00000000000E+00  0.00000000000E+00  0.45593999997E+02  0.45594000000E+02  0.51100000000E-03 0. -1.
         11   -1    0    0    0    0 -0.00000000000E+00 -0.00000000000E+00 -0.45593999997E+02  0.45594000000E+02  0.51100000000E-03 0.  1.
    9900012    2    1    2    0    0  0.16241209456E+00 -0.72546259565E+00 -0.91670653847E+00  0.90007735392E+02  0.89999996700E+02 0.  0.
         12    1    1    2    0    0 -0.16241209456E+00  0.72546259565E+00  0.91670653847E+00  0.11802646075E+01  0.00000000000E+00 0. -1.
         11    1    3    3    0    0  0.78563057435E+01  0.43495778675E+01  0.42440722991E+01  0.99323973693E+01  0.51100000000E-03 0. -1.
        -11    1    3    3    0    0  0.57605298375E+01 -0.12224259367E+02 -0.39908362587E+02  0.42134233418E+02  0.51100000000E-03 0.  1.
         12    1    3    3    0    0 -0.13454423486E+02  0.71492189035E+01  0.34747583749E+02  0.37941104606E+02  0.00000000000E+00 0. -1.
</event>
<event>
 7    1  0.2090370E-015  0.9000818E+02  0.7816164E-02  0.1186338E+00
        -11   -1    0    0    0    0  0.00000000000E+00  0.00000000000E+00  0.45593999997E+02  0.45594000000E+02  0.51100000000E-03 0. -1.
         11   -1    0    0    0    0 -0.00000000000E+00 -0.00000000000E+00 -0.45593999997E+02  0.45594000000E+02  0.51100000000E-03 0.  1.
    9900012    2    1    2    0    0 -0.46548392599E+00  0.10581371158E+01 -0.23590659298E+00  0.90008177402E+02  0.90000444543E+02 0.  0.
         12    1    1    2    0    0  0.46548392599E+00 -0.10581371158E+01  0.23590659298E+00  0.11798225976E+01  0.00000000000E+00 0. -1.
         11    1    3    3    0    0  0.22106873593E+02  0.14438702098E+02  0.27979897153E+02  0.38471608015E+02  0.51100000000E-03 0. -1.
        -11    1    3    3    0    0  0.32361554646E+01 -0.43298833020E+01  0.57741756176E+01  0.79095951808E+01  0.51100000000E-03 0.  1.
        -12    1    3    3    0    0 -0.25808512983E+02 -0.90506816797E+01 -0.33989979364E+02  0.43626974207E+02  0.00000000000E+00 0.  1.
</event>
<event>
 7    1  0.2090370E-015  0.9000774E+02  0.7816164E-02  0.1186339E+00
        -11   -1    0    0    0    0  0.00000000000E+00  0.00000000000E+00  0.45593999997E+02  0.45594000000E+02  0.51100000000E-03 0.  1.
         11   -1    0    0    0    0 -0.00000000000E+00 -0.00000000000E+00 -0.45593999997E+02  0.45594000000E+02  0.51100000000E-03 0. -1.
    9900012    2    1    2    0    0 -0.36023671863E+00 -0.67543293116E+00  0.89835343243E+00  0.90007737729E+02  0.89999999067E+02 0.  0.
         12    1    1    2    0    0  0.36023671863E+00  0.67543293116E+00 -0.89835343243E+00  0.11802622706E+01  0.00000000000E+00 0. -1.
         11    1    3    3    0    0  0.15714567799E+02 -0.31537728739E+02  0.93901566179E+01  0.36465751284E+02  0.51100000000E-03 0. -1.
        -11    1    3    3    0    0  0.32175722102E+01 -0.46854626751E+01  0.80417339703E+01  0.98476300153E+01  0.51100000000E-03 0.  1.
        -12    1    3    3    0    0 -0.19292376727E+02  0.35547758483E+02 -0.16533537156E+02  0.43694356430E+02  0.00000000000E+00 0.  1.
</event>
<event>
 7    1  0.2090370E-015  0.9000777E+02  0.7816164E-02  0.1186339E+00
        -11   -1    0    0    0    0  0.00000000000E+00  0.00000000000E+00  0.45593999997E+02  0.45594000000E+02  0.51100000000E-03 0.  1.
         11   -1    0    0    0    0 -0.00000000000E+00 -0.00000000000E+00 -0.45593999997E+02  0.45594000000E+02  0.51100000000E-03 0. -1.
    9900012    2    1    2    0    0  0.70987067322E+00  0.39464352807E+00  0.85632424502E+00  0.90007766506E+02  0.90000028224E+02 0.  0.
         12    1    1    2    0    0 -0.70987067322E+00 -0.39464352807E+00 -0.85632424502E+00  0.11802334937E+01  0.00000000000E+00 0. -1.
         11    1    3    3    0    0 -0.11374908468E+02 -0.11999428968E+01 -0.21534894272E+01  0.11638982885E+02  0.51100000000E-03 0. -1.
        -11    1    3    3    0    0  0.20143588120E+02  0.36925936336E+02  0.10154023122E+01  0.42075170335E+02  0.51100000000E-03 0.  1.
         12    1    3    3    0    0 -0.80588089784E+01 -0.35331349911E+02  0.19944113600E+01  0.36293613286E+02  0.00000000000E+00 0. -1.
</event>
<event>
 7    1  0.2090370E-015  0.9000763E+02  0.7816164E-02  0.1186339E+00
        -11   -1    0    0    0    0  0.00000000000E+00  0.00000000000E+00  0.45593999997E+02  0.45594000000E+02  0.51100000000E-03 0. -1.
         11   -1    0    0    0    0 -0.00000000000E+00 -0.00000000000E+00 -0.45593999997E+02  0.45594000000E+02  0.51100000000E-03 0.  1.
    9900012    2    1    2    0    0 -0.28513596010E+00  0.47975015142E-01 -0.11444036064E+01  0.90007634069E+02  0.89999894038E+02 0.  0.
         12    1    1    2    0    0  0.28513596010E+00 -0.47975015142E-01  0.11444036064E+01  0.11803659314E+01  0.00000000000E+00 0. -1.
         11    1    3    3    0    0  0.30976450643E+02 -0.13319827683E+02  0.82220759029E+01  0.34706783722E+02  0.51100000000E-03 0. -1.
        -11    1    3    3    0    0  0.92357665880E+01 -0.14019824170E+01  0.40108581331E+01  0.10166214752E+02  0.51100000000E-03 0.  1.
        -12    1    3    3    0    0 -0.40497353191E+02  0.14769785115E+02 -0.13377337642E+02  0.45134635594E+02  0.00000000000E+00 0.  1.
</event>
<event>
 7    1  0.2090370E-015  0.9000776E+02  0.7816164E-02  0.1186339E+00
        -11   -1    0    0    0    0  0.00000000000E+00  0.00000000000E+00  0.45593999997E+02  0.45594000000E+02  0.51100000000E-03 0.  1.
         11   -1    0    0    0    0 -0.00000000000E+00 -0.00000000000E+00 -0.45593999997E+02  0.45594000000E+02  0.51100000000E-03 0. -1.
    9900012    2    1    2    0    0 -0.86339418078E+00  0.38504128516E+00  0.70658398135E+00  0.90007759675E+02  0.90000021302E+02 0.  0.
         12    1    1    2    0    0  0.86339418078E+00 -0.38504128516E+00 -0.70658398135E+00  0.11802403253E+01  0.00000000000E+00 0. -1.
         11    1    3    3    0    0  0.33897112104E+01 -0.41051481114E+00 -0.38453404849E+02  0.38604701905E+02  0.51100000000E-03 0. -1.
        -11    1    3    3    0    0  0.20775333721E+01 -0.11367615063E+02  0.19141511466E+01  0.11713359553E+02  0.51100000000E-03 0.  1.
        -12    1    3    3    0    0 -0.63306387633E+01  0.12163171159E+02  0.37245837683E+02  0.39689698217E+02  0.00000000000E+00 0.  1.
</event>
<event>
 7    1  0.2090370E-015  0.9000776E+02  0.7816164E-02  0.1186339E+00
        -11   -1    0    0    0    0  0.00000000000E+00  0.00000000000E+00  0.45593999997E+02  0.45594000000E+02  0.51100000000E-03 0.  1.
         11   -1    0    0    0    0 -0.00000000000E+00 -0.00000000000E+00 -0.45593999997E+02  0.45594000000E+02  0.51100000000E-03 0. -1.
    9900012    2    1    2    0    0  0.45951209381E+00 -0.48104257387E+00  0.97488674896E+00  0.90007763797E+02  0.90000025479E+02 0.  0.
         12    1    1    2    0    0 -0.45951209381E+00  0.48104257387E+00 -0.97488674896E+00  0.11802362033E+01  0.00000000000E+00 0. -1.
         11    1    3    3    0    0 -0.20769664937E+02 -0.10180437831E+02 -0.13087241805E+02  0.26576233638E+02  0.51100000000E-03 0. -1.
        -11    1    3    3    0    0 -0.13816162616E+02  0.20899823990E+02  0.52022277780E+01  0.25588125495E+02  0.51100000000E-03 0.  1.
         12    1    3    3    0    0  0.35045339647E+02 -0.11200428733E+02  0.88599007759E+01  0.37843404664E+02  0.00000000000E+00 0. -1.
</event>
<event>
 7    1  0.2090370E-015  0.9000774E+02  0.7816164E-02  0.1186339E+00
        -11   -1    0    0    0    0  0.00000000000E+00  0.00000000000E+00  0.45593999997E+02  0.45594000000E+02  0.51100000000E-03 0. -1.
         11   -1    0    0    0    0 -0.00000000000E+00 -0.00000000000E+00 -0.45593999997E+02  0.45594000000E+02  0.51100000000E-03 0.  1.
    9900012    2    1    2    0    0  0.51867649488E+00  0.78003086957E+00 -0.71800321293E+00  0.90007744910E+02  0.90000006343E+02 0.  0.
         12    1    1    2    0    0 -0.51867649488E+00 -0.78003086957E+00  0.71800321293E+00  0.11802550901E+01  0.00000000000E+00 0. -1.
         11    1    3    3    0    0  0.37061606274E+01  0.26503214818E+02  0.27975902254E+02  0.38714430507E+02  0.51100000000E-03 0. -1.
        -11    1    3    3    0    0 -0.23022577696E+01  0.66851940494E+01  0.12266431943E+01  0.71761315556E+01  0.51100000000E-03 0.  1.
        -12    1    3    3    0    0 -0.88522636298E+00 -0.32408377998E+02 -0.29920548662E+02  0.44117182847E+02  0.00000000000E+00 0.  1.
</event>
<event>
 7    1  0.2090370E-015  0.9000779E+02  0.7816164E-02  0.1186339E+00
        -11   -1    0    0    0    0  0.00000000000E+00  0.00000000000E+00  0.45593999997E+02  0.45594000000E+02  0.51100000000E-03 0.  1.
         11   -1    0    0    0    0 -0.00000000000E+00 -0.00000000000E+00 -0.45593999997E+02  0.45594000000E+02  0.51100000000E-03 0. -1.
    9900012    2    1    2    0    0 -0.80800140510E+00 -0.55225291890E+00 -0.65958482173E+00  0.90007787437E+02  0.90000049431E+02 0.  0.
         12    1    1    2    0    0  0.80800140510E+00  0.55225291890E+00  0.65958482173E+00  0.11802125631E+01  0.00000000000E+00 0. -1.
         11    1    3    3    0    0  0.20628597348E+01  0.22189428702E+01  0.88054135330E+01  0.93120569959E+01  0.51100000000E-03 0. -1.
        -11    1    3    3    0    0  0.24943703865E+02  0.20097187754E+02  0.16757449545E+02  0.36151036412E+02  0.51100000000E-03 0.  1.
         12    1    3    3    0    0 -0.27814565005E+02 -0.22868383543E+02 -0.26222447900E+02  0.44544694029E+02  0.00000000000E+00 0. -1.
</event>
<event>
 7    1  0.2090370E-015  0.9000773E+02  0.7816164E-02  0.1186339E+00
        -11   -1    0    0    0    0  0.00000000000E+00  0.00000000000E+00  0.45593999997E+02  0.45594000000E+02  0.51100000000E-03 0. -1.
         11   -1    0    0    0    0 -0.00000000000E+00 -0.00000000000E+00 -0.45593999997E+02  0.45594000000E+02  0.51100000000E-03 0.  1.
    9900012    2    1    2    0    0 -0.87278514044E+00 -0.52501618080E+00  0.59635669153E+00  0.90007730033E+02  0.89999991269E+02 0.  0.
         12    1    1    2    0    0  0.87278514044E+00  0.52501618080E+00 -0.59635669153E+00  0.11802699670E+01  0.00000000000E+00 0. -1.
         11    1    3    3    0    0  0.61492665262E+01 -0.64822527892E+01 -0.30590038770E+01  0.94440767157E+01  0.51100000000E-03 0. -1.
        -11    1    3    3    0    0  0.27981349100E+02 -0.20579820340E+02  0.10087577349E+02  0.36169657446E+02  0.51100000000E-03 0.  1.
         12    1    3    3    0    0 -0.35003400767E+02  0.26537056949E+02 -0.64322167802E+01  0.44393995872E+02  0.00000000000E+00 0. -1.
</event>
<event>
 7    1  0.2090370E-015  0.9000776E+02  0.7816164E-02  0.1186339E+00
        -11   -1    0    0    0    0  0.00000000000E+00  0.00000000000E+00  0.45593999997E+02  0.45594000000E+02  0.51100000000E-03 0.  1.
         11   -1    0    0    0    0 -0.00000000000E+00 -0.00000000000E+00 -0.45593999997E+02  0.45594000000E+02  0.51100000000E-03 0. -1.
    9900012    2    1    2    0    0  0.20856188619E-01 -0.14612332752E+00  0.11709706387E+01  0.90007763056E+02  0.90000024728E+02 0.  0.
         12    1    1    2    0    0 -0.20856188619E-01  0.14612332752E+00 -0.11709706387E+01  0.11802369441E+01  0.00000000000E+00 0. -1.
         11    1    3    3    0    0 -0.18484761952E+02 -0.34156320637E+02 -0.49074494353E+01  0.39146184030E+02  0.51100000000E-03 0. -1.
        -11    1    3    3    0    0  0.54870848918E+01 -0.50424803215E+01 -0.40316232142E+01  0.84728209237E+01  0.51100000000E-03 0.  1.
        -12    1    3    3    0    0  0.13018533249E+02  0.39052677631E+02  0.10110043288E+02  0.42388758102E+02  0.00000000000E+00 0.  1.
</event>
<event>
 7    1  0.2090370E-015  0.9000777E+02  0.7816164E-02  0.1186339E+00
        -11   -1    0    0    0    0  0.00000000000E+00  0.00000000000E+00  0.45593999997E+02  0.45594000000E+02  0.51100000000E-03 0.  1.
         11   -1    0    0    0    0 -0.00000000000E+00 -0.00000000000E+00 -0.45593999997E+02  0.45594000000E+02  0.51100000000E-03 0. -1.
    9900012    2    1    2    0    0 -0.11227343930E+01 -0.28090052563E+00  0.23132920753E+00  0.90007766623E+02  0.90000028342E+02 0.  0.
         12    1    1    2    0    0  0.11227343930E+01  0.28090052563E+00 -0.23132920753E+00  0.11802333773E+01  0.00000000000E+00 0. -1.
         11    1    3    3    0    0  0.87585031137E+01  0.42420574809E+00 -0.98721792041E+00  0.88241672011E+01  0.51100000000E-03 0. -1.
        -11    1    3    3    0    0  0.31730123671E+02 -0.16811675774E+01  0.17752039208E+02  0.36397279691E+02  0.51100000000E-03 0.  1.
         12    1    3    3    0    0 -0.41611361177E+02  0.97606130367E+00 -0.16533492080E+02  0.44786319731E+02  0.00000000000E+00 0. -1.
</event>
<event>
 7    1  0.2090370E-015  0.9000767E+02  0.7816164E-02  0.1186339E+00
        -11   -1    0    0    0    0  0.00000000000E+00  0.00000000000E+00  0.45593999997E+02  0.45594000000E+02  0.51100000000E-03 0. -1.
         11   -1    0    0    0    0 -0.00000000000E+00 -0.00000000000E+00 -0.45593999997E+02  0.45594000000E+02  0.51100000000E-03 0.  1.
    9900012    2    1    2    0    0 -0.10816233423E+01 -0.45805871877E+00  0.11597116506E+00  0.90007671166E+02  0.89999931626E+02 0.  0.
         12    1    1    2    0    0  0.10816233423E+01  0.45805871877E+00 -0.11597116506E+00  0.11803288337E+01  0.00000000000E+00 0. -1.
         11    1    3    3    0    0 -0.24437547872E+02  0.20892983361E+02  0.24387367480E+02  0.40354109985E+02  0.51100000000E-03 0. -1.
        -11    1    3    3    0    0 -0.13222717335E+01  0.42453548348E+01 -0.10715796240E+02  0.11601712353E+02  0.51100000000E-03 0.  1.
        -12    1    3    3    0    0  0.24678196264E+02 -0.25596396915E+02 -0.13555600075E+02  0.38051848828E+02  0.00000000000E+00 0.  1.
</event>
<event>
 7    1  0.2090370E-015  0.9000771E+02  0.7816164E-02  0.1186339E+00
        -11   -1    0    0    0    0  0.00000000000E+00  0.00000000000E+00  0.45593999997E+02  0.45594000000E+02  0.51100000000E-03 0.  1.
         11   -1    0    0    0    0 -0.00000000000E+00 -0.00000000000E+00 -0.45593999997E+02  0.45594000000E+02  0.51100000000E-03 0. -1.
    9900012    2    1    2    0    0  0.23535287237E+00  0.85458706485E+00 -0.77934261177E+00  0.90007709810E+02  0.89999970780E+02 0.  0.
         12    1    1    2    0    0 -0.23535287237E+00 -0.85458706485E+00  0.77934261177E+00  0.11802901899E+01  0.00000000000E+00 0. -1.
         11    1    3    3    0    0 -0.42004596009E+01  0.55469183387E+01  0.49999775951E+01  0.85680768045E+01  0.51100000000E-03 0. -1.
        -11    1    3    3    0    0 -0.29300915626E+02 -0.73819041288E+01  0.22226718055E+02  0.37510840578E+02  0.51100000000E-03 0.  1.
         12    1    3    3    0    0  0.33736728100E+02  0.26895728549E+01 -0.28006038262E+02  0.43928792428E+02  0.00000000000E+00 0. -1.
</event>
<event>
 7    1  0.2090370E-015  0.9000774E+02  0.7816164E-02  0.1186339E+00
        -11   -1    0    0    0    0  0.00000000000E+00  0.00000000000E+00  0.45593999997E+02  0.45594000000E+02  0.51100000000E-03 0. -1.
         11   -1    0    0    0    0 -0.00000000000E+00 -0.00000000000E+00 -0.45593999997E+02  0.45594000000E+02  0.51100000000E-03 0.  1.
    9900012    2    1    2    0    0  0.27227128444E+00  0.18052235651E+00 -0.11341528982E+01  0.90007736144E+02  0.89999997461E+02 0.  0.
         12    1    1    2    0    0 -0.27227128444E+00 -0.18052235651E+00  0.11341528982E+01  0.11802638561E+01  0.00000000000E+00 0. -1.
         11    1    3    3    0    0 -0.34401236981E+02  0.15558904019E+02  0.31305884079E+01  0.37885685742E+02  0.51100000000E-03 0. -1.
        -11    1    3    3    0    0  0.11458164264E+02  0.11634017652E+02 -0.12397584576E+01  0.16376107484E+02  0.51100000000E-03 0.  1.
        -12    1    3    3    0    0  0.23215344001E+02 -0.27012399315E+02 -0.30249828484E+01  0.35745942918E+02  0.00000000000E+00 0.  1.
</event>
<event>
 7    1  0.2090370E-015  0.9000766E+02  0.7816164E-02  0.1186339E+00
        -11   -1    0    0    0    0  0.00000000000E+00  0.00000000000E+00  0.45593999997E+02  0.45594000000E+02  0.51100000000E-03 0.  1.
         11   -1    0    0    0    0 -0.00000000000E+00 -0.00000000000E+00 -0.45593999997E+02  0.45594000000E+02  0.51100000000E-03 0. -1.
    9900012    2    1    2    0    0 -0.31012765698E+00  0.10461042042E+01 -0.45019933282E+00  0.90007664197E+02  0.89999924564E+02 0.  0.
         12    1    1    2    0    0  0.31012765698E+00 -0.10461042042E+01  0.45019933282E+00  0.11803358035E+01  0.00000000000E+00 0. -1.
         11    1    3    3    0    0  0.81059371639E+01  0.28602727911E+01  0.34668266849E+01  0.92685632796E+01  0.51100000000E-03 0. -1.
        -11    1    3    3    0    0 -0.21540572152E+01  0.30023471002E+02  0.23556695218E+02  0.38222593624E+02  0.51100000000E-03 0.  1.
         12    1    3    3    0    0 -0.62620076057E+01 -0.31837639589E+02 -0.27473721236E+02  0.42516507293E+02  0.00000000000E+00 0. -1.
</event>
<event>
 7    1  0.2090370E-015  0.9000780E+02  0.7816164E-02  0.1186339E+00
        -11   -1    0    0    0    0  0.00000000000E+00  0.00000000000E+00  0.45593999997E+02  0.45594000000E+02  0.51100000000E-03 0. -1.
         11   -1    0    0    0    0 -0.00000000000E+00 -0.00000000000E+00 -0.45593999997E+02  0.45594000000E+02  0.51100000000E-03 0.  1.
    9900012    2    1    2    0    0  0.90282506920E-01  0.27557444484E+00 -0.11440148036E+01  0.90007804221E+02  0.90000066437E+02 0.  0.
         12    1    1    2    0    0 -0.90282506920E-01 -0.27557444484E+00  0.11440148036E+01  0.11801957790E+01  0.00000000000E+00 0. -1.
         11    1    3    3    0    0 -0.14406005482E+02 -0.33378086650E+02 -0.93386189014E+01  0.37534510329E+02  0.51100000000E-03 0. -1.
        -11    1    3    3    0    0  0.71707371077E+01 -0.24695310843E+01 -0.90269554070E+01  0.11789994853E+02  0.51100000000E-03 0.  1.
        -12    1    3    3    0    0  0.73255508814E+01  0.36123192179E+02  0.17221559505E+02  0.40683299039E+02  0.00000000000E+00 0.  1.
</event>
<event>
 7    1  0.2090370E-015  0.9000758E+02  0.7816164E-02  0.1186339E+00
        -11   -1    0    0    0    0  0.00000000000E+00  0.00000000000E+00  0.45593999997E+02  0.45594000000E+02  0.51100000000E-03 0.  1.
         11   -1    0    0    0    0 -0.00000000000E+00 -0.00000000000E+00 -0.45593999997E+02  0.45594000000E+02  0.51100000000E-03 0. -1.
    9900012    2    1    2    0    0 -0.93276758077E+00 -0.50493698383E+00 -0.51805432977E+00  0.90007577615E+02  0.89999836840E+02 0.  0.
         12    1    1    2    0    0  0.93276758077E+00  0.50493698383E+00  0.51805432977E+00  0.11804223846E+01  0.00000000000E+00 0. -1.
         11    1    3    3    0    0  0.38400368708E+01  0.46330104187E-01  0.98972550472E+01  0.10616199291E+02  0.51100000000E-03 0. -1.
        -11    1    3    3    0    0 -0.63437571157E+01 -0.47649755238E+01  0.33916466579E+02  0.34832096571E+02  0.51100000000E-03 0.  1.
         12    1    3    3    0    0  0.15709526641E+01  0.42137084358E+01 -0.44331775956E+02  0.44559281754E+02  0.00000000000E+00 0. -1.
</event>
<event>
 7    1  0.2090370E-015  0.9000773E+02  0.7816164E-02  0.1186339E+00
        -11   -1    0    0    0    0  0.00000000000E+00  0.00000000000E+00  0.45593999997E+02  0.45594000000E+02  0.51100000000E-03 0.  1.
         11   -1    0    0    0    0 -0.00000000000E+00 -0.00000000000E+00 -0.45593999997E+02  0.45594000000E+02  0.51100000000E-03 0. -1.
    9900012    2    1    2    0    0  0.15176663717E+00  0.11680701431E+01  0.74877412582E-01  0.90007734098E+02  0.89999995389E+02 0.  0.
         12    1    1    2    0    0 -0.15176663717E+00 -0.11680701431E+01 -0.74877412582E-01  0.11802659015E+01  0.00000000000E+00 0. -1.
         11    1    3    3    0    0 -0.59575618278E+01 -0.19972586805E+01  0.21777548175E+01  0.66501279293E+01  0.51100000000E-03 0. -1.
        -11    1    3    3    0    0 -0.89638485607E+01 -0.21814425255E+02  0.31181803619E+02  0.39096350309E+02  0.51100000000E-03 0.  1.
         12    1    3    3    0    0  0.15073177026E+02  0.24979754079E+02 -0.33284681024E+02  0.44261255861E+02  0.00000000000E+00 0. -1.
</event>
<event>
 7    1  0.2090370E-015  0.9000779E+02  0.7816164E-02  0.1186339E+00
        -11   -1    0    0    0    0  0.00000000000E+00  0.00000000000E+00  0.45593999997E+02  0.45594000000E+02  0.51100000000E-03 0.  1.
         11   -1    0    0    0    0 -0.00000000000E+00 -0.00000000000E+00 -0.45593999997E+02  0.45594000000E+02  0.51100000000E-03 0. -1.
    9900012    2    1    2    0    0 -0.11451542102E+01 -0.25531450639E+00 -0.12775597563E+00  0.90007794403E+02  0.90000056489E+02 0.  0.
         12    1    1    2    0    0  0.11451542102E+01  0.25531450639E+00  0.12775597563E+00  0.11802055972E+01  0.00000000000E+00 0. -1.
         11    1    3    3    0    0 -0.40261500327E+01  0.56161124495E+01 -0.66969939187E+01  0.96229065743E+01  0.51100000000E-03 0. -1.
        -11    1    3    3    0    0  0.49547517680E+01  0.24952911533E+02 -0.25384552250E+02  0.35938459236E+02  0.51100000000E-03 0.  1.
         12    1    3    3    0    0 -0.20737559456E+01 -0.30824338489E+02  0.31953790193E+02  0.44446428593E+02  0.00000000000E+00 0. -1.
</event>
<event>
 7    1  0.2090370E-015  0.9000670E+02  0.7816164E-02  0.1186341E+00
        -11   -1    0    0    0    0  0.00000000000E+00  0.00000000000E+00  0.45593999997E+02  0.45594000000E+02  0.51100000000E-03 0. -1.
         11   -1    0    0    0    0 -0.00000000000E+00 -0.00000000000E+00 -0.45593999997E+02  0.45594000000E+02  0.51100000000E-03 0.  1.
    9900012    2    1    2    0    0 -0.59849734224E+00 -0.63344655812E+00 -0.79750113570E+00  0.90006703394E+02  0.89998951072E+02 0.  0.
         12    1    1    2    0    0  0.59849734224E+00  0.63344655812E+00  0.79750113570E+00  0.11812966063E+01  0.00000000000E+00 0. -1.
         11    1    3    3    0    0 -0.78616799035E+01 -0.50390951395E+01  0.10256468965E+01  0.93941706684E+01  0.51100000000E-03 0. -1.
        -11    1    3    3    0    0 -0.58660593497E+01 -0.36721811817E+02 -0.38934185438E+01  0.37390651554E+02  0.51100000000E-03 0.  1.
         12    1    3    3    0    0  0.13129241911E+02  0.41127460398E+02  0.20702705115E+01  0.43221881171E+02  0.00000000000E+00 0. -1.
</event>
<event>
 7    1  0.2090370E-015  0.9000775E+02  0.7816164E-02  0.1186339E+00
        -11   -1    0    0    0    0  0.00000000000E+00  0.00000000000E+00  0.45593999997E+02  0.45594000000E+02  0.51100000000E-03 0.  1.
         11   -1    0    0    0    0 -0.00000000000E+00 -0.00000000000E+00 -0.45593999997E+02  0.45594000000E+02  0.51100000000E-03 0. -1.
    9900012    2    1    2    0    0  0.29490327287E+00 -0.69993027800E+00  0.90338824030E+00  0.90007753989E+02  0.90000015541E+02 0.  0.
         12    1    1    2    0    0 -0.29490327287E+00  0.69993027800E+00 -0.90338824030E+00  0.11802460113E+01  0.00000000000E+00 0. -1.
         11    1    3    3    0    0 -0.64065879390E+01  0.74279692369E+01 -0.55443106227E+01  0.11267585214E+02  0.51100000000E-03 0. -1.
        -11    1    3    3    0    0 -0.20484398288E+02  0.23817869814E+02  0.16671488617E+02  0.35564589533E+02  0.51100000000E-03 0.  1.
         12    1    3    3    0    0  0.27185889500E+02 -0.31945769329E+02 -0.10223789754E+02  0.43175579242E+02  0.00000000000E+00 0. -1.
</event>
<event>
 7    1  0.2090370E-015  0.9000772E+02  0.7816164E-02  0.1186339E+00
        -11   -1    0    0    0    0  0.00000000000E+00  0.00000000000E+00  0.45593999997E+02  0.45594000000E+02  0.51100000000E-03 0. -1.
         11   -1    0    0    0    0 -0.00000000000E+00 -0.00000000000E+00 -0.45593999997E+02  0.45594000000E+02  0.51100000000E-03 0.  1.
    9900012    2    1    2    0    0  0.69759003698E-01 -0.11311734919E+01  0.32959428813E+00  0.90007723684E+02  0.89999984837E+02 0.  0.
         12    1    1    2    0    0 -0.69759003698E-01  0.11311734919E+01 -0.32959428813E+00  0.11802763161E+01  0.00000000000E+00 0. -1.
         11    1    3    3    0    0  0.21020341546E+02 -0.12715852007E+02  0.28835935488E+02  0.37882170301E+02  0.51100000000E-03 0. -1.
        -11    1    3    3    0    0 -0.39270081001E+01  0.45183581757E+00  0.87928863893E+01  0.96405601259E+01  0.51100000000E-03 0.  1.
        -12    1    3    3    0    0 -0.17023574442E+02  0.11132842698E+02 -0.37299227589E+02  0.42484993257E+02  0.00000000000E+00 0.  1.
</event>
<event>
 7    1  0.2090370E-015  0.9000782E+02  0.7816164E-02  0.1186339E+00
        -11   -1    0    0    0    0  0.00000000000E+00  0.00000000000E+00  0.45593999997E+02  0.45594000000E+02  0.51100000000E-03 0. -1.
         11   -1    0    0    0    0 -0.00000000000E+00 -0.00000000000E+00 -0.45593999997E+02  0.45594000000E+02  0.51100000000E-03 0.  1.
    9900012    2    1    2    0    0  0.38305067694E-01 -0.11511797993E+01 -0.25717516832E+00  0.90007821507E+02  0.90000083951E+02 0.  0.
         12    1    1    2    0    0 -0.38305067694E-01  0.11511797993E+01  0.25717516832E+00  0.11801784932E+01  0.00000000000E+00 0. -1.
         11    1    3    3    0    0 -0.37131212895E+02 -0.38273739218E+01  0.15222288922E+02  0.40312452697E+02  0.51100000000E-03 0. -1.
        -11    1    3    3    0    0  0.28519336849E+01  0.51275596122E+01  0.65875821897E+01  0.88216570262E+01  0.51100000000E-03 0.  1.
        -12    1    3    3    0    0  0.34317584278E+02 -0.24513654897E+01 -0.22067046280E+02  0.40873711783E+02  0.00000000000E+00 0.  1.
</event>
<event>
 7    1  0.2090370E-015  0.9000774E+02  0.7816164E-02  0.1186339E+00
        -11   -1    0    0    0    0  0.00000000000E+00  0.00000000000E+00  0.45593999997E+02  0.45594000000E+02  0.51100000000E-03 0. -1.
         11   -1    0    0    0    0 -0.00000000000E+00 -0.00000000000E+00 -0.45593999997E+02  0.45594000000E+02  0.51100000000E-03 0.  1.
    9900012    2    1    2    0    0 -0.11683740549E+01  0.13933457429E+00 -0.92233214357E-01  0.90007737732E+02  0.89999999070E+02 0.  0.
         12    1    1    2    0    0  0.11683740549E+01 -0.13933457429E+00  0.92233214357E-01  0.11802622681E+01  0.00000000000E+00 0. -1.
         11    1    3    3    0    0  0.22791493022E+01  0.16307927023E+00 -0.11156970292E+02  0.11388551389E+02  0.51100000000E-03 0. -1.
        -11    1    3    3    0    0 -0.33513978121E+02 -0.12884325071E+02  0.24284584062E+02  0.43346667523E+02  0.51100000000E-03 0.  1.
         12    1    3    3    0    0  0.30066454763E+02  0.12860580375E+02 -0.13219846984E+02  0.35272518820E+02  0.00000000000E+00 0. -1.
</event>
<event>
 7    1  0.2090370E-015  0.9000778E+02  0.7816164E-02  0.1186339E+00
        -11   -1    0    0    0    0  0.00000000000E+00  0.00000000000E+00  0.45593999997E+02  0.45594000000E+02  0.51100000000E-03 0.  1.
         11   -1    0    0    0    0 -0.00000000000E+00 -0.00000000000E+00 -0.45593999997E+02  0.45594000000E+02  0.51100000000E-03 0. -1.
    9900012    2    1    2    0    0  0.66659314247E-01  0.11091789995E+01 -0.39773659992E+00  0.90007781410E+02  0.90000043325E+02 0.  0.
         12    1    1    2    0    0 -0.66659314247E-01 -0.11091789995E+01  0.39773659992E+00  0.11802185900E+01  0.00000000000E+00 0. -1.
         11    1    3    3    0    0 -0.55294141350E+01 -0.31521961204E+02 -0.22537037536E+02  0.39142387766E+02  0.51100000000E-03 0. -1.
        -11    1    3    3    0    0 -0.73586971071E+01  0.88873953963E+01 -0.49764204115E+01  0.12565865685E+02  0.51100000000E-03 0.  1.
        -12    1    3    3    0    0  0.12954770556E+02  0.23743744808E+02  0.27115721348E+02  0.38299527959E+02  0.00000000000E+00 0.  1.
</event>
<event>
 7    1  0.2090370E-015  0.9000780E+02  0.7816164E-02  0.1186339E+00
        -11   -1    0    0    0    0  0.00000000000E+00  0.00000000000E+00  0.45593999997E+02  0.45594000000E+02  0.51100000000E-03 0.  1.
         11   -1    0    0    0    0 -0.00000000000E+00 -0.00000000000E+00 -0.45593999997E+02  0.45594000000E+02  0.51100000000E-03 0. -1.
    9900012    2    1    2    0    0  0.69651103988E+00 -0.91633668461E+00 -0.26089335760E+00  0.90007802605E+02  0.90000064799E+02 0.  0.
         12    1    1    2    0    0 -0.69651103988E+00  0.91633668461E+00  0.26089335760E+00  0.11801973955E+01  0.00000000000E+00 0. -1.
         11    1    3    3    0    0  0.53518676175E+01  0.15428960229E+01  0.82486838221E+01  0.99530799349E+01  0.51100000000E-03 0. -1.
        -11    1    3    3    0    0 -0.18142905715E+02 -0.77727653507E+01  0.31682778614E+02  0.37327997133E+02  0.51100000000E-03 0.  1.
         12    1    3    3    0    0  0.13487549137E+02  0.53135326432E+01 -0.40192355794E+02  0.42726725537E+02  0.00000000000E+00 0. -1.
</event>
<event>
 7    1  0.2090370E-015  0.9000764E+02  0.7816164E-02  0.1186339E+00
        -11   -1    0    0    0    0  0.00000000000E+00  0.00000000000E+00  0.45593999997E+02  0.45594000000E+02  0.51100000000E-03 0.  1.
         11   -1    0    0    0    0 -0.00000000000E+00 -0.00000000000E+00 -0.45593999997E+02  0.45594000000E+02  0.51100000000E-03 0. -1.
    9900012    2    1    2    0    0 -0.80306540762E+00  0.41033653208E+00  0.76155368298E+00  0.90007638136E+02  0.89999898159E+02 0.  0.
         12    1    1    2    0    0  0.80306540762E+00 -0.41033653208E+00 -0.76155368298E+00  0.11803618642E+01  0.00000000000E+00 0. -1.
         11    1    3    3    0    0  0.30333624333E+02  0.13915097774E+02 -0.94005078635E+01  0.34671721325E+02  0.51100000000E-03 0. -1.
        -11    1    3    3    0    0  0.58567849129E+01 -0.53842610773E+01 -0.97196707655E+01  0.12560421845E+02  0.51100000000E-03 0.  1.
        -12    1    3    3    0    0 -0.36993474654E+02 -0.81205001650E+01  0.19881732312E+02  0.42775494966E+02  0.00000000000E+00 0.  1.
</event>
<event>
 7    1  0.2090370E-015  0.9000778E+02  0.7816164E-02  0.1186339E+00
        -11   -1    0    0    0    0  0.00000000000E+00  0.00000000000E+00  0.45593999997E+02  0.45594000000E+02  0.51100000000E-03 0.  1.
         11   -1    0    0    0    0 -0.00000000000E+00 -0.00000000000E+00 -0.45593999997E+02  0.45594000000E+02  0.51100000000E-03 0. -1.
    9900012    2    1    2    0    0  0.57120559836E+00  0.78808280677E+00  0.66751173557E+00  0.90007778723E+02  0.90000040602E+02 0.  0.
         12    1    1    2    0    0 -0.57120559836E+00 -0.78808280677E+00 -0.66751173557E+00  0.11802212771E+01  0.00000000000E+00 0. -1.
         11    1    3    3    0    0  0.20304019513E+02 -0.18743277619E+02  0.32698073836E+02  0.42810369037E+02  0.51100000000E-03 0. -1.
        -11    1    3    3    0    0 -0.93051324319E+01  0.25329199080E+01 -0.21198652178E+00  0.96460412285E+01  0.51100000000E-03 0.  1.
        -12    1    3    3    0    0 -0.10427681482E+02  0.16998440517E+02 -0.31818575579E+02  0.37551368457E+02  0.00000000000E+00 0.  1.
</event>
<event>
 7    1  0.2090370E-015  0.9000754E+02  0.7816164E-02  0.1186339E+00
        -11   -1    0    0    0    0  0.00000000000E+00  0.00000000000E+00  0.45593999997E+02  0.45594000000E+02  0.51100000000E-03 0. -1.
         11   -1    0    0    0    0 -0.00000000000E+00 -0.00000000000E+00 -0.45593999997E+02  0.45594000000E+02  0.51100000000E-03 0.  1.
    9900012    2    1    2    0    0  0.10046325351E+00 -0.11355440504E+01 -0.30648851582E+00  0.90007538918E+02  0.89999797632E+02 0.  0.
         12    1    1    2    0    0 -0.10046325351E+00  0.11355440504E+01  0.30648851582E+00  0.11804610819E+01  0.00000000000E+00 0. -1.
         11    1    3    3    0    0 -0.29850270104E+01  0.90015656093E+01 -0.39323479244E+01  0.10266544216E+02  0.51100000000E-03 0. -1.
        -11    1    3    3    0    0  0.14568538237E+02 -0.25830724836E+02 -0.29180098983E+02  0.41604649125E+02  0.51100000000E-03 0.  1.
         12    1    3    3    0    0 -0.11483047973E+02  0.15693615176E+02  0.32805958391E+02  0.38136345578E+02  0.00000000000E+00 0. -1.
</event>
<event>
 7    1  0.2090370E-015  0.9000772E+02  0.7816164E-02  0.1186339E+00
        -11   -1    0    0    0    0  0.00000000000E+00  0.00000000000E+00  0.45593999997E+02  0.45594000000E+02  0.51100000000E-03 0. -1.
         11   -1    0    0    0    0 -0.00000000000E+00 -0.00000000000E+00 -0.45593999997E+02  0.45594000000E+02  0.51100000000E-03 0.  1.
    9900012    2    1    2    0    0 -0.10571152797E+01  0.20409560626E+00  0.48365516352E+00  0.90007716115E+02  0.89999977168E+02 0.  0.
         12    1    1    2    0    0  0.10571152797E+01 -0.20409560626E+00 -0.48365516352E+00  0.11802838847E+01  0.00000000000E+00 0. -1.
         11    1    3    3    0    0 -0.31257878403E+01 -0.60085366605E+01 -0.62698218269E+01  0.92295031516E+01  0.51100000000E-03 0. -1.
        -11    1    3    3    0    0  0.35238261765E+02  0.68798628302E+01 -0.17246592027E+02  0.39831049968E+02  0.51100000000E-03 0.  1.
         12    1    3    3    0    0 -0.33169589204E+02 -0.66723056342E+00  0.24000069017E+02  0.40947162996E+02  0.00000000000E+00 0. -1.
</event>
<event>
 7    1  0.2090370E-015  0.9000763E+02  0.7816164E-02  0.1186339E+00
        -11   -1    0    0    0    0  0.00000000000E+00  0.00000000000E+00  0.45593999997E+02  0.45594000000E+02  0.51100000000E-03 0.  1.
         11   -1    0    0    0    0 -0.00000000000E+00 -0.00000000000E+00 -0.45593999997E+02  0.45594000000E+02  0.51100000000E-03 0. -1.
    9900012    2    1    2    0    0 -0.86117301103E+00 -0.26051454035E+00  0.76406654673E+00  0.90007625285E+02  0.89999885138E+02 0.  0.
         12    1    1    2    0    0  0.86117301103E+00  0.26051454035E+00 -0.76406654673E+00  0.11803747153E+01  0.00000000000E+00 0. -1.
         11    1    3    3    0    0 -0.20366415528E+02 -0.19471031948E+02 -0.23664445691E+02  0.36795624152E+02  0.51100000000E-03 0. -1.
        -11    1    3    3    0    0  0.18893722978E+01 -0.11499876323E+02  0.39132702994E+01  0.12293517309E+02  0.51100000000E-03 0.  1.
        -12    1    3    3    0    0  0.17615870219E+02  0.30710393731E+02  0.20515241938E+02  0.40918483824E+02  0.00000000000E+00 0.  1.
</event>
<event>
 7    1  0.2090370E-015  0.9000772E+02  0.7816164E-02  0.1186339E+00
        -11   -1    0    0    0    0  0.00000000000E+00  0.00000000000E+00  0.45593999997E+02  0.45594000000E+02  0.51100000000E-03 0.  1.
         11   -1    0    0    0    0 -0.00000000000E+00 -0.00000000000E+00 -0.45593999997E+02  0.45594000000E+02  0.51100000000E-03 0. -1.
    9900012    2    1    2    0    0  0.37104617718E+00  0.90541646917E+00  0.65999765599E+00  0.90007724119E+02  0.89999985278E+02 0.  0.
         12    1    1    2    0    0 -0.37104617718E+00 -0.90541646917E+00 -0.65999765599E+00  0.11802758805E+01  0.00000000000E+00 0. -1.
         11    1    3    3    0    0  0.17228656862E+01  0.86364364205E+01  0.28324761724E+01  0.92509038340E+01  0.51100000000E-03 0. -1.
        -11    1    3    3    0    0 -0.99667175243E+01  0.26960665943E+02  0.23186317050E+02  0.36929910166E+02  0.51100000000E-03 0.  1.
         12    1    3    3    0    0  0.86148980154E+01 -0.34691685894E+02 -0.25358795566E+02  0.43826910119E+02  0.00000000000E+00 0. -1.
</event>
<event>
 7    1  0.2090370E-015  0.9000768E+02  0.7816164E-02  0.1186339E+00
        -11   -1    0    0    0    0  0.00000000000E+00  0.00000000000E+00  0.45593999997E+02  0.45594000000E+02  0.51100000000E-03 0.  1.
         11   -1    0    0    0    0 -0.00000000000E+00 -0.00000000000E+00 -0.45593999997E+02  0.45594000000E+02  0.51100000000E-03 0. -1.
    9900012    2    1    2    0    0  0.98999094907E+00 -0.60779343210E+00  0.20896875379E+00  0.90007676792E+02  0.89999937326E+02 0.  0.
         12    1    1    2    0    0 -0.98999094907E+00  0.60779343210E+00 -0.20896875379E+00  0.11803232080E+01  0.00000000000E+00 0. -1.
         11    1    3    3    0    0  0.19953366796E+02 -0.20137270558E+02 -0.16887875854E+02  0.32997679663E+02  0.51100000000E-03 0. -1.
        -11    1    3    3    0    0  0.11713275226E+02 -0.71328239496E+01  0.51101475479E+01  0.14635286203E+02  0.51100000000E-03 0.  1.
        -12    1    3    3    0    0 -0.30676651073E+02  0.26662301075E+02  0.11986697060E+02  0.42374710926E+02  0.00000000000E+00 0.  1.
</event>
<event>
 7    1  0.2090370E-015  0.9000775E+02  0.7816164E-02  0.1186339E+00
        -11   -1    0    0    0    0  0.00000000000E+00  0.00000000000E+00  0.45593999997E+02  0.45594000000E+02  0.51100000000E-03 0. -1.
         11   -1    0    0    0    0 -0.00000000000E+00 -0.00000000000E+00 -0.45593999997E+02  0.45594000000E+02  0.51100000000E-03 0.  1.
    9900012    2    1    2    0    0  0.76893757133E+00 -0.86162156248E+00  0.24360499894E+00  0.90007745747E+02  0.90000007191E+02 0.  0.
         12    1    1    2    0    0 -0.76893757133E+00  0.86162156248E+00 -0.24360499894E+00  0.11802542527E+01  0.00000000000E+00 0. -1.
         11    1    3    3    0    0  0.18126619737E+02 -0.38535074547E+02 -0.51921331388E+01  0.42900868992E+02  0.51100000000E-03 0. -1.
        -11    1    3    3    0    0 -0.75398331406E+01  0.17034110889E+01  0.60500130386E+01  0.98159742845E+01  0.51100000000E-03 0.  1.
        -12    1    3    3    0    0 -0.98178490252E+01  0.35970041896E+02 -0.61427490088E+00  0.37290902471E+02  0.00000000000E+00 0.  1.
</event>
<event>
 7    1  0.2090370E-015  0.9000761E+02  0.7816164E-02  0.1186339E+00
        -11   -1    0    0    0    0  0.00000000000E+00  0.00000000000E+00  0.45593999997E+02  0.45594000000E+02  0.51100000000E-03 0.  1.
         11   -1    0    0    0    0 -0.00000000000E+00 -0.00000000000E+00 -0.45593999997E+02  0.45594000000E+02  0.51100000000E-03 0. -1.
    9900012    2    1    2    0    0  0.97855060555E+00 -0.42879670409E+00  0.50189688082E+00  0.90007606684E+02  0.89999866292E+02 0.  0.
         12    1    1    2    0    0 -0.97855060555E+00  0.42879670409E+00 -0.50189688082E+00  0.11803933158E+01  0.00000000000E+00 0. -1.
         11    1    3    3    0    0 -0.20874669314E+02 -0.40867112353E+01 -0.30260167119E+02  0.36988251405E+02  0.51100000000E-03 0. -1.
        -11    1    3    3    0    0  0.27381087669E+01 -0.82973630585E+01 -0.54966508531E+01  0.10322627776E+02  0.51100000000E-03 0.  1.
        -12    1    3    3    0    0  0.19115111152E+02  0.11955277590E+02  0.36258714853E+02  0.42696727503E+02  0.00000000000E+00 0.  1.
</event>
<event>
 7    1  0.2090370E-015  0.9000775E+02  0.7816164E-02  0.1186339E+00
        -11   -1    0    0    0    0  0.00000000000E+00  0.00000000000E+00  0.45593999997E+02  0.45594000000E+02  0.51100000000E-03 0. -1.
         11   -1    0    0    0    0 -0.00000000000E+00 -0.00000000000E+00 -0.45593999997E+02  0.45594000000E+02  0.51100000000E-03 0.  1.
    9900012    2    1    2    0    0 -0.10261934006E+01  0.34648890005E+00 -0.46890737626E+00  0.90007745120E+02  0.90000006556E+02 0.  0.
         12    1    1    2    0    0  0.10261934006E+01 -0.34648890005E+00  0.46890737626E+00  0.11802548796E+01  0.00000000000E+00 0. -1.
         11    1    3    3    0    0  0.15204080803E+02  0.71834736951E+01  0.24067705978E+02  0.29360191394E+02  0.51100000000E-03 0. -1.
        -11    1    3    3    0    0  0.74371874850E+01  0.25356352809E+01  0.13061341195E+02  0.15242697860E+02  0.51100000000E-03 0.  1.
        -12    1    3    3    0    0 -0.23667461689E+02 -0.93726200759E+01 -0.37597954550E+02  0.45404855866E+02  0.00000000000E+00 0.  1.
</event>
<event>
 7    1  0.2090370E-015  0.9000783E+02  0.7816164E-02  0.1186339E+00
        -11   -1    0    0    0    0  0.00000000000E+00  0.00000000000E+00  0.45593999997E+02  0.45594000000E+02  0.51100000000E-03 0. -1.
         11   -1    0    0    0    0 -0.00000000000E+00 -0.00000000000E+00 -0.45593999997E+02  0.45594000000E+02  0.51100000000E-03 0.  1.
    9900012    2    1    2    0    0  0.73707391038E+00 -0.64205907732E+00 -0.66127040093E+00  0.90007832066E+02  0.90000094650E+02 0.  0.
         12    1    1    2    0    0 -0.73707391038E+00  0.64205907732E+00  0.66127040093E+00  0.11801679335E+01  0.00000000000E+00 0. -1.
         11    1    3    3    0    0 -0.26985280423E+02  0.13205941863E+02 -0.19749517574E+01  0.30108183185E+02  0.51100000000E-03 0. -1.
        -11    1    3    3    0    0 -0.27781513513E+01  0.10717976778E+02 -0.13999639362E+02  0.17848895026E+02  0.51100000000E-03 0.  1.
        -12    1    3    3    0    0  0.30500505685E+02 -0.24565977719E+02  0.15313320718E+02  0.42050753855E+02  0.00000000000E+00 0.  1.
</event>
<event>
 7    1  0.2090370E-015  0.9000749E+02  0.7816164E-02  0.1186340E+00
        -11   -1    0    0    0    0  0.00000000000E+00  0.00000000000E+00  0.45593999997E+02  0.45594000000E+02  0.51100000000E-03 0.  1.
         11   -1    0    0    0    0 -0.00000000000E+00 -0.00000000000E+00 -0.45593999997E+02  0.45594000000E+02  0.51100000000E-03 0. -1.
    9900012    2    1    2    0    0 -0.10632065405E+01  0.34893816099E+00  0.37607755092E+00  0.90007491503E+02  0.89999749590E+02 0.  0.
         12    1    1    2    0    0  0.10632065405E+01 -0.34893816099E+00 -0.37607755092E+00  0.11805084973E+01  0.00000000000E+00 0. -1.
         11    1    3    3    0    0 -0.15890304872E+02 -0.19218517332E+02 -0.34288045926E+02  0.42397208529E+02  0.51100000000E-03 0. -1.
        -11    1    3    3    0    0  0.79312505623E+01 -0.61084046296E+00  0.13686331332E+01  0.80716180824E+01  0.51100000000E-03 0.  1.
        -12    1    3    3    0    0  0.68958477687E+01  0.20178295956E+02  0.33295490344E+02  0.39538664891E+02  0.00000000000E+00 0.  1.
</event>
<event>
 7    1  0.2090370E-015  0.9000768E+02  0.7816164E-02  0.1186339E+00
        -11   -1    0    0    0    0  0.00000000000E+00  0.00000000000E+00  0.45593999997E+02  0.45594000000E+02  0.51100000000E-03 0. -1.
         11   -1    0    0    0    0 -0.00000000000E+00 -0.00000000000E+00 -0.45593999997E+02  0.45594000000E+02  0.51100000000E-03 0.  1.
    9900012    2    1    2    0    0  0.10508063805E+01 -0.52878468184E+00 -0.96678955641E-01  0.90007680505E+02  0.89999941088E+02 0.  0.
         12    1    1    2    0    0 -0.10508063805E+01  0.52878468184E+00  0.96678955641E-01  0.11803194947E+01  0.00000000000E+00 0. -1.
         11    1    3    3    0    0  0.32465672167E+01  0.22868655187E+01  0.42158949358E+02  0.42345566047E+02  0.51100000000E-03 0. -1.
        -11    1    3    3    0    0  0.18779248135E+01  0.80294420632E+01 -0.79544390505E+01  0.11457383747E+02  0.51100000000E-03 0.  1.
        -12    1    3    3    0    0 -0.40736856497E+01 -0.10845092264E+02 -0.34301189264E+02  0.36204730711E+02  0.00000000000E+00 0.  1.
</event>
<event>
 7    1  0.2090370E-015  0.9000779E+02  0.7816164E-02  0.1186339E+00
        -11   -1    0    0    0    0  0.00000000000E+00  0.00000000000E+00  0.45593999997E+02  0.45594000000E+02  0.51100000000E-03 0.  1.
         11   -1    0    0    0    0 -0.00000000000E+00 -0.00000000000E+00 -0.45593999997E+02  0.45594000000E+02  0.51100000000E-03 0. -1.
    9900012    2    1    2    0    0  0.88864261334E+00  0.40922589190E+00  0.66010743159E+00  0.90007790974E+02  0.90000053014E+02 0.  0.
         12    1    1    2    0    0 -0.88864261334E+00 -0.40922589190E+00 -0.66010743159E+00  0.11802090264E+01  0.00000000000E+00 0. -1.
         11    1    3    3    0    0 -0.18335451474E+02  0.11271282177E+02  0.34283892133E+02  0.40479820192E+02  0.51100000000E-03 0. -1.
        -11    1    3    3    0    0  0.41714763637E+01  0.87004459375E+01 -0.28156363780E+01  0.10051208039E+02  0.51100000000E-03 0.  1.
        -12    1    3    3    0    0  0.15052617724E+02 -0.19562502223E+02 -0.30808148324E+02  0.39476762743E+02  0.00000000000E+00 0.  1.
</event>
<event>
 7    1  0.2090370E-015  0.9000779E+02  0.7816164E-02  0.1186339E+00
        -11   -1    0    0    0    0  0.00000000000E+00  0.00000000000E+00  0.45593999997E+02  0.45594000000E+02  0.51100000000E-03 0.  1.
         11   -1    0    0    0    0 -0.00000000000E+00 -0.00000000000E+00 -0.45593999997E+02  0.45594000000E+02  0.51100000000E-03 0. -1.
    9900012    2    1    2    0    0  0.26899466047E+00 -0.11043981629E+01  0.31757434783E+00  0.90007785233E+02  0.90000047198E+02 0.  0.
         12    1    1    2    0    0 -0.26899466047E+00  0.11043981629E+01 -0.31757434783E+00  0.11802147669E+01  0.00000000000E+00 0. -1.
         11    1    3    3    0    0 -0.35318393348E+02  0.13220063923E+02  0.41972295295E+01  0.37944376853E+02  0.51100000000E-03 0. -1.
        -11    1    3    3    0    0 -0.28524697474E+01 -0.35505712569E+01  0.90243551322E+01  0.10108517484E+02  0.51100000000E-03 0.  1.
        -12    1    3    3    0    0  0.38439857756E+02 -0.10773890829E+02 -0.12904010314E+02  0.41954890896E+02  0.00000000000E+00 0.  1.
</event>
<event>
 7    1  0.2090370E-015  0.9000772E+02  0.7816164E-02  0.1186339E+00
        -11   -1    0    0    0    0  0.00000000000E+00  0.00000000000E+00  0.45593999997E+02  0.45594000000E+02  0.51100000000E-03 0.  1.
         11   -1    0    0    0    0 -0.00000000000E+00 -0.00000000000E+00 -0.45593999997E+02  0.45594000000E+02  0.51100000000E-03 0. -1.
    9900012    2    1    2    0    0 -0.87387854665E+00 -0.78959824506E+00 -0.76944487209E-01  0.90007724796E+02  0.89999985963E+02 0.  0.
         12    1    1    2    0    0  0.87387854665E+00  0.78959824506E+00  0.76944487209E-01  0.11802752039E+01  0.00000000000E+00 0. -1.
         11    1    3    3    0    0  0.42384803889E+01 -0.79512872213E+01  0.99647150258E+00  0.90653538375E+01  0.51100000000E-03 0. -1.
        -11    1    3    3    0    0  0.35332337320E+02  0.13197425333E+02  0.91091843410E+01  0.38801073897E+02  0.51100000000E-03 0.  1.
         12    1    3    3    0    0 -0.40444696256E+02 -0.60357363563E+01 -0.10182600331E+02  0.42141297062E+02  0.00000000000E+00 0. -1.
</event>
<event>
 7    1  0.2090370E-015  0.9000768E+02  0.7816164E-02  0.1186339E+00
        -11   -1    0    0    0    0  0.00000000000E+00  0.00000000000E+00  0.45593999997E+02  0.45594000000E+02  0.51100000000E-03 0.  1.
         11   -1    0    0    0    0 -0.00000000000E+00 -0.00000000000E+00 -0.45593999997E+02  0.45594000000E+02  0.51100000000E-03 0. -1.
    9900012    2    1    2    0    0 -0.67986731782E+00 -0.80517807403E+00  0.53163279767E+00  0.90007676005E+02  0.89999936529E+02 0.  0.
         12    1    1    2    0    0  0.67986731782E+00  0.80517807403E+00 -0.53163279767E+00  0.11803239946E+01  0.00000000000E+00 0. -1.
         11    1    3    3    0    0 -0.37194145362E+01 -0.83960588374E+01 -0.21891294267E+01  0.94403462013E+01  0.51100000000E-03 0. -1.
        -11    1    3    3    0    0 -0.15358328685E+02 -0.31062995198E+02  0.12171114595E+02  0.36727700192E+02  0.51100000000E-03 0.  1.
         12    1    3    3    0    0  0.18397875903E+02  0.38653875961E+02 -0.94503523705E+01  0.43839629612E+02  0.00000000000E+00 0. -1.
</event>
<event>
 7    1  0.2090370E-015  0.9000760E+02  0.7816164E-02  0.1186339E+00
        -11   -1    0    0    0    0  0.00000000000E+00  0.00000000000E+00  0.45593999997E+02  0.45594000000E+02  0.51100000000E-03 0. -1.
         11   -1    0    0    0    0 -0.00000000000E+00 -0.00000000000E+00 -0.45593999997E+02  0.45594000000E+02  0.51100000000E-03 0.  1.
    9900012    2    1    2    0    0  0.97687027926E+00  0.38153120100E+00  0.54176505618E+00  0.90007597113E+02  0.89999856595E+02 0.  0.
         12    1    1    2    0    0 -0.97687027926E+00 -0.38153120100E+00 -0.54176505618E+00  0.11804028871E+01  0.00000000000E+00 0. -1.
         11    1    3    3    0    0 -0.61634065151E+01  0.78792674898E+01  0.27111297269E+01  0.10364393890E+02  0.51100000000E-03 0. -1.
        -11    1    3    3    0    0  0.69793848623E+01  0.18493368501E+02 -0.33523269363E+02  0.38916912527E+02  0.51100000000E-03 0.  1.
         12    1    3    3    0    0  0.16089193207E+00 -0.25991104790E+02  0.31353904692E+02  0.40726290696E+02  0.00000000000E+00 0. -1.
</event>
<event>
 7    1  0.2442057E-015  0.9000777E+02  0.7816164E-02  0.1186339E+00
        -11   -1    0    0    0    0  0.00000000000E+00  0.00000000000E+00  0.45593999997E+02  0.45594000000E+02  0.51100000000E-03 0. -1.
         11   -1    0    0    0    0 -0.00000000000E+00 -0.00000000000E+00 -0.45593999997E+02  0.45594000000E+02  0.51100000000E-03 0.  1.
    9900012    2    1    2    0    0  0.97940588722E+00 -0.51963567994E+00 -0.40458914167E+00  0.90007767182E+02  0.90000028909E+02 0.  0.
         12    1    1    2    0    0 -0.97940588722E+00  0.51963567994E+00  0.40458914167E+00  0.11802328183E+01  0.00000000000E+00 0. -1.
         11    1    3    3    0    0  0.13353073826E+02  0.56285290882E+01  0.34961311699E+02  0.37845451989E+02  0.51100000000E-03 0. -1.
        -11    1    3    3    0    0  0.80378276996E+01  0.61647216356E+01 -0.78316630181E+00  0.10159912238E+02  0.51100000000E-03 0.  1.
        -12    1    3    3    0    0 -0.20411495638E+02 -0.12312886404E+02 -0.34582734539E+02  0.42002402954E+02  0.00000000000E+00 0.  1.
</event>
<event>
 7    1  0.2090370E-015  0.9000772E+02  0.7816164E-02  0.1186339E+00
        -11   -1    0    0    0    0  0.00000000000E+00  0.00000000000E+00  0.45593999997E+02  0.45594000000E+02  0.51100000000E-03 0.  1.
         11   -1    0    0    0    0 -0.00000000000E+00 -0.00000000000E+00 -0.45593999997E+02  0.45594000000E+02  0.51100000000E-03 0. -1.
    9900012    2    1    2    0    0  0.10890486014E+01  0.37945939452E+00 -0.25109915401E+00  0.90007717376E+02  0.89999978445E+02 0.  0.
         12    1    1    2    0    0 -0.10890486014E+01 -0.37945939452E+00  0.25109915401E+00  0.11802826244E+01  0.00000000000E+00 0. -1.
         11    1    3    3    0    0  0.45876942334E+01  0.69905250678E+01 -0.53310507501E+01  0.99163744112E+01  0.51100000000E-03 0. -1.
        -11    1    3    3    0    0  0.23453814956E+02 -0.85300788082E+01  0.32909409708E+02  0.41302214566E+02  0.51100000000E-03 0.  1.
         12    1    3    3    0    0 -0.26952460588E+02  0.19190131349E+01 -0.27829458112E+02  0.38789128399E+02  0.00000000000E+00 0. -1.
</event>
<event>
 7    1  0.2090370E-015  0.9000772E+02  0.7816164E-02  0.1186339E+00
        -11   -1    0    0    0    0  0.00000000000E+00  0.00000000000E+00  0.45593999997E+02  0.45594000000E+02  0.51100000000E-03 0.  1.
         11   -1    0    0    0    0 -0.00000000000E+00 -0.00000000000E+00 -0.45593999997E+02  0.45594000000E+02  0.51100000000E-03 0. -1.
    9900012    2    1    2    0    0 -0.53944192147E+00 -0.86397620197E+00 -0.59632714652E+00  0.90007720995E+02  0.89999982112E+02 0.  0.
         12    1    1    2    0    0  0.53944192147E+00  0.86397620197E+00  0.59632714652E+00  0.11802790051E+01  0.00000000000E+00 0. -1.
         11    1    3    3    0    0  0.95310361966E+01  0.87607943423E+01 -0.36245002288E+02  0.38487561103E+02  0.51100000000E-03 0. -1.
        -11    1    3    3    0    0  0.19412486454E+01  0.85525736641E+01 -0.10586706189E+01  0.88337843716E+01  0.51100000000E-03 0.  1.
        -12    1    3    3    0    0 -0.12011726763E+02 -0.18177344208E+02  0.36707345761E+02  0.42686375521E+02  0.00000000000E+00 0.  1.
</event>
<event>
 7    1  0.2090370E-015  0.9000795E+02  0.7816164E-02  0.1186339E+00
        -11   -1    0    0    0    0  0.00000000000E+00  0.00000000000E+00  0.45593999997E+02  0.45594000000E+02  0.51100000000E-03 0. -1.
         11   -1    0    0    0    0 -0.00000000000E+00 -0.00000000000E+00 -0.45593999997E+02  0.45594000000E+02  0.51100000000E-03 0.  1.
    9900012    2    1    2    0    0  0.47504875734E+00 -0.21194495298E+00  0.10592066641E+01  0.90007953076E+02  0.90000217257E+02 0.  0.
         12    1    1    2    0    0 -0.47504875734E+00  0.21194495298E+00 -0.10592066641E+01  0.11800469237E+01  0.00000000000E+00 0. -1.
         11    1    3    3    0    0  0.31479080677E+02  0.44726733962E+01  0.23830182933E+02  0.39734304404E+02  0.51100000000E-03 0. -1.
        -11    1    3    3    0    0 -0.21627038163E+01 -0.10646446709E+02  0.28568828127E+01  0.11233249530E+02  0.51100000000E-03 0.  1.
        -12    1    3    3    0    0 -0.28841328103E+02  0.59618283601E+01 -0.25627859081E+02  0.39040399143E+02  0.00000000000E+00 0.  1.
</event>
<event>
 7    1  0.2090370E-015  0.9000760E+02  0.7816164E-02  0.1186339E+00
        -11   -1    0    0    0    0  0.00000000000E+00  0.00000000000E+00  0.45593999997E+02  0.45594000000E+02  0.51100000000E-03 0.  1.
         11   -1    0    0    0    0 -0.00000000000E+00 -0.00000000000E+00 -0.45593999997E+02  0.45594000000E+02  0.51100000000E-03 0. -1.
    9900012    2    1    2    0    0  0.75351897724E+00 -0.45487018181E+00  0.78653673281E+00  0.90007602709E+02  0.89999862265E+02 0.  0.
         12    1    1    2    0    0 -0.75351897724E+00  0.45487018181E+00 -0.78653673281E+00  0.11803972905E+01  0.00000000000E+00 0. -1.
         11    1    3    3    0    0  0.68826920062E+01  0.73401972227E+01  0.13406441708E+02  0.16762536325E+02  0.51100000000E-03 0. -1.
        -11    1    3    3    0    0  0.29881414001E+02  0.99226804901E-01 -0.19583999707E+02  0.35727325585E+02  0.51100000000E-03 0.  1.
         12    1    3    3    0    0 -0.36010587030E+02 -0.78942942094E+01  0.69640947316E+01  0.37517740800E+02  0.00000000000E+00 0. -1.
</event>
<event>
 7    1  0.2090370E-015  0.9000802E+02  0.7816164E-02  0.1186338E+00
        -11   -1    0    0    0    0  0.00000000000E+00  0.00000000000E+00  0.45593999997E+02  0.45594000000E+02  0.51100000000E-03 0.  1.
         11   -1    0    0    0    0 -0.00000000000E+00 -0.00000000000E+00 -0.45593999997E+02  0.45594000000E+02  0.51100000000E-03 0. -1.
    9900012    2    1    2    0    0  0.50328554206E+00  0.10652412095E+01  0.65638488345E-01  0.90008023906E+02  0.90000289021E+02 0.  0.
         12    1    1    2    0    0 -0.50328554206E+00 -0.10652412095E+01 -0.65638488345E-01  0.11799760940E+01  0.00000000000E+00 0. -1.
         11    1    3    3    0    0 -0.89837487401E+00 -0.47079307525E+01  0.82595989323E+01  0.95494850211E+01  0.51100000000E-03 0. -1.
        -11    1    3    3    0    0  0.87091959779E+01  0.38037135977E+02  0.13047369620E+02  0.41144959134E+02  0.51100000000E-03 0.  1.
         12    1    3    3    0    0 -0.73075355618E+01 -0.32263964015E+02 -0.21241330064E+02  0.39313579751E+02  0.00000000000E+00 0. -1.
</event>
<event>
 7    1  0.2090370E-015  0.9000779E+02  0.7816164E-02  0.1186339E+00
        -11   -1    0    0    0    0  0.00000000000E+00  0.00000000000E+00  0.45593999997E+02  0.45594000000E+02  0.51100000000E-03 0.  1.
         11   -1    0    0    0    0 -0.00000000000E+00 -0.00000000000E+00 -0.45593999997E+02  0.45594000000E+02  0.51100000000E-03 0. -1.
    9900012    2    1    2    0    0  0.97920366413E+00  0.37509337997E+00 -0.54163802173E+00  0.90007785356E+02  0.90000047323E+02 0.  0.
         12    1    1    2    0    0 -0.97920366413E+00 -0.37509337997E+00  0.54163802173E+00  0.11802146441E+01  0.00000000000E+00 0. -1.
         11    1    3    3    0    0 -0.32166392649E+02  0.10312821755E+02  0.74421004994E+01  0.34589246432E+02  0.51100000000E-03 0. -1.
        -11    1    3    3    0    0 -0.54446031014E+01  0.52369483341E+01  0.79769165529E+01  0.10986379237E+02  0.51100000000E-03 0.  1.
        -12    1    3    3    0    0  0.38590199415E+02 -0.15174676709E+02 -0.15960655074E+02  0.44432159687E+02  0.00000000000E+00 0.  1.
</event>
<event>
 7    1  0.2090370E-015  0.9000778E+02  0.7816164E-02  0.1186339E+00
        -11   -1    0    0    0    0  0.00000000000E+00  0.00000000000E+00  0.45593999997E+02  0.45594000000E+02  0.51100000000E-03 0.  1.
         11   -1    0    0    0    0 -0.00000000000E+00 -0.00000000000E+00 -0.45593999997E+02  0.45594000000E+02  0.51100000000E-03 0. -1.
    9900012    2    1    2    0    0 -0.80268539805E+00 -0.55275075108E+00  0.66563951733E+00  0.90007782559E+02  0.90000044489E+02 0.  0.
         12    1    1    2    0    0  0.80268539805E+00  0.55275075108E+00 -0.66563951733E+00  0.11802174410E+01  0.00000000000E+00 0. -1.
         11    1    3    3    0    0  0.10298398847E+02  0.31196539847E+02  0.51676968064E+01  0.33256370935E+02  0.51100000000E-03 0. -1.
        -11    1    3    3    0    0 -0.10757309903E+02  0.78787504158E+01 -0.10101482964E+02  0.16728251038E+02  0.51100000000E-03 0.  1.
        -12    1    3    3    0    0 -0.34377434222E+00 -0.39628041014E+02  0.55994256745E+01  0.40023160586E+02  0.00000000000E+00 0.  1.
</event>
<event>
 7    1  0.2090370E-015  0.9000776E+02  0.7816164E-02  0.1186339E+00
        -11   -1    0    0    0    0  0.00000000000E+00  0.00000000000E+00  0.45593999997E+02  0.45594000000E+02  0.51100000000E-03 0.  1.
         11   -1    0    0    0    0 -0.00000000000E+00 -0.00000000000E+00 -0.45593999997E+02  0.45594000000E+02  0.51100000000E-03 0. -1.
    9900012    2    1    2    0    0  0.45397307381E+00 -0.71429124398E+00  0.82258952197E+00  0.90007763984E+02  0.90000025668E+02 0.  0.
         12    1    1    2    0    0 -0.45397307381E+00  0.71429124398E+00 -0.82258952197E+00  0.11802360165E+01  0.00000000000E+00 0. -1.
         11    1    3    3    0    0 -0.21724263604E+02 -0.33570078086E+02  0.92505532613E+01  0.41042252713E+02  0.51100000000E-03 0. -1.
        -11    1    3    3    0    0  0.15340609041E+02  0.64984968557E+01  0.65341854698E+01  0.17895818706E+02  0.51100000000E-03 0.  1.
        -12    1    3    3    0    0  0.68376276364E+01  0.26357289986E+02 -0.14962149209E+02  0.31069692565E+02  0.00000000000E+00 0.  1.
</event>
<event>
 7    1  0.2090370E-015  0.9000788E+02  0.7816164E-02  0.1186339E+00
        -11   -1    0    0    0    0  0.00000000000E+00  0.00000000000E+00  0.45593999997E+02  0.45594000000E+02  0.51100000000E-03 0.  1.
         11   -1    0    0    0    0 -0.00000000000E+00 -0.00000000000E+00 -0.45593999997E+02  0.45594000000E+02  0.51100000000E-03 0. -1.
    9900012    2    1    2    0    0 -0.19953276411E+00  0.91747816450E+00  0.71492061894E+00  0.90007876702E+02  0.90000139875E+02 0.  0.
         12    1    1    2    0    0  0.19953276411E+00 -0.91747816450E+00 -0.71492061894E+00  0.11801232977E+01  0.00000000000E+00 0. -1.
         11    1    3    3    0    0  0.83048704312E+01 -0.24697438673E+01 -0.70339000796E+01  0.11160029491E+02  0.51100000000E-03 0. -1.
        -11    1    3    3    0    0  0.49637118834E+01  0.26877810684E+02  0.32289277427E+02  0.42304285597E+02  0.51100000000E-03 0.  1.
         12    1    3    3    0    0 -0.13468115079E+02 -0.23490588652E+02 -0.24540456729E+02  0.36543561614E+02  0.00000000000E+00 0. -1.
</event>
<event>
 7    1  0.2090370E-015  0.9000772E+02  0.7816164E-02  0.1186339E+00
        -11   -1    0    0    0    0  0.00000000000E+00  0.00000000000E+00  0.45593999997E+02  0.45594000000E+02  0.51100000000E-03 0. -1.
         11   -1    0    0    0    0 -0.00000000000E+00 -0.00000000000E+00 -0.45593999997E+02  0.45594000000E+02  0.51100000000E-03 0.  1.
    9900012    2    1    2    0    0 -0.65542881186E-03  0.11026138637E+01 -0.42106465628E+00  0.90007723250E+02  0.89999984397E+02 0.  0.
         12    1    1    2    0    0  0.65542881186E-03 -0.11026138637E+01  0.42106465628E+00  0.11802767501E+01  0.00000000000E+00 0. -1.
         11    1    3    3    0    0 -0.69293125138E+01  0.67101565106E+01 -0.92544376595E+01  0.13367355347E+02  0.51100000000E-03 0. -1.
        -11    1    3    3    0    0  0.80833403103E+01  0.30269882522E+00 -0.33203362430E+02  0.34174483084E+02  0.51100000000E-03 0.  1.
         12    1    3    3    0    0 -0.11546832252E+01 -0.59102414721E+01  0.42036735433E+02  0.42465884819E+02  0.00000000000E+00 0. -1.
</event>
<event>
 7    1  0.2090370E-015  0.9000775E+02  0.7816164E-02  0.1186339E+00
        -11   -1    0    0    0    0  0.00000000000E+00  0.00000000000E+00  0.45593999997E+02  0.45594000000E+02  0.51100000000E-03 0.  1.
         11   -1    0    0    0    0 -0.00000000000E+00 -0.00000000000E+00 -0.45593999997E+02  0.45594000000E+02  0.51100000000E-03 0. -1.
    9900012    2    1    2    0    0  0.35900569188E+00  0.95679698732E+00  0.59045631554E+00  0.90007752474E+02  0.90000014007E+02 0.  0.
         12    1    1    2    0    0 -0.35900569188E+00 -0.95679698732E+00 -0.59045631554E+00  0.11802475259E+01  0.00000000000E+00 0. -1.
         11    1    3    3    0    0  0.73719402356E+01 -0.69051547941E+01  0.56255814960E+00  0.10116478513E+02  0.51100000000E-03 0. -1.
        -11    1    3    3    0    0  0.33397531005E+02  0.18347893967E+02 -0.11984074478E+01  0.38124486500E+02  0.51100000000E-03 0.  1.
         12    1    3    3    0    0 -0.40410465549E+02 -0.10485942185E+02  0.12263056138E+01  0.41766787461E+02  0.00000000000E+00 0. -1.
</event>
<event>
 7    1  0.2090370E-015  0.9000778E+02  0.7816164E-02  0.1186339E+00
        -11   -1    0    0    0    0  0.00000000000E+00  0.00000000000E+00  0.45593999997E+02  0.45594000000E+02  0.51100000000E-03 0. -1.
         11   -1    0    0    0    0 -0.00000000000E+00 -0.00000000000E+00 -0.45593999997E+02  0.45594000000E+02  0.51100000000E-03 0.  1.
    9900012    2    1    2    0    0 -0.58369338174E+00  0.11938699184E+00 -0.10188128351E+01  0.90007775102E+02  0.90000036933E+02 0.  0.
         12    1    1    2    0    0  0.58369338174E+00 -0.11938699184E+00  0.10188128351E+01  0.11802248983E+01  0.00000000000E+00 0. -1.
         11    1    3    3    0    0 -0.62082640350E+01  0.83077890090E+01  0.68457369774E+00  0.10393774192E+02  0.51100000000E-03 0. -1.
        -11    1    3    3    0    0  0.37299804535E+02  0.14397471328E+02  0.44442501524E+01  0.40228273126E+02  0.51100000000E-03 0.  1.
         12    1    3    3    0    0 -0.31675233882E+02 -0.22585873345E+02 -0.61476366852E+01  0.39385727784E+02  0.00000000000E+00 0. -1.
</event>
<event>
 7    1  0.2090370E-015  0.9000799E+02  0.7816164E-02  0.1186339E+00
        -11   -1    0    0    0    0  0.00000000000E+00  0.00000000000E+00  0.45593999997E+02  0.45594000000E+02  0.51100000000E-03 0.  1.
         11   -1    0    0    0    0 -0.00000000000E+00 -0.00000000000E+00 -0.45593999997E+02  0.45594000000E+02  0.51100000000E-03 0. -1.
    9900012    2    1    2    0    0 -0.10303028805E+01  0.51305102150E+00  0.26015824974E+00  0.90007988267E+02  0.90000252911E+02 0.  0.
         12    1    1    2    0    0  0.10303028805E+01 -0.51305102150E+00 -0.26015824974E+00  0.11800117335E+01  0.00000000000E+00 0. -1.
         11    1    3    3    0    0 -0.39616150823E+01 -0.80013587895E+01 -0.35737147700E+01  0.96170460151E+01  0.51100000000E-03 0. -1.
        -11    1    3    3    0    0 -0.23420273233E+02 -0.24606480297E+02 -0.10739061500E+02  0.35627454485E+02  0.51100000000E-03 0.  1.
         12    1    3    3    0    0  0.26351585435E+02  0.33120890108E+02  0.14572934520E+02  0.44763487766E+02  0.00000000000E+00 0. -1.
</event>
<event>
 7    1  0.2090370E-015  0.9000766E+02  0.7816164E-02  0.1186339E+00
        -11   -1    0    0    0    0  0.00000000000E+00  0.00000000000E+00  0.45593999997E+02  0.45594000000E+02  0.51100000000E-03 0. -1.
         11   -1    0    0    0    0 -0.00000000000E+00 -0.00000000000E+00 -0.45593999997E+02  0.45594000000E+02  0.51100000000E-03 0.  1.
    9900012    2    1    2    0    0 -0.35523900962E-01  0.10952698292E+01 -0.43855659911E+00  0.90007656899E+02  0.89999917170E+02 0.  0.
         12    1    1    2    0    0  0.35523900962E-01 -0.10952698292E+01  0.43855659911E+00  0.11803431014E+01  0.00000000000E+00 0. -1.
         11    1    3    3    0    0  0.74872738566E+00  0.50154520740E+01 -0.11795465739E+02  0.12839328817E+02  0.51100000000E-03 0. -1.
        -11    1    3    3    0    0  0.92647959256E+01  0.28113975049E+02 -0.16190699454E+02  0.33739750824E+02  0.51100000000E-03 0.  1.
         12    1    3    3    0    0 -0.10049047212E+02 -0.32034157294E+02  0.27547608594E+02  0.43428577258E+02  0.00000000000E+00 0. -1.
</event>
<event>
 7    1  0.2090370E-015  0.9000760E+02  0.7816164E-02  0.1186339E+00
        -11   -1    0    0    0    0  0.00000000000E+00  0.00000000000E+00  0.45593999997E+02  0.45594000000E+02  0.51100000000E-03 0. -1.
         11   -1    0    0    0    0 -0.00000000000E+00 -0.00000000000E+00 -0.45593999997E+02  0.45594000000E+02  0.51100000000E-03 0.  1.
    9900012    2    1    2    0    0 -0.10029974970E+01 -0.40465639532E+00 -0.47285741548E+00  0.90007599681E+02  0.89999859197E+02 0.  0.
         12    1    1    2    0    0  0.10029974970E+01  0.40465639532E+00  0.47285741548E+00  0.11804003188E+01  0.00000000000E+00 0. -1.
         11    1    3    3    0    0  0.43643085909E+01 -0.50618053922E+00  0.86795373026E+01  0.97281949129E+01  0.51100000000E-03 0. -1.
        -11    1    3    3    0    0  0.25525612466E+02 -0.23412859851E+02 -0.19963575173E+02  0.39978284507E+02  0.51100000000E-03 0.  1.
         12    1    3    3    0    0 -0.30892918554E+02  0.23514383995E+02  0.10811180455E+02  0.40301120261E+02  0.00000000000E+00 0. -1.
</event>
<event>
 7    1  0.2090370E-015  0.9000776E+02  0.7816164E-02  0.1186339E+00
        -11   -1    0    0    0    0  0.00000000000E+00  0.00000000000E+00  0.45593999997E+02  0.45594000000E+02  0.51100000000E-03 0.  1.
         11   -1    0    0    0    0 -0.00000000000E+00 -0.00000000000E+00 -0.45593999997E+02  0.45594000000E+02  0.51100000000E-03 0. -1.
    9900012    2    1    2    0    0  0.64986568276E+00 -0.91094243636E+00  0.37526455128E+00  0.90007760613E+02  0.90000022253E+02 0.  0.
         12    1    1    2    0    0 -0.64986568276E+00  0.91094243636E+00 -0.37526455128E+00  0.11802393873E+01  0.00000000000E+00 0. -1.
         11    1    3    3    0    0 -0.42100020360E+01 -0.10042476489E+02 -0.75309420029E+01  0.13239733339E+02  0.51100000000E-03 0. -1.
        -11    1    3    3    0    0 -0.14157102513E+02 -0.29502571204E+02  0.80822259032E+01  0.33706789153E+02  0.51100000000E-03 0.  1.
         12    1    3    3    0    0  0.19016970231E+02  0.38634105256E+02 -0.17601934903E+00  0.43061238121E+02  0.00000000000E+00 0. -1.
</event>
<event>
 7    1  0.2090370E-015  0.9000788E+02  0.7816164E-02  0.1186339E+00
        -11   -1    0    0    0    0  0.00000000000E+00  0.00000000000E+00  0.45593999997E+02  0.45594000000E+02  0.51100000000E-03 0. -1.
         11   -1    0    0    0    0 -0.00000000000E+00 -0.00000000000E+00 -0.45593999997E+02  0.45594000000E+02  0.51100000000E-03 0.  1.
    9900012    2    1    2    0    0  0.19739898297E+00 -0.47559334015E+00 -0.10618506637E+01  0.90007880423E+02  0.90000143645E+02 0.  0.
         12    1    1    2    0    0 -0.19739898297E+00  0.47559334015E+00  0.10618506637E+01  0.11801195768E+01  0.00000000000E+00 0. -1.
         11    1    3    3    0    0 -0.52427273885E+01 -0.28399295480E+01 -0.75925683162E+01  0.96539362027E+01  0.51100000000E-03 0. -1.
        -11    1    3    3    0    0  0.17708479798E+02 -0.22888884676E+02 -0.24923298921E+02  0.38192435479E+02  0.51100000000E-03 0.  1.
         12    1    3    3    0    0 -0.12268353426E+02  0.25253220884E+02  0.31454016573E+02  0.42161508742E+02  0.00000000000E+00 0. -1.
</event>
<event>
 7    1  0.2090370E-015  0.9000780E+02  0.7816164E-02  0.1186339E+00
        -11   -1    0    0    0    0  0.00000000000E+00  0.00000000000E+00  0.45593999997E+02  0.45594000000E+02  0.51100000000E-03 0.  1.
         11   -1    0    0    0    0 -0.00000000000E+00 -0.00000000000E+00 -0.45593999997E+02  0.45594000000E+02  0.51100000000E-03 0. -1.
    9900012    2    1    2    0    0 -0.10407078720E+01 -0.53815920127E+00  0.14209389600E+00  0.90007797104E+02  0.90000059226E+02 0.  0.
         12    1    1    2    0    0  0.10407078720E+01  0.53815920127E+00 -0.14209389600E+00  0.11802028962E+01  0.00000000000E+00 0. -1.
         11    1    3    3    0    0  0.23023137654E+01 -0.10052935707E+02  0.11302988782E+01  0.10374957388E+02  0.51100000000E-03 0. -1.
        -11    1    3    3    0    0 -0.16500211473E+02 -0.29815446696E+02  0.12073009874E+02  0.36152114849E+02  0.51100000000E-03 0.  1.
         12    1    3    3    0    0  0.13157189836E+02  0.39330223201E+02 -0.13061214856E+02  0.43480724867E+02  0.00000000000E+00 0. -1.
</event>
<event>
 7    1  0.2090370E-015  0.9000756E+02  0.7816164E-02  0.1186339E+00
        -11   -1    0    0    0    0  0.00000000000E+00  0.00000000000E+00  0.45593999997E+02  0.45594000000E+02  0.51100000000E-03 0.  1.
         11   -1    0    0    0    0 -0.00000000000E+00 -0.00000000000E+00 -0.45593999997E+02  0.45594000000E+02  0.51100000000E-03 0. -1.
    9900012    2    1    2    0    0 -0.32714124364E+00 -0.10993598336E+01 -0.27898880716E+00  0.90007555935E+02  0.89999814873E+02 0.  0.
         12    1    1    2    0    0  0.32714124364E+00  0.10993598336E+01  0.27898880716E+00  0.11804440654E+01  0.00000000000E+00 0. -1.
         11    1    3    3    0    0  0.12957296810E+02  0.24800473735E+02  0.19898175807E+02  0.34335003114E+02  0.51100000000E-03 0. -1.
        -11    1    3    3    0    0  0.86332073488E+01  0.77508568405E+01 -0.61707613852E+01  0.13141017739E+02  0.51100000000E-03 0.  1.
        -12    1    3    3    0    0 -0.21917645402E+02 -0.33650690409E+02 -0.14006403229E+02  0.42531535082E+02  0.00000000000E+00 0.  1.
</event>
<event>
 7    1  0.2090370E-015  0.9000774E+02  0.7816164E-02  0.1186339E+00
        -11   -1    0    0    0    0  0.00000000000E+00  0.00000000000E+00  0.45593999997E+02  0.45594000000E+02  0.51100000000E-03 0. -1.
         11   -1    0    0    0    0 -0.00000000000E+00 -0.00000000000E+00 -0.45593999997E+02  0.45594000000E+02  0.51100000000E-03 0.  1.
    9900012    2    1    2    0    0  0.10427529762E+01 -0.51358614500E+00 -0.20473698398E+00  0.90007736584E+02  0.89999997907E+02 0.  0.
         12    1    1    2    0    0 -0.10427529762E+01  0.51358614500E+00  0.20473698398E+00  0.11802634157E+01  0.00000000000E+00 0. -1.
         11    1    3    3    0    0 -0.18755416610E+01 -0.84767333707E+00 -0.39739849372E+01  0.44753506176E+01  0.51100000000E-03 0. -1.
        -11    1    3    3    0    0 -0.18503785349E+02  0.36761781303E+02 -0.74128731535E+01  0.41818289366E+02  0.51100000000E-03 0.  1.
         12    1    3    3    0    0  0.21422079986E+02 -0.36427694111E+02  0.11182121107E+02  0.43714096601E+02  0.00000000000E+00 0. -1.
</event>
<event>
 7    1  0.2090370E-015  0.9000775E+02  0.7816164E-02  0.1186339E+00
        -11   -1    0    0    0    0  0.00000000000E+00  0.00000000000E+00  0.45593999997E+02  0.45594000000E+02  0.51100000000E-03 0. -1.
         11   -1    0    0    0    0 -0.00000000000E+00 -0.00000000000E+00 -0.45593999997E+02  0.45594000000E+02  0.51100000000E-03 0.  1.
    9900012    2    1    2    0    0 -0.16688816374E+00  0.97528671314E+00 -0.64339180433E+00  0.90007750515E+02  0.90000012022E+02 0.  0.
         12    1    1    2    0    0  0.16688816374E+00 -0.97528671314E+00  0.64339180433E+00  0.11802494846E+01  0.00000000000E+00 0. -1.
         11    1    3    3    0    0  0.30091962517E+01  0.96895150263E+01  0.40584394580E+01  0.10927620721E+02  0.51100000000E-03 0. -1.
        -11    1    3    3    0    0  0.16558124385E+02  0.24771177300E+02 -0.21494712006E+02  0.36739697229E+02  0.51100000000E-03 0.  1.
         12    1    3    3    0    0 -0.19734208801E+02 -0.33485405614E+02  0.16792880744E+02  0.42340432565E+02  0.00000000000E+00 0. -1.
</event>
<event>
 7    1  0.2090370E-015  0.9000778E+02  0.7816164E-02  0.1186339E+00
        -11   -1    0    0    0    0  0.00000000000E+00  0.00000000000E+00  0.45593999997E+02  0.45594000000E+02  0.51100000000E-03 0.  1.
         11   -1    0    0    0    0 -0.00000000000E+00 -0.00000000000E+00 -0.45593999997E+02  0.45594000000E+02  0.51100000000E-03 0. -1.
    9900012    2    1    2    0    0  0.70988143146E+00  0.58743075921E+00  0.73750765439E+00  0.90007777951E+02  0.90000039820E+02 0.  0.
         12    1    1    2    0    0 -0.70988143146E+00 -0.58743075921E+00 -0.73750765439E+00  0.11802220485E+01  0.00000000000E+00 0. -1.
         11    1    3    3    0    0 -0.46756315861E+01  0.40210158033E+02 -0.44199224594E+01  0.40721665666E+02  0.51100000000E-03 0. -1.
        -11    1    3    3    0    0  0.64269417951E+01 -0.55725540591E+01 -0.90103407280E+01  0.12391334871E+02  0.51100000000E-03 0.  1.
        -12    1    3    3    0    0 -0.10414287776E+01 -0.34050173215E+02  0.14167770842E+02  0.36894777415E+02  0.00000000000E+00 0.  1.
</event>
<event>
 7    1  0.2090370E-015  0.9000787E+02  0.7816164E-02  0.1186339E+00
        -11   -1    0    0    0    0  0.00000000000E+00  0.00000000000E+00  0.45593999997E+02  0.45594000000E+02  0.51100000000E-03 0.  1.
         11   -1    0    0    0    0 -0.00000000000E+00 -0.00000000000E+00 -0.45593999997E+02  0.45594000000E+02  0.51100000000E-03 0. -1.
    9900012    2    1    2    0    0  0.98167247518E+00 -0.32629104353E+00  0.56795278766E+00  0.90007865659E+02  0.90000128686E+02 0.  0.
         12    1    1    2    0    0 -0.98167247518E+00  0.32629104353E+00 -0.56795278766E+00  0.11801343409E+01  0.00000000000E+00 0. -1.
         11    1    3    3    0    0 -0.31003219646E+01  0.44571254755E+01  0.85143335341E+01  0.10098110694E+02  0.51100000000E-03 0. -1.
        -11    1    3    3    0    0  0.12698190768E+02  0.20215704193E+02  0.27029972208E+02  0.36062974678E+02  0.51100000000E-03 0.  1.
         12    1    3    3    0    0 -0.86161963282E+01 -0.24999120712E+02 -0.34976352955E+02  0.43846780287E+02  0.00000000000E+00 0. -1.
</event>
<event>
 7    1  0.2090370E-015  0.9000772E+02  0.7816164E-02  0.1186339E+00
        -11   -1    0    0    0    0  0.00000000000E+00  0.00000000000E+00  0.45593999997E+02  0.45594000000E+02  0.51100000000E-03 0.  1.
         11   -1    0    0    0    0 -0.00000000000E+00 -0.00000000000E+00 -0.45593999997E+02  0.45594000000E+02  0.51100000000E-03 0. -1.
    9900012    2    1    2    0    0  0.23025711727E-01 -0.11557455437E+01 -0.23830606346E+00  0.90007717100E+02  0.89999978165E+02 0.  0.
         12    1    1    2    0    0 -0.23025711727E-01  0.11557455437E+01  0.23830606346E+00  0.11802829004E+01  0.00000000000E+00 0. -1.
         11    1    3    3    0    0  0.24395172513E+02 -0.33220293391E+02  0.16988148348E+01  0.41250434023E+02  0.51100000000E-03 0. -1.
        -11    1    3    3    0    0 -0.88964650258E+01 -0.32577212666E+01 -0.36564521415E+01  0.10155268600E+02  0.51100000000E-03 0.  1.
        -12    1    3    3    0    0 -0.15475681776E+02  0.35322269114E+02  0.17193312432E+01  0.38602014477E+02  0.00000000000E+00 0.  1.
</event>
<event>
 7    1  0.2683642E-015  0.9000775E+02  0.7816164E-02  0.1186339E+00
        -11   -1    0    0    0    0  0.00000000000E+00  0.00000000000E+00  0.45593999997E+02  0.45594000000E+02  0.51100000000E-03 0. -1.
         11   -1    0    0    0    0 -0.00000000000E+00 -0.00000000000E+00 -0.45593999997E+02  0.45594000000E+02  0.51100000000E-03 0.  1.
    9900012    2    1    2    0    0  0.96449476181E+00  0.23627010147E+00 -0.63790180151E+00  0.90007749003E+02  0.90000010490E+02 0.  0.
         12    1    1    2    0    0 -0.96449476181E+00 -0.23627010147E+00  0.63790180151E+00  0.11802509965E+01  0.00000000000E+00 0. -1.
         11    1    3    3    0    0  0.17128392305E+02 -0.25847831905E+02  0.23876555834E+02  0.39135433509E+02  0.51100000000E-03 0. -1.
        -11    1    3    3    0    0  0.28070323508E+01 -0.62241393419E+01 -0.59610407830E+01  0.90638484455E+01  0.51100000000E-03 0.  1.
        -12    1    3    3    0    0 -0.18970929894E+02  0.32308241349E+02 -0.18553416852E+02  0.41808467049E+02  0.00000000000E+00 0.  1.
</event>
<event>
 7    1  0.2090370E-015  0.9000773E+02  0.7816164E-02  0.1186339E+00
        -11   -1    0    0    0    0  0.00000000000E+00  0.00000000000E+00  0.45593999997E+02  0.45594000000E+02  0.51100000000E-03 0.  1.
         11   -1    0    0    0    0 -0.00000000000E+00 -0.00000000000E+00 -0.45593999997E+02  0.45594000000E+02  0.51100000000E-03 0. -1.
    9900012    2    1    2    0    0  0.41542556272E+00 -0.29094658537E+00  0.10657442483E+01  0.90007729219E+02  0.89999990445E+02 0.  0.
         12    1    1    2    0    0 -0.41542556272E+00  0.29094658537E+00 -0.10657442483E+01  0.11802707810E+01  0.00000000000E+00 0. -1.
         11    1    3    3    0    0  0.49659407177E+01  0.35579426813E+02  0.23147583872E+01  0.35998809511E+02  0.51100000000E-03 0. -1.
        -11    1    3    3    0    0  0.62964842634E+01  0.70408913232E+01 -0.23525631706E+01  0.97341881242E+01  0.51100000000E-03 0.  1.
        -12    1    3    3    0    0 -0.10846999418E+02 -0.42911264721E+02  0.11035490317E+01  0.44274731584E+02  0.00000000000E+00 0.  1.
</event>
<event>
 7    1  0.2651979E-015  0.9000769E+02  0.7816164E-02  0.1186339E+00
        -11   -1    0    0    0    0  0.00000000000E+00  0.00000000000E+00  0.45593999997E+02  0.45594000000E+02  0.51100000000E-03 0.  1.
         11   -1    0    0    0    0 -0.00000000000E+00 -0.00000000000E+00 -0.45593999997E+02  0.45594000000E+02  0.51100000000E-03 0. -1.
    9900012    2    1    2    0    0  0.83354324946E+00 -0.58784964830E+00  0.59394235294E+00  0.90007691110E+02  0.89999951832E+02 0.  0.
         12    1    1    2    0    0 -0.83354324946E+00  0.58784964830E+00 -0.59394235294E+00  0.11803088902E+01  0.00000000000E+00 0. -1.
         11    1    3    3    0    0  0.11016634845E+02  0.10967197285E+02 -0.35141288192E+02  0.38425978135E+02  0.51100000000E-03 0. -1.
        -11    1    3    3    0    0  0.11532732785E+01 -0.75510165507E+01 -0.49865959763E+01  0.91221724329E+01  0.51100000000E-03 0.  1.
        -12    1    3    3    0    0 -0.11336364874E+02 -0.40040303830E+01  0.40721826521E+02  0.42459540542E+02  0.00000000000E+00 0.  1.
</event>
<event>
 7    1  0.2090370E-015  0.9000780E+02  0.7816164E-02  0.1186339E+00
        -11   -1    0    0    0    0  0.00000000000E+00  0.00000000000E+00  0.45593999997E+02  0.45594000000E+02  0.51100000000E-03 0. -1.
         11   -1    0    0    0    0 -0.00000000000E+00 -0.00000000000E+00 -0.45593999997E+02  0.45594000000E+02  0.51100000000E-03 0.  1.
    9900012    2    1    2    0    0  0.60761151964E+00 -0.93470023193E+00  0.38731656654E+00  0.90007800693E+02  0.90000062862E+02 0.  0.
         12    1    1    2    0    0 -0.60761151964E+00  0.93470023193E+00 -0.38731656654E+00  0.11801993074E+01  0.00000000000E+00 0. -1.
         11    1    3    3    0    0 -0.64755864352E+01 -0.71828009405E+01 -0.11654289317E+01  0.97408456453E+01  0.51100000000E-03 0. -1.
        -11    1    3    3    0    0 -0.34569295080E+02 -0.59932489285E+01 -0.75997385145E+01  0.35898624219E+02  0.51100000000E-03 0.  1.
         12    1    3    3    0    0  0.41652493035E+02  0.12241349637E+02  0.91524840127E+01  0.44368330829E+02  0.00000000000E+00 0. -1.
</event>
<event>
 7    1  0.2090370E-015  0.9000780E+02  0.7816164E-02  0.1186339E+00
        -11   -1    0    0    0    0  0.00000000000E+00  0.00000000000E+00  0.45593999997E+02  0.45594000000E+02  0.51100000000E-03 0.  1.
         11   -1    0    0    0    0 -0.00000000000E+00 -0.00000000000E+00 -0.45593999997E+02  0.45594000000E+02  0.51100000000E-03 0. -1.
    9900012    2    1    2    0    0  0.56256841095E+00 -0.10374458544E+01  0.97366577560E-02  0.90007800051E+02  0.90000062211E+02 0.  0.
         12    1    1    2    0    0 -0.56256841095E+00  0.10374458544E+01 -0.97366577560E-02  0.11801999493E+01  0.00000000000E+00 0. -1.
         11    1    3    3    0    0  0.17508174755E-01  0.13572494994E+02 -0.14389029467E+00  0.13573269009E+02  0.51100000000E-03 0. -1.
        -11    1    3    3    0    0 -0.24601089290E+02  0.16070281272E+02  0.16303182288E+02  0.33604483144E+02  0.51100000000E-03 0.  1.
         12    1    3    3    0    0  0.25146149526E+02 -0.30680222121E+02 -0.16149555335E+02  0.42830047898E+02  0.00000000000E+00 0. -1.
</event>
<event>
 7    1  0.2090370E-015  0.9000775E+02  0.7816164E-02  0.1186339E+00
        -11   -1    0    0    0    0  0.00000000000E+00  0.00000000000E+00  0.45593999997E+02  0.45594000000E+02  0.51100000000E-03 0. -1.
         11   -1    0    0    0    0 -0.00000000000E+00 -0.00000000000E+00 -0.45593999997E+02  0.45594000000E+02  0.51100000000E-03 0.  1.
    9900012    2    1    2    0    0 -0.10709793294E+01 -0.42310611139E+00 -0.25881048175E+00  0.90007746480E+02  0.90000007934E+02 0.  0.
         12    1    1    2    0    0  0.10709793294E+01  0.42310611139E+00  0.25881048175E+00  0.11802535198E+01  0.00000000000E+00 0. -1.
         11    1    3    3    0    0 -0.19807472580E+01 -0.19244862095E+01  0.99811090105E+01  0.10356135583E+02  0.51100000000E-03 0. -1.
        -11    1    3    3    0    0 -0.20058435056E+02 -0.32621081302E+02  0.74590198235E-01  0.38294664461E+02  0.51100000000E-03 0.  1.
         12    1    3    3    0    0  0.20968202984E+02  0.34122461400E+02 -0.10314509690E+02  0.41356946437E+02  0.00000000000E+00 0. -1.
</event>
<event>
 7    1  0.2090370E-015  0.9000770E+02  0.7816164E-02  0.1186339E+00
        -11   -1    0    0    0    0  0.00000000000E+00  0.00000000000E+00  0.45593999997E+02  0.45594000000E+02  0.51100000000E-03 0.  1.
         11   -1    0    0    0    0 -0.00000000000E+00 -0.00000000000E+00 -0.45593999997E+02  0.45594000000E+02  0.51100000000E-03 0. -1.
    9900012    2    1    2    0    0 -0.10039396563E+01 -0.39214620047E+00  0.48107682157E+00  0.90007699875E+02  0.89999960714E+02 0.  0.
         12    1    1    2    0    0  0.10039396563E+01  0.39214620047E+00 -0.48107682157E+00  0.11803001246E+01  0.00000000000E+00 0. -1.
         11    1    3    3    0    0 -0.11195755515E+02  0.25744667125E+02 -0.22695268077E+02  0.36099972580E+02  0.51100000000E-03 0. -1.
        -11    1    3    3    0    0 -0.93104262227E+01  0.56952365646E+01  0.23650683098E+01  0.11167511108E+02  0.51100000000E-03 0.  1.
        -12    1    3    3    0    0  0.19502242082E+02 -0.31832049890E+02  0.20811276589E+02  0.42740216187E+02  0.00000000000E+00 0.  1.
</event>
<event>
 7    1  0.2120729E-015  0.9000778E+02  0.7816164E-02  0.1186339E+00
        -11   -1    0    0    0    0  0.00000000000E+00  0.00000000000E+00  0.45593999997E+02  0.45594000000E+02  0.51100000000E-03 0. -1.
         11   -1    0    0    0    0 -0.00000000000E+00 -0.00000000000E+00 -0.45593999997E+02  0.45594000000E+02  0.51100000000E-03 0.  1.
    9900012    2    1    2    0    0 -0.44909846097E+00  0.30961268121E+00 -0.10466024848E+01  0.90007777054E+02  0.90000038912E+02 0.  0.
         12    1    1    2    0    0  0.44909846097E+00 -0.30961268121E+00  0.10466024848E+01  0.11802229455E+01  0.00000000000E+00 0. -1.
         11    1    3    3    0    0 -0.28479992090E+02 -0.23138040662E+02  0.20251803231E+02  0.41911984080E+02  0.51100000000E-03 0. -1.
        -11    1    3    3    0    0  0.10354890705E+02 -0.15696599052E+01  0.52295922352E+00  0.10486232896E+02  0.51100000000E-03 0.  1.
        -12    1    3    3    0    0  0.17676002924E+02  0.25017313248E+02 -0.21821364939E+02  0.37609560079E+02  0.00000000000E+00 0.  1.
</event>
<event>
 7    1  0.2090370E-015  0.9000771E+02  0.7816164E-02  0.1186339E+00
        -11   -1    0    0    0    0  0.00000000000E+00  0.00000000000E+00  0.45593999997E+02  0.45594000000E+02  0.51100000000E-03 0. -1.
         11   -1    0    0    0    0 -0.00000000000E+00 -0.00000000000E+00 -0.45593999997E+02  0.45594000000E+02  0.51100000000E-03 0.  1.
    9900012    2    1    2    0    0 -0.29098240022E-01  0.55679092249E+00 -0.10402960295E+01  0.90007712464E+02  0.89999973468E+02 0.  0.
         12    1    1    2    0    0  0.29098240022E-01 -0.55679092249E+00  0.10402960295E+01  0.11802875361E+01  0.00000000000E+00 0. -1.
         11    1    3    3    0    0  0.63283445291E+01 -0.27662998405E+00  0.63960604067E+01  0.90018918909E+01  0.51100000000E-03 0. -1.
        -11    1    3    3    0    0 -0.35229163800E+02 -0.18772524349E+02  0.11175751810E+02  0.41453577425E+02  0.51100000000E-03 0.  1.
         12    1    3    3    0    0  0.28871721031E+02  0.19605945256E+02 -0.18612108247E+02  0.39552243148E+02  0.00000000000E+00 0. -1.
</event>
<event>
 7    1  0.2090370E-015  0.9000765E+02  0.7816164E-02  0.1186339E+00
        -11   -1    0    0    0    0  0.00000000000E+00  0.00000000000E+00  0.45593999997E+02  0.45594000000E+02  0.51100000000E-03 0.  1.
         11   -1    0    0    0    0 -0.00000000000E+00 -0.00000000000E+00 -0.45593999997E+02  0.45594000000E+02  0.51100000000E-03 0. -1.
    9900012    2    1    2    0    0  0.74695361739E+00 -0.38000386985E+00  0.83119967212E+00  0.90007646010E+02  0.89999906137E+02 0.  0.
         12    1    1    2    0    0 -0.74695361739E+00  0.38000386985E+00 -0.83119967212E+00  0.11803539904E+01  0.00000000000E+00 0. -1.
         11    1    3    3    0    0  0.27649628137E+01  0.95619076504E+01 -0.59972023425E-01  0.99538281169E+01  0.51100000000E-03 0. -1.
        -11    1    3    3    0    0 -0.27351297893E+02  0.12803884850E+02  0.24278307063E+02  0.38748795566E+02  0.51100000000E-03 0.  1.
         12    1    3    3    0    0  0.25333288697E+02 -0.22745796371E+02 -0.23387135368E+02  0.41305022327E+02  0.00000000000E+00 0. -1.
</event>
<event>
 7    1  0.2090370E-015  0.9000771E+02  0.7816164E-02  0.1186339E+00
        -11   -1    0    0    0    0  0.00000000000E+00  0.00000000000E+00  0.45593999997E+02  0.45594000000E+02  0.51100000000E-03 0.  1.
         11   -1    0    0    0    0 -0.00000000000E+00 -0.00000000000E+00 -0.45593999997E+02  0.45594000000E+02  0.51100000000E-03 0. -1.
    9900012    2    1    2    0    0  0.18949597218E+00  0.11327681282E+01 -0.27207178725E+00  0.90007705370E+02  0.89999966281E+02 0.  0.
         12    1    1    2    0    0 -0.18949597218E+00 -0.11327681282E+01  0.27207178725E+00  0.11802946298E+01  0.00000000000E+00 0. -1.
         11    1    3    3    0    0 -0.16924374837E+02  0.38105260698E+02  0.34475902533E+01  0.41836960159E+02  0.51100000000E-03 0. -1.
        -11    1    3    3    0    0 -0.41140219012E+01 -0.74304776936E+01 -0.78419519149E+01  0.11559990703E+02  0.51100000000E-03 0.  1.
        -12    1    3    3    0    0  0.21227892710E+02 -0.29542014876E+02  0.41222898744E+01  0.36610754509E+02  0.00000000000E+00 0.  1.
</event>
<event>
 7    1  0.2090370E-015  0.9000763E+02  0.7816164E-02  0.1186339E+00
        -11   -1    0    0    0    0  0.00000000000E+00  0.00000000000E+00  0.45593999997E+02  0.45594000000E+02  0.51100000000E-03 0.  1.
         11   -1    0    0    0    0 -0.00000000000E+00 -0.00000000000E+00 -0.45593999997E+02  0.45594000000E+02  0.51100000000E-03 0. -1.
    9900012    2    1    2    0    0 -0.10837665188E+01 -0.23473629697E+00 -0.40449397236E+00  0.90007632951E+02  0.89999892906E+02 0.  0.
         12    1    1    2    0    0  0.10837665188E+01  0.23473629697E+00  0.40449397236E+00  0.11803670488E+01  0.00000000000E+00 0. -1.
         11    1    3    3    0    0  0.16020989257E+01 -0.98948326421E+01  0.22434084602E+00  0.10026203821E+02  0.51100000000E-03 0. -1.
        -11    1    3    3    0    0  0.28258924392E+02 -0.19389787477E+02 -0.11531933580E+02  0.36159592898E+02  0.51100000000E-03 0.  1.
         12    1    3    3    0    0 -0.30944789837E+02  0.29049883822E+02  0.10903098762E+02  0.43821836232E+02  0.00000000000E+00 0. -1.
</event>
<event>
 7    1  0.2090370E-015  0.9000780E+02  0.7816164E-02  0.1186339E+00
        -11   -1    0    0    0    0  0.00000000000E+00  0.00000000000E+00  0.45593999997E+02  0.45594000000E+02  0.51100000000E-03 0.  1.
         11   -1    0    0    0    0 -0.00000000000E+00 -0.00000000000E+00 -0.45593999997E+02  0.45594000000E+02  0.51100000000E-03 0. -1.
    9900012    2    1    2    0    0  0.35215967179E+00  0.11160445866E+01 -0.15267423530E+00  0.90007796045E+02  0.90000058153E+02 0.  0.
         12    1    1    2    0    0 -0.35215967179E+00 -0.11160445866E+01  0.15267423530E+00  0.11802039552E+01  0.00000000000E+00 0. -1.
         11    1    3    3    0    0 -0.36268121487E+02  0.87860427760E+01  0.68264104024E+01  0.37936408147E+02  0.51100000000E-03 0. -1.
        -11    1    3    3    0    0 -0.47460183755E+01 -0.50884101750E+01 -0.80120189054E+01  0.10611741409E+02  0.51100000000E-03 0.  1.
        -12    1    3    3    0    0  0.41366299534E+02 -0.25815880144E+01  0.10329342677E+01  0.41459646489E+02  0.00000000000E+00 0.  1.
</event>
<event>
 7    1  0.2090370E-015  0.9000771E+02  0.7816164E-02  0.1186339E+00
        -11   -1    0    0    0    0  0.00000000000E+00  0.00000000000E+00  0.45593999997E+02  0.45594000000E+02  0.51100000000E-03 0.  1.
         11   -1    0    0    0    0 -0.00000000000E+00 -0.00000000000E+00 -0.45593999997E+02  0.45594000000E+02  0.51100000000E-03 0. -1.
    9900012    2    1    2    0    0  0.28151505445E+00 -0.11076651488E+01  0.29482723470E+00  0.90007705161E+02  0.89999966069E+02 0.  0.
         12    1    1    2    0    0 -0.28151505445E+00  0.11076651488E+01 -0.29482723470E+00  0.11802948386E+01  0.00000000000E+00 0. -1.
         11    1    3    3    0    0  0.69568925336E+01  0.33688468682E+01 -0.52448349769E+01  0.93410800843E+01  0.51100000000E-03 0. -1.
        -11    1    3    3    0    0  0.10449908001E+02  0.22044463884E+02  0.31466068168E+02  0.39815479545E+02  0.51100000000E-03 0.  1.
         12    1    3    3    0    0 -0.17125285480E+02 -0.26520975901E+02 -0.25926405956E+02  0.40851145532E+02  0.00000000000E+00 0. -1.
</event>
<event>
 7    1  0.2090370E-015  0.9000789E+02  0.7816164E-02  0.1186339E+00
        -11   -1    0    0    0    0  0.00000000000E+00  0.00000000000E+00  0.45593999997E+02  0.45594000000E+02  0.51100000000E-03 0.  1.
         11   -1    0    0    0    0 -0.00000000000E+00 -0.00000000000E+00 -0.45593999997E+02  0.45594000000E+02  0.51100000000E-03 0. -1.
    9900012    2    1    2    0    0 -0.10738276245E+01  0.48915196319E+00  0.16615199153E-01  0.90007893448E+02  0.90000156841E+02 0.  0.
         12    1    1    2    0    0  0.10738276245E+01 -0.48915196319E+00 -0.16615199153E-01  0.11801065524E+01  0.00000000000E+00 0. -1.
         11    1    3    3    0    0  0.32710227872E+02  0.14735849584E+02  0.11990852214E+02  0.37827038048E+02  0.51100000000E-03 0. -1.
        -11    1    3    3    0    0  0.39576723700E+01 -0.55860958656E+01  0.63534314144E+01  0.93398998179E+01  0.51100000000E-03 0.  1.
        -12    1    3    3    0    0 -0.37741727866E+02 -0.86606017557E+01 -0.18327668429E+02  0.42840955582E+02  0.00000000000E+00 0.  1.
</event>
<event>
 7    1  0.2090370E-015  0.9000772E+02  0.7816164E-02  0.1186339E+00
        -11   -1    0    0    0    0  0.00000000000E+00  0.00000000000E+00  0.45593999997E+02  0.45594000000E+02  0.51100000000E-03 0.  1.
         11   -1    0    0    0    0 -0.00000000000E+00 -0.00000000000E+00 -0.45593999997E+02  0.45594000000E+02  0.51100000000E-03 0. -1.
    9900012    2    1    2    0    0 -0.16474195664E+00  0.78892471010E+00  0.86227613682E+00  0.90007719420E+02  0.89999980517E+02 0.  0.
         12    1    1    2    0    0  0.16474195664E+00 -0.78892471010E+00 -0.86227613682E+00  0.11802805796E+01  0.00000000000E+00 0. -1.
         11    1    3    3    0    0  0.28346225597E+02  0.43706206141E+01 -0.25619042769E+02  0.38457069348E+02  0.51100000000E-03 0. -1.
        -11    1    3    3    0    0 -0.78813936764E+01  0.21864048755E+01 -0.76860592518E+01  0.11223735548E+02  0.51100000000E-03 0.  1.
        -12    1    3    3    0    0 -0.20629573877E+02 -0.57681007795E+01  0.34167378158E+02  0.40326914525E+02  0.00000000000E+00 0.  1.
</event>
<event>
 7    1  0.2090370E-015  0.9000774E+02  0.7816164E-02  0.1186339E+00
        -11   -1    0    0    0    0  0.00000000000E+00  0.00000000000E+00  0.45593999997E+02  0.45594000000E+02  0.51100000000E-03 0.  1.
         11   -1    0    0    0    0 -0.00000000000E+00 -0.00000000000E+00 -0.45593999997E+02  0.45594000000E+02  0.51100000000E-03 0. -1.
    9900012    2    1    2    0    0 -0.42119195660E+00 -0.63881905151E-01 -0.11006953848E+01  0.90007739905E+02  0.90000001272E+02 0.  0.
         12    1    1    2    0    0  0.42119195660E+00  0.63881905151E-01  0.11006953848E+01  0.11802600951E+01  0.00000000000E+00 0. -1.
         11    1    3    3    0    0  0.25204557187E+02  0.10650809352E+01 -0.16920223651E+02  0.30375945567E+02  0.51100000000E-03 0. -1.
        -11    1    3    3    0    0  0.12728895751E+02  0.11065222521E+02  0.15772510906E+01  0.16939647509E+02  0.51100000000E-03 0.  1.
        -12    1    3    3    0    0 -0.38354644895E+02 -0.12194185361E+02  0.14242277176E+02  0.42692146828E+02  0.00000000000E+00 0.  1.
</event>
<event>
 7    1  0.2090370E-015  0.9000776E+02  0.7816164E-02  0.1186339E+00
        -11   -1    0    0    0    0  0.00000000000E+00  0.00000000000E+00  0.45593999997E+02  0.45594000000E+02  0.51100000000E-03 0.  1.
         11   -1    0    0    0    0 -0.00000000000E+00 -0.00000000000E+00 -0.45593999997E+02  0.45594000000E+02  0.51100000000E-03 0. -1.
    9900012    2    1    2    0    0  0.28271501019E+00 -0.74434860491E-01  0.11434596394E+01  0.90007759231E+02  0.90000020853E+02 0.  0.
         12    1    1    2    0    0 -0.28271501019E+00  0.74434860491E-01 -0.11434596394E+01  0.11802407688E+01  0.00000000000E+00 0. -1.
         11    1    3    3    0    0 -0.30384626682E+02  0.19891691801E+02  0.23763060381E+01  0.36394392040E+02  0.51100000000E-03 0. -1.
        -11    1    3    3    0    0 -0.41567060148E+01  0.35457929211E+01 -0.93396236864E+01  0.10820324542E+02  0.51100000000E-03 0.  1.
        -12    1    3    3    0    0  0.34824047707E+02 -0.23511919582E+02  0.81067772877E+01  0.42793042649E+02  0.00000000000E+00 0.  1.
</event>
<event>
 7    1  0.2090370E-015  0.9000773E+02  0.7816164E-02  0.1186339E+00
        -11   -1    0    0    0    0  0.00000000000E+00  0.00000000000E+00  0.45593999997E+02  0.45594000000E+02  0.51100000000E-03 0.  1.
         11   -1    0    0    0    0 -0.00000000000E+00 -0.00000000000E+00 -0.45593999997E+02  0.45594000000E+02  0.51100000000E-03 0. -1.
    9900012    2    1    2    0    0 -0.96734246989E+00 -0.33781047982E+00  0.58580386282E+00  0.90007731581E+02  0.89999992838E+02 0.  0.
         12    1    1    2    0    0  0.96734246989E+00  0.33781047982E+00 -0.58580386282E+00  0.11802684186E+01  0.00000000000E+00 0. -1.
         11    1    3    3    0    0 -0.14201705196E+02 -0.99552280081E+01 -0.34030262882E+02  0.38194944525E+02  0.51100000000E-03 0. -1.
        -11    1    3    3    0    0 -0.83294269607E+00 -0.10247224388E+02  0.10283317479E+01  0.10332321503E+02  0.51100000000E-03 0.  1.
        -12    1    3    3    0    0  0.14067305423E+02  0.19864641917E+02  0.33587734997E+02  0.41480465554E+02  0.00000000000E+00 0.  1.
</event>
<event>
 7    1  0.2090370E-015  0.9000781E+02  0.7816164E-02  0.1186339E+00
        -11   -1    0    0    0    0  0.00000000000E+00  0.00000000000E+00  0.45593999997E+02  0.45594000000E+02  0.51100000000E-03 0. -1.
         11   -1    0    0    0    0 -0.00000000000E+00 -0.00000000000E+00 -0.45593999997E+02  0.45594000000E+02  0.51100000000E-03 0.  1.
    9900012    2    1    2    0    0 -0.11026277224E+01  0.33189390045E+00  0.25866496822E+00  0.90007809752E+02  0.90000072041E+02 0.  0.
         12    1    1    2    0    0  0.11026277224E+01 -0.33189390045E+00 -0.25866496822E+00  0.11801902479E+01  0.00000000000E+00 0. -1.
         11    1    3    3    0    0  0.15835169807E+02  0.19566889969E+02  0.30146647781E+02  0.39273861009E+02  0.51100000000E-03 0. -1.
        -11    1    3    3    0    0  0.87446305108E+01  0.26546239496E+00 -0.63145947184E+01  0.10789492100E+02  0.51100000000E-03 0.  1.
        -12    1    3    3    0    0 -0.25682428040E+02 -0.19500458464E+02 -0.23573388094E+02  0.39944456644E+02  0.00000000000E+00 0.  1.
</event>
<event>
 7    1  0.2090370E-015  0.9000784E+02  0.7816164E-02  0.1186339E+00
        -11   -1    0    0    0    0  0.00000000000E+00  0.00000000000E+00  0.45593999997E+02  0.45594000000E+02  0.51100000000E-03 0.  1.
         11   -1    0    0    0    0 -0.00000000000E+00 -0.00000000000E+00 -0.45593999997E+02  0.45594000000E+02  0.51100000000E-03 0. -1.
    9900012    2    1    2    0    0  0.70698278009E+00  0.69013822741E+00 -0.64550109489E+00  0.90007835991E+02  0.90000098626E+02 0.  0.
         12    1    1    2    0    0 -0.70698278009E+00 -0.69013822741E+00  0.64550109489E+00  0.11801640088E+01  0.00000000000E+00 0. -1.
         11    1    3    3    0    0  0.35869585435E+01  0.10483788390E+02  0.64715093118E+01  0.12831855814E+02  0.51100000000E-03 0. -1.
        -11    1    3    3    0    0 -0.25115442568E+02  0.24970209487E+02 -0.58032057583E+01  0.35888354859E+02  0.51100000000E-03 0.  1.
         12    1    3    3    0    0  0.22235466804E+02 -0.34763859649E+02 -0.13138046484E+01  0.41287625318E+02  0.00000000000E+00 0. -1.
</event>
<event>
 7    1  0.2090370E-015  0.9000772E+02  0.7816164E-02  0.1186339E+00
        -11   -1    0    0    0    0  0.00000000000E+00  0.00000000000E+00  0.45593999997E+02  0.45594000000E+02  0.51100000000E-03 0.  1.
         11   -1    0    0    0    0 -0.00000000000E+00 -0.00000000000E+00 -0.45593999997E+02  0.45594000000E+02  0.51100000000E-03 0. -1.
    9900012    2    1    2    0    0 -0.27024509986E+00  0.10084727817E+01  0.55045564589E+00  0.90007724107E+02  0.89999985265E+02 0.  0.
         12    1    1    2    0    0  0.27024509986E+00 -0.10084727817E+01 -0.55045564589E+00  0.11802758930E+01  0.00000000000E+00 0. -1.
         11    1    3    3    0    0  0.70082550391E+01 -0.36529666540E+02 -0.11183299103E+02  0.38840679130E+02  0.51100000000E-03 0. -1.
        -11    1    3    3    0    0 -0.21716760686E+01 -0.41946604373E+00 -0.78466972447E+01  0.81524711971E+01  0.51100000000E-03 0.  1.
        -12    1    3    3    0    0 -0.51068240704E+01  0.37957605365E+02  0.19580451994E+02  0.43014573780E+02  0.00000000000E+00 0.  1.
</event>
<event>
 7    1  0.2090370E-015  0.9000784E+02  0.7816164E-02  0.1186339E+00
        -11   -1    0    0    0    0  0.00000000000E+00  0.00000000000E+00  0.45593999997E+02  0.45594000000E+02  0.51100000000E-03 0. -1.
         11   -1    0    0    0    0 -0.00000000000E+00 -0.00000000000E+00 -0.45593999997E+02  0.45594000000E+02  0.51100000000E-03 0.  1.
    9900012    2    1    2    0    0 -0.88083639160E+00  0.44253983946E+00  0.64889782130E+00  0.90007837875E+02  0.90000100535E+02 0.  0.
         12    1    1    2    0    0  0.88083639160E+00 -0.44253983946E+00 -0.64889782130E+00  0.11801621248E+01  0.00000000000E+00 0. -1.
         11    1    3    3    0    0 -0.41077800515E+02  0.13208279734E+02  0.55472763735E+00  0.43152660077E+02  0.51100000000E-03 0. -1.
        -11    1    3    3    0    0 -0.74354298791E+00 -0.50599675196E+01  0.87426270547E+00  0.51884933279E+01  0.51100000000E-03 0.  1.
        -12    1    3    3    0    0  0.40940507111E+02 -0.77057723751E+01 -0.78009252152E+00  0.41666684471E+02  0.00000000000E+00 0.  1.
</event>
<event>
 7    1  0.2920667E-015  0.9000776E+02  0.7816164E-02  0.1186339E+00
        -11   -1    0    0    0    0  0.00000000000E+00  0.00000000000E+00  0.45593999997E+02  0.45594000000E+02  0.51100000000E-03 0.  1.
         11   -1    0    0    0    0 -0.00000000000E+00 -0.00000000000E+00 -0.45593999997E+02  0.45594000000E+02  0.51100000000E-03 0. -1.
    9900012    2    1    2    0    0 -0.25857640710E+00  0.11188879275E+01  0.27239601505E+00  0.90007757846E+02  0.90000019450E+02 0.  0.
         12    1    1    2    0    0  0.25857640710E+00 -0.11188879275E+01 -0.27239601505E+00  0.11802421538E+01  0.00000000000E+00 0. -1.
         11    1    3    3    0    0 -0.19823586480E+02  0.28957117257E+02 -0.17181010116E+02  0.39072705686E+02  0.51100000000E-03 0. -1.
        -11    1    3    3    0    0 -0.73253492022E+01 -0.45384537933E+01 -0.38784304662E+01  0.94498956032E+01  0.51100000000E-03 0.  1.
        -12    1    3    3    0    0  0.26890359275E+02 -0.23299775536E+02  0.21331836597E+02  0.41485156557E+02  0.00000000000E+00 0.  1.
</event>
<event>
 7    1  0.2090370E-015  0.9000776E+02  0.7816164E-02  0.1186339E+00
        -11   -1    0    0    0    0  0.00000000000E+00  0.00000000000E+00  0.45593999997E+02  0.45594000000E+02  0.51100000000E-03 0.  1.
         11   -1    0    0    0    0 -0.00000000000E+00 -0.00000000000E+00 -0.45593999997E+02  0.45594000000E+02  0.51100000000E-03 0. -1.
    9900012    2    1    2    0    0 -0.75552761213E+00  0.16716834936E+00  0.89117778239E+00  0.90007760588E+02  0.90000022228E+02 0.  0.
         12    1    1    2    0    0  0.75552761213E+00 -0.16716834936E+00 -0.89117778239E+00  0.11802394120E+01  0.00000000000E+00 0. -1.
         11    1    3    3    0    0 -0.18649812873E+02  0.19188463713E+02 -0.25219918303E+02  0.36770326887E+02  0.51100000000E-03 0. -1.
        -11    1    3    3    0    0 -0.25943450206E+01 -0.24259947144E+01 -0.87992308946E+01  0.94890748252E+01  0.51100000000E-03 0.  1.
        -12    1    3    3    0    0  0.20488630282E+02 -0.16595300649E+02  0.34910326980E+02  0.43748358876E+02  0.00000000000E+00 0.  1.
</event>
<event>
 7    1  0.2090370E-015  0.9000778E+02  0.7816164E-02  0.1186339E+00
        -11   -1    0    0    0    0  0.00000000000E+00  0.00000000000E+00  0.45593999997E+02  0.45594000000E+02  0.51100000000E-03 0.  1.
         11   -1    0    0    0    0 -0.00000000000E+00 -0.00000000000E+00 -0.45593999997E+02  0.45594000000E+02  0.51100000000E-03 0. -1.
    9900012    2    1    2    0    0 -0.80326057250E+00 -0.26742068972E+00  0.82230154980E+00  0.90007779168E+02  0.90000041053E+02 0.  0.
         12    1    1    2    0    0  0.80326057250E+00  0.26742068972E+00 -0.82230154980E+00  0.11802208316E+01  0.00000000000E+00 0. -1.
         11    1    3    3    0    0 -0.13772047430E+01 -0.50152209681E+01  0.72892263363E+01  0.89544377325E+01  0.51100000000E-03 0. -1.
        -11    1    3    3    0    0 -0.70088377799E+01 -0.35325650379E+02  0.95137669594E+01  0.37249659646E+02  0.51100000000E-03 0.  1.
         12    1    3    3    0    0  0.75827819504E+01  0.40073450657E+02 -0.15980691746E+02  0.43803681790E+02  0.00000000000E+00 0. -1.
</event>
<event>
 7    1  0.2090370E-015  0.9000768E+02  0.7816164E-02  0.1186339E+00
        -11   -1    0    0    0    0  0.00000000000E+00  0.00000000000E+00  0.45593999997E+02  0.45594000000E+02  0.51100000000E-03 0.  1.
         11   -1    0    0    0    0 -0.00000000000E+00 -0.00000000000E+00 -0.45593999997E+02  0.45594000000E+02  0.51100000000E-03 0. -1.
    9900012    2    1    2    0    0 -0.10320260140E+01 -0.57111555080E+00  0.43527080428E-01  0.90007684249E+02  0.89999944881E+02 0.  0.
         12    1    1    2    0    0  0.10320260140E+01  0.57111555080E+00 -0.43527080428E-01  0.11803157513E+01  0.00000000000E+00 0. -1.
         11    1    3    3    0    0 -0.46245111016E+01 -0.62396569507E+01 -0.65631914324E+01  0.10168328468E+02  0.51100000000E-03 0. -1.
        -11    1    3    3    0    0 -0.31114194167E+02  0.24744794607E+02  0.61911712213E+01  0.40233425658E+02  0.51100000000E-03 0.  1.
         12    1    3    3    0    0  0.34706679255E+02 -0.19076253207E+02  0.41554729154E+00  0.39605930123E+02  0.00000000000E+00 0. -1.
</event>
<event>
 7    1  0.2090370E-015  0.9000766E+02  0.7816164E-02  0.1186339E+00
        -11   -1    0    0    0    0  0.00000000000E+00  0.00000000000E+00  0.45593999997E+02  0.45594000000E+02  0.51100000000E-03 0. -1.
         11   -1    0    0    0    0 -0.00000000000E+00 -0.00000000000E+00 -0.45593999997E+02  0.45594000000E+02  0.51100000000E-03 0.  1.
    9900012    2    1    2    0    0 -0.14864855405E+00 -0.25694138567E+00 -0.11424016491E+01  0.90007662423E+02  0.89999922767E+02 0.  0.
         12    1    1    2    0    0  0.14864855405E+00  0.25694138567E+00  0.11424016491E+01  0.11803375772E+01  0.00000000000E+00 0. -1.
         11    1    3    3    0    0  0.27072558220E+02  0.30393549853E+02  0.34935861033E+01  0.40852128774E+02  0.51100000000E-03 0. -1.
        -11    1    3    3    0    0  0.40252131048E+01 -0.75393356435E+01 -0.57056811246E+01  0.10276123775E+02  0.51100000000E-03 0.  1.
        -12    1    3    3    0    0 -0.31246419879E+02 -0.23111155595E+02  0.10696933722E+01  0.38879409874E+02  0.00000000000E+00 0.  1.
</event>
<event>
 7    1  0.2090370E-015  0.9000776E+02  0.7816164E-02  0.1186339E+00
        -11   -1    0    0    0    0  0.00000000000E+00  0.00000000000E+00  0.45593999997E+02  0.45594000000E+02  0.51100000000E-03 0.  1.
         11   -1    0    0    0    0 -0.00000000000E+00 -0.00000000000E+00 -0.45593999997E+02  0.45594000000E+02  0.51100000000E-03 0. -1.
    9900012    2    1    2    0    0  0.93743734806E+00  0.68864341744E+00 -0.19989484960E+00  0.90007755750E+02  0.90000017326E+02 0.  0.
         12    1    1    2    0    0 -0.93743734806E+00 -0.68864341744E+00  0.19989484960E+00  0.11802442496E+01  0.00000000000E+00 0. -1.
         11    1    3    3    0    0  0.21313740616E+02  0.28920372048E+02 -0.23020265503E+00  0.35926542444E+02  0.51100000000E-03 0. -1.
        -11    1    3    3    0    0  0.12326628927E+01  0.85037278868E+01  0.67605767800E+01  0.10933354675E+02  0.51100000000E-03 0.  1.
        -12    1    3    3    0    0 -0.21608966160E+02 -0.36735456517E+02 -0.67302689745E+01  0.43147858632E+02  0.00000000000E+00 0.  1.
</event>
<event>
 7    1  0.2090370E-015  0.9000778E+02  0.7816164E-02  0.1186339E+00
        -11   -1    0    0    0    0  0.00000000000E+00  0.00000000000E+00  0.45593999997E+02  0.45594000000E+02  0.51100000000E-03 0.  1.
         11   -1    0    0    0    0 -0.00000000000E+00 -0.00000000000E+00 -0.45593999997E+02  0.45594000000E+02  0.51100000000E-03 0. -1.
    9900012    2    1    2    0    0  0.59383631793E-01  0.10313255766E+01  0.57074980227E+00  0.90007782140E+02  0.90000044064E+02 0.  0.
         12    1    1    2    0    0 -0.59383631793E-01 -0.10313255766E+01 -0.57074980227E+00  0.11802178602E+01  0.00000000000E+00 0. -1.
         11    1    3    3    0    0  0.17150882357E+02  0.30418019297E+02 -0.21447962062E+01  0.34985837343E+02  0.51100000000E-03 0. -1.
        -11    1    3    3    0    0 -0.41917422073E+01  0.11194328446E+02 -0.22102774765E+01  0.12156028088E+02  0.51100000000E-03 0.  1.
        -12    1    3    3    0    0 -0.12899756517E+02 -0.40581022166E+02  0.49258234850E+01  0.42865916709E+02  0.00000000000E+00 0.  1.
</event>
<event>
 7    1  0.2090370E-015  0.9000754E+02  0.7816164E-02  0.1186339E+00
        -11   -1    0    0    0    0  0.00000000000E+00  0.00000000000E+00  0.45593999997E+02  0.45594000000E+02  0.51100000000E-03 0. -1.
         11   -1    0    0    0    0 -0.00000000000E+00 -0.00000000000E+00 -0.45593999997E+02  0.45594000000E+02  0.51100000000E-03 0.  1.
    9900012    2    1    2    0    0  0.93822757536E+00  0.69947075062E+00 -0.15476388976E+00  0.90007541540E+02  0.89999800288E+02 0.  0.
         12    1    1    2    0    0 -0.93822757536E+00 -0.69947075062E+00  0.15476388976E+00  0.11804584600E+01  0.00000000000E+00 0. -1.
         11    1    3    3    0    0 -0.22474425965E+01  0.10246692681E+02  0.21357231976E+01  0.10705466966E+02  0.51100000000E-03 0. -1.
        -11    1    3    3    0    0 -0.51539389000E+01  0.16738083864E+02 -0.33410045890E+02  0.37722111609E+02  0.51100000000E-03 0.  1.
         12    1    3    3    0    0  0.83396090719E+01 -0.26285305794E+02  0.31119558802E+02  0.41579962965E+02  0.00000000000E+00 0. -1.
</event>
<event>
 7    1  0.2090370E-015  0.9000776E+02  0.7816164E-02  0.1186339E+00
        -11   -1    0    0    0    0  0.00000000000E+00  0.00000000000E+00  0.45593999997E+02  0.45594000000E+02  0.51100000000E-03 0. -1.
         11   -1    0    0    0    0 -0.00000000000E+00 -0.00000000000E+00 -0.45593999997E+02  0.45594000000E+02  0.51100000000E-03 0.  1.
    9900012    2    1    2    0    0 -0.20038493382E+00  0.10311377752E+01 -0.53810600650E+00  0.90007763876E+02  0.90000025560E+02 0.  0.
         12    1    1    2    0    0  0.20038493382E+00 -0.10311377752E+01  0.53810600650E+00  0.11802361236E+01  0.00000000000E+00 0. -1.
         11    1    3    3    0    0 -0.79548103399E+01 -0.93881311214E+01 -0.20022230116E+01  0.12466952745E+02  0.51100000000E-03 0. -1.
        -11    1    3    3    0    0  0.19689390314E+02 -0.91272127792E+01 -0.30981603118E+02  0.37826417172E+02  0.51100000000E-03 0.  1.
         12    1    3    3    0    0 -0.11934964908E+02  0.19546481676E+02  0.32445720123E+02  0.39714393959E+02  0.00000000000E+00 0. -1.
</event>
<event>
 7    1  0.2899390E-015  0.9000792E+02  0.7816164E-02  0.1186339E+00
        -11   -1    0    0    0    0  0.00000000000E+00  0.00000000000E+00  0.45593999997E+02  0.45594000000E+02  0.51100000000E-03 0.  1.
         11   -1    0    0    0    0 -0.00000000000E+00 -0.00000000000E+00 -0.45593999997E+02  0.45594000000E+02  0.51100000000E-03 0. -1.
    9900012    2    1    2    0    0 -0.79874567226E+00  0.27476770997E+00  0.82406674649E+00  0.90007924602E+02  0.90000188406E+02 0.  0.
         12    1    1    2    0    0  0.79874567226E+00 -0.27476770997E+00 -0.82406674649E+00  0.11800753985E+01  0.00000000000E+00 0. -1.
         11    1    3    3    0    0 -0.10996664445E+02 -0.26288652471E+02 -0.23848114765E+02  0.37158477576E+02  0.51100000000E-03 0. -1.
        -11    1    3    3    0    0 -0.72164449503E+01  0.11909879420E+01 -0.59554601073E+01  0.94320218060E+01  0.51100000000E-03 0.  1.
        -12    1    3    3    0    0  0.17414363723E+02  0.25372432239E+02  0.30627641619E+02  0.43417425220E+02  0.00000000000E+00 0.  1.
</event>
<event>
 7    1  0.2090370E-015  0.9000772E+02  0.7816164E-02  0.1186339E+00
        -11   -1    0    0    0    0  0.00000000000E+00  0.00000000000E+00  0.45593999997E+02  0.45594000000E+02  0.51100000000E-03 0.  1.
         11   -1    0    0    0    0 -0.00000000000E+00 -0.00000000000E+00 -0.45593999997E+02  0.45594000000E+02  0.51100000000E-03 0. -1.
    9900012    2    1    2    0    0 -0.71904475693E+00  0.77163957266E+00 -0.52972037300E+00  0.90007721784E+02  0.89999982912E+02 0.  0.
         12    1    1    2    0    0  0.71904475693E+00 -0.77163957266E+00  0.52972037300E+00  0.11802782156E+01  0.00000000000E+00 0. -1.
         11    1    3    3    0    0 -0.32939584018E+02 -0.14825466107E+02 -0.98302521935E+01  0.37435871821E+02  0.51100000000E-03 0. -1.
        -11    1    3    3    0    0 -0.82682597974E+01  0.55415184765E+01  0.71793069868E+00  0.99793773278E+01  0.51100000000E-03 0.  1.
        -12    1    3    3    0    0  0.40488799058E+02  0.10055587203E+02  0.85826011218E+01  0.42592472635E+02  0.00000000000E+00 0.  1.
</event>
<event>
 7    1  0.2090370E-015  0.9000718E+02  0.7816164E-02  0.1186340E+00
        -11   -1    0    0    0    0  0.00000000000E+00  0.00000000000E+00  0.45593999997E+02  0.45594000000E+02  0.51100000000E-03 0.  1.
         11   -1    0    0    0    0 -0.00000000000E+00 -0.00000000000E+00 -0.45593999997E+02  0.45594000000E+02  0.51100000000E-03 0. -1.
    9900012    2    1    2    0    0 -0.67673693322E+00  0.82767777867E+00  0.50132252287E+00  0.90007175011E+02  0.89999428920E+02 0.  0.
         12    1    1    2    0    0  0.67673693322E+00 -0.82767777867E+00 -0.50132252287E+00  0.11808249887E+01  0.00000000000E+00 0. -1.
         11    1    3    3    0    0 -0.64633845313E+01  0.59050193397E+00  0.53264086047E+01  0.83961098742E+01  0.51100000000E-03 0. -1.
        -11    1    3    3    0    0 -0.30512080086E+02  0.21922971618E+02  0.57923092436E+01  0.38015188574E+02  0.51100000000E-03 0.  1.
         12    1    3    3    0    0  0.36298727684E+02 -0.21685795773E+02 -0.10617395325E+02  0.43595876563E+02  0.00000000000E+00 0. -1.
</event>
<event>
 7    1  0.2090370E-015  0.9000776E+02  0.7816164E-02  0.1186339E+00
        -11   -1    0    0    0    0  0.00000000000E+00  0.00000000000E+00  0.45593999997E+02  0.45594000000E+02  0.51100000000E-03 0.  1.
         11   -1    0    0    0    0 -0.00000000000E+00 -0.00000000000E+00 -0.45593999997E+02  0.45594000000E+02  0.51100000000E-03 0. -1.
    9900012    2    1    2    0    0  0.11615557381E+01  0.19630103520E+00  0.72267306583E-01  0.90007759180E+02  0.90000020801E+02 0.  0.
         12    1    1    2    0    0 -0.11615557381E+01 -0.19630103520E+00 -0.72267306583E-01  0.11802408198E+01  0.00000000000E+00 0. -1.
         11    1    3    3    0    0 -0.13334532806E+02  0.60032305956E+01 -0.12772844029E+02  0.19416335586E+02  0.51100000000E-03 0. -1.
        -11    1    3    3    0    0 -0.21889390813E+02  0.13441576860E+02  0.14306434291E+02  0.29402304009E+02  0.51100000000E-03 0.  1.
         12    1    3    3    0    0  0.36385479357E+02 -0.19248506420E+02 -0.14613229558E+01  0.41189119585E+02  0.00000000000E+00 0. -1.
</event>
<event>
 7    1  0.2090370E-015  0.9000747E+02  0.7816164E-02  0.1186340E+00
        -11   -1    0    0    0    0  0.00000000000E+00  0.00000000000E+00  0.45593999997E+02  0.45594000000E+02  0.51100000000E-03 0.  1.
         11   -1    0    0    0    0 -0.00000000000E+00 -0.00000000000E+00 -0.45593999997E+02  0.45594000000E+02  0.51100000000E-03 0. -1.
    9900012    2    1    2    0    0  0.51156011307E+00  0.98897382105E+00 -0.39229268828E+00  0.90007467696E+02  0.89999725469E+02 0.  0.
         12    1    1    2    0    0 -0.51156011307E+00 -0.98897382105E+00  0.39229268828E+00  0.11805323042E+01  0.00000000000E+00 0. -1.
         11    1    3    3    0    0 -0.20702220873E+02 -0.47663202287E+01 -0.22497285565E+02  0.30942327250E+02  0.51100000000E-03 0. -1.
        -11    1    3    3    0    0  0.84203460352E+01  0.26128427033E+01 -0.16262722755E+02  0.18498792556E+02  0.51100000000E-03 0.  1.
        -12    1    3    3    0    0  0.12793434951E+02  0.31424513465E+01  0.38367715632E+02  0.40566347890E+02  0.00000000000E+00 0.  1.
</event>
<event>
 7    1  0.2090370E-015  0.9000780E+02  0.7816164E-02  0.1186339E+00
        -11   -1    0    0    0    0  0.00000000000E+00  0.00000000000E+00  0.45593999997E+02  0.45594000000E+02  0.51100000000E-03 0. -1.
         11   -1    0    0    0    0 -0.00000000000E+00 -0.00000000000E+00 -0.45593999997E+02  0.45594000000E+02  0.51100000000E-03 0.  1.
    9900012    2    1    2    0    0  0.67540509412E+00  0.90328632944E+00  0.34754094138E+00  0.90007795382E+02  0.90000057481E+02 0.  0.
         12    1    1    2    0    0 -0.67540509412E+00 -0.90328632944E+00 -0.34754094138E+00  0.11802046179E+01  0.00000000000E+00 0. -1.
         11    1    3    3    0    0 -0.68899374684E+01  0.80771483491E+01  0.57395294062E+01  0.12068710032E+02  0.51100000000E-03 0. -1.
        -11    1    3    3    0    0 -0.18509466308E+02 -0.28242626052E+02  0.16820371525E+02  0.37724940925E+02  0.51100000000E-03 0.  1.
         12    1    3    3    0    0  0.26074808870E+02  0.21068764032E+02 -0.22212359990E+02  0.40214144425E+02  0.00000000000E+00 0. -1.
</event>
<event>
 7    1  0.2090370E-015  0.9000780E+02  0.7816164E-02  0.1186339E+00
        -11   -1    0    0    0    0  0.00000000000E+00  0.00000000000E+00  0.45593999997E+02  0.45594000000E+02  0.51100000000E-03 0.  1.
         11   -1    0    0    0    0 -0.00000000000E+00 -0.00000000000E+00 -0.45593999997E+02  0.45594000000E+02  0.51100000000E-03 0. -1.
    9900012    2    1    2    0    0 -0.60101333947E+00  0.85215539610E-01  0.10121273206E+01  0.90007796443E+02  0.90000058556E+02 0.  0.
         12    1    1    2    0    0  0.60101333947E+00 -0.85215539610E-01 -0.10121273206E+01  0.11802035568E+01  0.00000000000E+00 0. -1.
         11    1    3    3    0    0 -0.21767361062E+00  0.20111759991E+01 -0.99033149515E+01  0.10107811731E+02  0.51100000000E-03 0. -1.
        -11    1    3    3    0    0  0.18018147793E+02 -0.27800889317E+02  0.28415062612E+02  0.43645834626E+02  0.51100000000E-03 0.  1.
         12    1    3    3    0    0 -0.18401487521E+02  0.25874928858E+02 -0.17499620340E+02  0.36254150086E+02  0.00000000000E+00 0. -1.
</event>
<event>
 7    1  0.2090370E-015  0.9000778E+02  0.7816164E-02  0.1186339E+00
        -11   -1    0    0    0    0  0.00000000000E+00  0.00000000000E+00  0.45593999997E+02  0.45594000000E+02  0.51100000000E-03 0.  1.
         11   -1    0    0    0    0 -0.00000000000E+00 -0.00000000000E+00 -0.45593999997E+02  0.45594000000E+02  0.51100000000E-03 0. -1.
    9900012    2    1    2    0    0 -0.10644120451E+01  0.32396484416E+00 -0.39368171182E+00  0.90007783277E+02  0.90000045217E+02 0.  0.
         12    1    1    2    0    0  0.10644120451E+01 -0.32396484416E+00  0.39368171182E+00  0.11802167226E+01  0.00000000000E+00 0. -1.
         11    1    3    3    0    0 -0.35010518822E+02 -0.13920515387E+02  0.47718487647E+01  0.37977463287E+02  0.51100000000E-03 0. -1.
        -11    1    3    3    0    0 -0.42350555047E+01 -0.44940681158E+01 -0.71562238757E+01  0.94521893643E+01  0.51100000000E-03 0.  1.
        -12    1    3    3    0    0  0.38181162282E+02  0.18738548347E+02  0.19906933992E+01  0.42578130626E+02  0.00000000000E+00 0.  1.
</event>
<event>
 7    1  0.2090370E-015  0.9000762E+02  0.7816164E-02  0.1186339E+00
        -11   -1    0    0    0    0  0.00000000000E+00  0.00000000000E+00  0.45593999997E+02  0.45594000000E+02  0.51100000000E-03 0.  1.
         11   -1    0    0    0    0 -0.00000000000E+00 -0.00000000000E+00 -0.45593999997E+02  0.45594000000E+02  0.51100000000E-03 0. -1.
    9900012    2    1    2    0    0 -0.27886636052E+00  0.48954918589E+00  0.10372381721E+01  0.90007623840E+02  0.89999883675E+02 0.  0.
         12    1    1    2    0    0  0.27886636052E+00 -0.48954918589E+00 -0.10372381721E+01  0.11803761596E+01  0.00000000000E+00 0. -1.
         11    1    3    3    0    0  0.10832065602E+02 -0.56855509265E+00 -0.28487741026E+01  0.11214830103E+02  0.51100000000E-03 0. -1.
        -11    1    3    3    0    0 -0.33499804530E+00  0.34937671932E+02  0.19444386457E+02  0.39985463717E+02  0.51100000000E-03 0.  1.
         12    1    3    3    0    0 -0.10775933917E+02 -0.33879567653E+02 -0.15558374182E+02  0.38807330021E+02  0.00000000000E+00 0. -1.
</event>
<event>
 7    1  0.2090370E-015  0.9000763E+02  0.7816164E-02  0.1186339E+00
        -11   -1    0    0    0    0  0.00000000000E+00  0.00000000000E+00  0.45593999997E+02  0.45594000000E+02  0.51100000000E-03 0.  1.
         11   -1    0    0    0    0 -0.00000000000E+00 -0.00000000000E+00 -0.45593999997E+02  0.45594000000E+02  0.51100000000E-03 0. -1.
    9900012    2    1    2    0    0 -0.63448429790E+00 -0.22333999167E+00  0.96995503374E+00  0.90007634021E+02  0.89999893990E+02 0.  0.
         12    1    1    2    0    0  0.63448429790E+00  0.22333999167E+00 -0.96995503374E+00  0.11803659787E+01  0.00000000000E+00 0. -1.
         11    1    3    3    0    0 -0.35053874418E+02 -0.67002144897E+01 -0.10133605321E+02  0.37099284939E+02  0.51100000000E-03 0. -1.
        -11    1    3    3    0    0 -0.12294576121E+01 -0.77260412732E+01 -0.69822549458E+01  0.10485950799E+02  0.51100000000E-03 0.  1.
        -12    1    3    3    0    0  0.35648847732E+02  0.14202915771E+02  0.18085815301E+02  0.42422398283E+02  0.00000000000E+00 0.  1.
</event>
<event>
 7    1  0.2090370E-015  0.9000770E+02  0.7816164E-02  0.1186339E+00
        -11   -1    0    0    0    0  0.00000000000E+00  0.00000000000E+00  0.45593999997E+02  0.45594000000E+02  0.51100000000E-03 0. -1.
         11   -1    0    0    0    0 -0.00000000000E+00 -0.00000000000E+00 -0.45593999997E+02  0.45594000000E+02  0.51100000000E-03 0.  1.
    9900012    2    1    2    0    0 -0.10093096603E+01  0.59001810582E+00  0.16211528113E+00  0.90007699733E+02  0.89999960570E+02 0.  0.
         12    1    1    2    0    0  0.10093096603E+01 -0.59001810582E+00 -0.16211528113E+00  0.11803002669E+01  0.00000000000E+00 0. -1.
         11    1    3    3    0    0  0.10969355924E+02  0.19767477201E+02 -0.29766670140E+02  0.37378263413E+02  0.51100000000E-03 0. -1.
        -11    1    3    3    0    0 -0.48353276782E+01  0.52445573224E+01 -0.55016824152E+01  0.90085673069E+01  0.51100000000E-03 0.  1.
        -12    1    3    3    0    0 -0.71433379057E+01 -0.24422016418E+02  0.35430467837E+02  0.43620869013E+02  0.00000000000E+00 0.  1.
</event>
<event>
 7    1  0.2090370E-015  0.9000770E+02  0.7816164E-02  0.1186339E+00
        -11   -1    0    0    0    0  0.00000000000E+00  0.00000000000E+00  0.45593999997E+02  0.45594000000E+02  0.51100000000E-03 0.  1.
         11   -1    0    0    0    0 -0.00000000000E+00 -0.00000000000E+00 -0.45593999997E+02  0.45594000000E+02  0.51100000000E-03 0. -1.
    9900012    2    1    2    0    0  0.85578283376E+00 -0.74251016929E+00  0.33078981135E+00  0.90007700246E+02  0.89999961089E+02 0.  0.
         12    1    1    2    0    0 -0.85578283376E+00  0.74251016929E+00 -0.33078981135E+00  0.11802997540E+01  0.00000000000E+00 0. -1.
         11    1    3    3    0    0  0.96282339671E+01 -0.31705638985E+02  0.15047767142E+02  0.36392110807E+02  0.51100000000E-03 0. -1.
        -11    1    3    3    0    0  0.34438435695E+01 -0.89579796051E+01 -0.46805963375E+01  0.10677707594E+02  0.51100000000E-03 0.  1.
        -12    1    3    3    0    0 -0.12216294703E+02  0.39921108421E+02 -0.10036380993E+02  0.42937881844E+02  0.00000000000E+00 0.  1.
</event>
<event>
 7    1  0.2090370E-015  0.9000773E+02  0.7816164E-02  0.1186339E+00
        -11   -1    0    0    0    0  0.00000000000E+00  0.00000000000E+00  0.45593999997E+02  0.45594000000E+02  0.51100000000E-03 0.  1.
         11   -1    0    0    0    0 -0.00000000000E+00 -0.00000000000E+00 -0.45593999997E+02  0.45594000000E+02  0.51100000000E-03 0. -1.
    9900012    2    1    2    0    0  0.21741038672E+00  0.10650927939E+01  0.45973656082E+00  0.90007725608E+02  0.89999986786E+02 0.  0.
         12    1    1    2    0    0 -0.21741038672E+00 -0.10650927939E+01 -0.45973656082E+00  0.11802743923E+01  0.00000000000E+00 0. -1.
         11    1    3    3    0    0 -0.79032483990E+01  0.29551526103E+02 -0.23479032759E+02  0.38561885455E+02  0.51100000000E-03 0. -1.
        -11    1    3    3    0    0 -0.11088234848E+02 -0.14534256649E+01  0.12242678107E+01  0.11249899117E+02  0.51100000000E-03 0.  1.
        -12    1    3    3    0    0  0.19208893634E+02 -0.27033007645E+02  0.22714501509E+02  0.40195941036E+02  0.00000000000E+00 0.  1.
</event>
<event>
 7    1  0.2090370E-015  0.9000776E+02  0.7816164E-02  0.1186339E+00
        -11   -1    0    0    0    0  0.00000000000E+00  0.00000000000E+00  0.45593999997E+02  0.45594000000E+02  0.51100000000E-03 0. -1.
         11   -1    0    0    0    0 -0.00000000000E+00 -0.00000000000E+00 -0.45593999997E+02  0.45594000000E+02  0.51100000000E-03 0.  1.
    9900012    2    1    2    0    0 -0.58528111544E+00  0.33045011845E+00 -0.97016285415E+00  0.90007759673E+02  0.90000021301E+02 0.  0.
         12    1    1    2    0    0  0.58528111544E+00 -0.33045011845E+00  0.97016285415E+00  0.11802403266E+01  0.00000000000E+00 0. -1.
         11    1    3    3    0    0 -0.35307557282E+02  0.38991586917E+01  0.88245496466E+01  0.36601908645E+02  0.51100000000E-03 0. -1.
        -11    1    3    3    0    0 -0.83670209808E+00  0.12498050757E+02  0.19033130813E+01  0.12669804422E+02  0.51100000000E-03 0.  1.
        -12    1    3    3    0    0  0.35558978265E+02 -0.16066759331E+02 -0.11698025582E+02  0.40736046607E+02  0.00000000000E+00 0.  1.
</event>
<event>
 7    1  0.2090370E-015  0.9000774E+02  0.7816164E-02  0.1186339E+00
        -11   -1    0    0    0    0  0.00000000000E+00  0.00000000000E+00  0.45593999997E+02  0.45594000000E+02  0.51100000000E-03 0.  1.
         11   -1    0    0    0    0 -0.00000000000E+00 -0.00000000000E+00 -0.45593999997E+02  0.45594000000E+02  0.51100000000E-03 0. -1.
    9900012    2    1    2    0    0 -0.67515583836E+00  0.85396013635E+00  0.45599813141E+00  0.90007738327E+02  0.89999999673E+02 0.  0.
         12    1    1    2    0    0  0.67515583836E+00 -0.85396013635E+00 -0.45599813141E+00  0.11802616728E+01  0.00000000000E+00 0. -1.
         11    1    3    3    0    0  0.58600203882E+01  0.11789674306E+01 -0.67172586692E+01  0.89917388442E+01  0.51100000000E-03 0. -1.
        -11    1    3    3    0    0  0.20527481009E+02 -0.32565798308E+02  0.13260329154E+01  0.38518398974E+02  0.51100000000E-03 0.  1.
         12    1    3    3    0    0 -0.27062657235E+02  0.32240791014E+02  0.58472238852E+01  0.42497600509E+02  0.00000000000E+00 0. -1.
</event>
<event>
 7    1  0.2090370E-015  0.9000776E+02  0.7816164E-02  0.1186339E+00
        -11   -1    0    0    0    0  0.00000000000E+00  0.00000000000E+00  0.45593999997E+02  0.45594000000E+02  0.51100000000E-03 0. -1.
         11   -1    0    0    0    0 -0.00000000000E+00 -0.00000000000E+00 -0.45593999997E+02  0.45594000000E+02  0.51100000000E-03 0.  1.
    9900012    2    1    2    0    0  0.63174506864E+00 -0.82581630618E+00  0.55848322455E+00  0.90007755146E+02  0.90000016714E+02 0.  0.
         12    1    1    2    0    0 -0.63174506864E+00  0.82581630618E+00 -0.55848322455E+00  0.11802448540E+01  0.00000000000E+00 0. -1.
         11    1    3    3    0    0 -0.67425562937E+01  0.60580149772E+01  0.39765827567E+01  0.98982231496E+01  0.51100000000E-03 0. -1.
        -11    1    3    3    0    0 -0.11959616240E+02  0.96582902563E+01 -0.35779888801E+02  0.38942463124E+02  0.51100000000E-03 0.  1.
         12    1    3    3    0    0  0.19333917603E+02 -0.16542121540E+02  0.32361789269E+02  0.41167068873E+02  0.00000000000E+00 0. -1.
</event>
<event>
 7    1  0.2090370E-015  0.9000773E+02  0.7816164E-02  0.1186339E+00
        -11   -1    0    0    0    0  0.00000000000E+00  0.00000000000E+00  0.45593999997E+02  0.45594000000E+02  0.51100000000E-03 0.  1.
         11   -1    0    0    0    0 -0.00000000000E+00 -0.00000000000E+00 -0.45593999997E+02  0.45594000000E+02  0.51100000000E-03 0. -1.
    9900012    2    1    2    0    0  0.26380034369E+00  0.28283538366E+00 -0.11151014370E+01  0.90007729823E+02  0.89999991057E+02 0.  0.
         12    1    1    2    0    0 -0.26380034369E+00 -0.28283538366E+00  0.11151014370E+01  0.11802701769E+01  0.00000000000E+00 0. -1.
         11    1    3    3    0    0 -0.51500197678E+01  0.72247848618E+01 -0.20115276371E+01  0.90976075759E+01  0.51100000000E-03 0. -1.
        -11    1    3    3    0    0  0.41244618431E+02  0.67439227512E+01  0.59841856226E+01  0.42218592130E+02  0.51100000000E-03 0.  1.
         12    1    3    3    0    0 -0.35830798319E+02 -0.13685872229E+02 -0.50877594225E+01  0.38691530117E+02  0.00000000000E+00 0. -1.
</event>
<event>
 7    1  0.2090370E-015  0.9000787E+02  0.7816164E-02  0.1186339E+00
        -11   -1    0    0    0    0  0.00000000000E+00  0.00000000000E+00  0.45593999997E+02  0.45594000000E+02  0.51100000000E-03 0.  1.
         11   -1    0    0    0    0 -0.00000000000E+00 -0.00000000000E+00 -0.45593999997E+02  0.45594000000E+02  0.51100000000E-03 0. -1.
    9900012    2    1    2    0    0  0.98628693379E+00 -0.58284278900E+00  0.28325857237E+00  0.90007871595E+02  0.90000134700E+02 0.  0.
         12    1    1    2    0    0 -0.98628693379E+00  0.58284278900E+00 -0.28325857237E+00  0.11801284046E+01  0.00000000000E+00 0. -1.
         11    1    3    3    0    0  0.32349448497E+02  0.65445922082E+01 -0.20762047122E+02  0.38992064656E+02  0.51100000000E-03 0. -1.
        -11    1    3    3    0    0 -0.90032988606E+00  0.88916295054E+01 -0.25413671091E+01  0.92914055023E+01  0.51100000000E-03 0.  1.
        -12    1    3    3    0    0 -0.30462831677E+02 -0.16019064503E+02  0.23586672803E+02  0.41724401437E+02  0.00000000000E+00 0.  1.
</event>
<event>
 7    1  0.2090370E-015  0.9000772E+02  0.7816164E-02  0.1186339E+00
        -11   -1    0    0    0    0  0.00000000000E+00  0.00000000000E+00  0.45593999997E+02  0.45594000000E+02  0.51100000000E-03 0.  1.
         11   -1    0    0    0    0 -0.00000000000E+00 -0.00000000000E+00 -0.45593999997E+02  0.45594000000E+02  0.51100000000E-03 0. -1.
    9900012    2    1    2    0    0  0.78188863348E+00 -0.79685002141E+00  0.38307380249E+00  0.90007718114E+02  0.89999979193E+02 0.  0.
         12    1    1    2    0    0 -0.78188863348E+00  0.79685002141E+00 -0.38307380249E+00  0.11802818858E+01  0.00000000000E+00 0. -1.
         11    1    3    3    0    0 -0.11809818321E+00  0.24049680244E+02  0.27563940507E+02  0.36581031745E+02  0.51100000000E-03 0. -1.
        -11    1    3    3    0    0  0.57614754622E+01  0.65198594798E+01  0.34089168591E+01  0.93447247980E+01  0.51100000000E-03 0.  1.
        -12    1    3    3    0    0 -0.48614886455E+01 -0.31366389745E+02 -0.30589783563E+02  0.44081961571E+02  0.00000000000E+00 0.  1.
</event>
<event>
 7    1  0.2090370E-015  0.9000762E+02  0.7816164E-02  0.1186339E+00
        -11   -1    0    0    0    0  0.00000000000E+00  0.00000000000E+00  0.45593999997E+02  0.45594000000E+02  0.51100000000E-03 0. -1.
         11   -1    0    0    0    0 -0.00000000000E+00 -0.00000000000E+00 -0.45593999997E+02  0.45594000000E+02  0.51100000000E-03 0.  1.
    9900012    2    1    2    0    0 -0.65522962298E+00 -0.93625157565E+00 -0.29565591097E+00  0.90007616465E+02  0.89999876202E+02 0.  0.
         12    1    1    2    0    0  0.65522962298E+00  0.93625157565E+00  0.29565591097E+00  0.11803835349E+01  0.00000000000E+00 0. -1.
         11    1    3    3    0    0 -0.71310083178E+01  0.16489512776E+02  0.22155877145E+02  0.28524344052E+02  0.51100000000E-03 0. -1.
        -11    1    3    3    0    0 -0.11388796633E+02 -0.61928200913E+01  0.14177120625E+02  0.19210581951E+02  0.51100000000E-03 0.  1.
        -12    1    3    3    0    0  0.17864575328E+02 -0.11232944261E+02 -0.36628653681E+02  0.42272690462E+02  0.00000000000E+00 0.  1.
</event>
<event>
 7    1  0.2090370E-015  0.9000778E+02  0.7816164E-02  0.1186339E+00
        -11   -1    0    0    0    0  0.00000000000E+00  0.00000000000E+00  0.45593999997E+02  0.45594000000E+02  0.51100000000E-03 0.  1.
         11   -1    0    0    0    0 -0.00000000000E+00 -0.00000000000E+00 -0.45593999997E+02  0.45594000000E+02  0.51100000000E-03 0. -1.
    9900012    2    1    2    0    0 -0.84454411942E+00  0.68694906380E+00  0.45580270026E+00  0.90007783966E+02  0.90000045914E+02 0.  0.
         12    1    1    2    0    0  0.84454411942E+00 -0.68694906380E+00 -0.45580270026E+00  0.11802160342E+01  0.00000000000E+00 0. -1.
         11    1    3    3    0    0  0.71146687112E+00  0.34437880952E+01  0.96515539589E+01  0.10272212792E+02  0.51100000000E-03 0. -1.
        -11    1    3    3    0    0 -0.96578320360E+01  0.33976414009E+02 -0.20009213215E+02  0.40596047127E+02  0.51100000000E-03 0.  1.
         12    1    3    3    0    0  0.81018210454E+01 -0.36733253040E+02  0.10813461956E+02  0.39139524048E+02  0.00000000000E+00 0. -1.
</event>
<event>
 7    1  0.2090370E-015  0.9000773E+02  0.7816164E-02  0.1186339E+00
        -11   -1    0    0    0    0  0.00000000000E+00  0.00000000000E+00  0.45593999997E+02  0.45594000000E+02  0.51100000000E-03 0. -1.
         11   -1    0    0    0    0 -0.00000000000E+00 -0.00000000000E+00 -0.45593999997E+02  0.45594000000E+02  0.51100000000E-03 0.  1.
    9900012    2    1    2    0    0 -0.83432165927E-01  0.10436943119E+01 -0.54477136589E+00  0.90007731139E+02  0.89999992390E+02 0.  0.
         12    1    1    2    0    0  0.83432165927E-01 -0.10436943119E+01  0.54477136589E+00  0.11802688610E+01  0.00000000000E+00 0. -1.
         11    1    3    3    0    0  0.46662486634E+01  0.37571120652E+02  0.15722488513E+00  0.37860107020E+02  0.51100000000E-03 0. -1.
        -11    1    3    3    0    0 -0.94276561493E+00  0.47955534555E+01 -0.86123381080E+01  0.99024495907E+01  0.51100000000E-03 0.  1.
        -12    1    3    3    0    0 -0.38069152144E+01 -0.41322979796E+02  0.79103418569E+01  0.42245174528E+02  0.00000000000E+00 0.  1.
</event>
<event>
 7    1  0.2090370E-015  0.9000778E+02  0.7816164E-02  0.1186339E+00
        -11   -1    0    0    0    0  0.00000000000E+00  0.00000000000E+00  0.45593999997E+02  0.45594000000E+02  0.51100000000E-03 0.  1.
         11   -1    0    0    0    0 -0.00000000000E+00 -0.00000000000E+00 -0.45593999997E+02  0.45594000000E+02  0.51100000000E-03 0. -1.
    9900012    2    1    2    0    0 -0.79399946344E+00 -0.47214315509E+00  0.73455319633E+00  0.90007778536E+02  0.90000040412E+02 0.  0.
         12    1    1    2    0    0  0.79399946344E+00  0.47214315509E+00 -0.73455319633E+00  0.11802214644E+01  0.00000000000E+00 0. -1.
         11    1    3    3    0    0  0.39592244884E+01 -0.72459008364E+01  0.69051623656E+01  0.10763819259E+02  0.51100000000E-03 0. -1.
        -11    1    3    3    0    0  0.70980004377E+01  0.39750162088E+02  0.84858907502E+01  0.41260966280E+02  0.51100000000E-03 0.  1.
         12    1    3    3    0    0 -0.11851224390E+02 -0.32976404407E+02 -0.14656499919E+02  0.37982992997E+02  0.00000000000E+00 0. -1.
</event>
<event>
 7    1  0.2090370E-015  0.9000785E+02  0.7816164E-02  0.1186339E+00
        -11   -1    0    0    0    0  0.00000000000E+00  0.00000000000E+00  0.45593999997E+02  0.45594000000E+02  0.51100000000E-03 0.  1.
         11   -1    0    0    0    0 -0.00000000000E+00 -0.00000000000E+00 -0.45593999997E+02  0.45594000000E+02  0.51100000000E-03 0. -1.
    9900012    2    1    2    0    0  0.79510347143E+00  0.65512249664E+00  0.57564988408E+00  0.90007852634E+02  0.90000115489E+02 0.  0.
         12    1    1    2    0    0 -0.79510347143E+00 -0.65512249664E+00 -0.57564988408E+00  0.11801473658E+01  0.00000000000E+00 0. -1.
         11    1    3    3    0    0 -0.24519500000E+02  0.22136047419E+02 -0.16097600698E+02  0.36747016533E+02  0.51100000000E-03 0. -1.
        -11    1    3    3    0    0  0.30466901137E+00  0.10163644188E+02  0.45824074194E+01  0.11153068833E+02  0.51100000000E-03 0.  1.
        -12    1    3    3    0    0  0.25009934460E+02 -0.31644569110E+02  0.12090843162E+02  0.42107767268E+02  0.00000000000E+00 0.  1.
</event>
<event>
 7    1  0.2090370E-015  0.9000771E+02  0.7816164E-02  0.1186339E+00
        -11   -1    0    0    0    0  0.00000000000E+00  0.00000000000E+00  0.45593999997E+02  0.45594000000E+02  0.51100000000E-03 0. -1.
         11   -1    0    0    0    0 -0.00000000000E+00 -0.00000000000E+00 -0.45593999997E+02  0.45594000000E+02  0.51100000000E-03 0.  1.
    9900012    2    1    2    0    0 -0.11485202401E+01 -0.27172291715E+00 -0.11914317204E-01  0.90007714426E+02  0.89999975456E+02 0.  0.
         12    1    1    2    0    0  0.11485202401E+01  0.27172291715E+00  0.11914317204E-01  0.11802855742E+01  0.00000000000E+00 0. -1.
         11    1    3    3    0    0 -0.15188741748E+01  0.67897604505E+01  0.15256770207E+02  0.16768329170E+02  0.51100000000E-03 0. -1.
        -11    1    3    3    0    0  0.29247791857E+02 -0.20820137571E+02 -0.19692054253E+02  0.40947386461E+02  0.51100000000E-03 0.  1.
         12    1    3    3    0    0 -0.28877437922E+02  0.13758654203E+02  0.44233697291E+01  0.32291998795E+02  0.00000000000E+00 0. -1.
</event>
<event>
 7    1  0.2090370E-015  0.9000772E+02  0.7816164E-02  0.1186339E+00
        -11   -1    0    0    0    0  0.00000000000E+00  0.00000000000E+00  0.45593999997E+02  0.45594000000E+02  0.51100000000E-03 0.  1.
         11   -1    0    0    0    0 -0.00000000000E+00 -0.00000000000E+00 -0.45593999997E+02  0.45594000000E+02  0.51100000000E-03 0. -1.
    9900012    2    1    2    0    0  0.54690936257E+00 -0.10309665614E+01 -0.17624315498E+00  0.90007718868E+02  0.89999979957E+02 0.  0.
         12    1    1    2    0    0 -0.54690936257E+00  0.10309665614E+01  0.17624315498E+00  0.11802811323E+01  0.00000000000E+00 0. -1.
         11    1    3    3    0    0  0.32753865404E+02  0.22942359619E+02  0.48019368874E+00  0.39992476168E+02  0.51100000000E-03 0. -1.
        -11    1    3    3    0    0 -0.66679125655E+01  0.70848820940E+01 -0.11892415925E+01  0.98015768167E+01  0.51100000000E-03 0.  1.
        -12    1    3    3    0    0 -0.25539043476E+02 -0.31058208274E+02  0.53280474876E+00  0.40213665883E+02  0.00000000000E+00 0.  1.
</event>
<event>
 7    1  0.2090370E-015  0.9000788E+02  0.7816164E-02  0.1186339E+00
        -11   -1    0    0    0    0  0.00000000000E+00  0.00000000000E+00  0.45593999997E+02  0.45594000000E+02  0.51100000000E-03 0.  1.
         11   -1    0    0    0    0 -0.00000000000E+00 -0.00000000000E+00 -0.45593999997E+02  0.45594000000E+02  0.51100000000E-03 0. -1.
    9900012    2    1    2    0    0 -0.97118887050E+00  0.45855360939E+00  0.48908537034E+00  0.90007879780E+02  0.90000142993E+02 0.  0.
         12    1    1    2    0    0  0.97118887050E+00 -0.45855360939E+00 -0.48908537034E+00  0.11801202203E+01  0.00000000000E+00 0. -1.
         11    1    3    3    0    0  0.28486925262E+02 -0.10443894532E+02 -0.17010475637E+02  0.34784136119E+02  0.51100000000E-03 0. -1.
        -11    1    3    3    0    0  0.94391813314E+01 -0.44811000052E+01  0.21520149350E+01  0.10668156823E+02  0.51100000000E-03 0.  1.
        -12    1    3    3    0    0 -0.38897295464E+02  0.15383548147E+02  0.15347546072E+02  0.44555586838E+02  0.00000000000E+00 0.  1.
</event>
<event>
 7    1  0.2090370E-015  0.9000776E+02  0.7816164E-02  0.1186339E+00
        -11   -1    0    0    0    0  0.00000000000E+00  0.00000000000E+00  0.45593999997E+02  0.45594000000E+02  0.51100000000E-03 0. -1.
         11   -1    0    0    0    0 -0.00000000000E+00 -0.00000000000E+00 -0.45593999997E+02  0.45594000000E+02  0.51100000000E-03 0.  1.
    9900012    2    1    2    0    0  0.46375836927E+00  0.73109416524E+00 -0.80211589147E+00  0.90007762563E+02  0.90000024229E+02 0.  0.
         12    1    1    2    0    0 -0.46375836927E+00 -0.73109416524E+00  0.80211589147E+00  0.11802374366E+01  0.00000000000E+00 0. -1.
         11    1    3    3    0    0 -0.29638619888E+01  0.21928855528E+01 -0.68315193456E+01  0.77629170914E+01  0.51100000000E-03 0. -1.
        -11    1    3    3    0    0 -0.37074788299E+02  0.12101691704E+02 -0.69236258256E+00  0.39006028198E+02  0.51100000000E-03 0.  1.
         12    1    3    3    0    0  0.40502408658E+02 -0.13563483092E+02  0.67217660367E+01  0.43238817274E+02  0.00000000000E+00 0. -1.
</event>
<event>
 7    1  0.2090370E-015  0.9000786E+02  0.7816164E-02  0.1186339E+00
        -11   -1    0    0    0    0  0.00000000000E+00  0.00000000000E+00  0.45593999997E+02  0.45594000000E+02  0.51100000000E-03 0.  1.
         11   -1    0    0    0    0 -0.00000000000E+00 -0.00000000000E+00 -0.45593999997E+02  0.45594000000E+02  0.51100000000E-03 0. -1.
    9900012    2    1    2    0    0  0.65899955893E+00  0.96867426569E+00  0.14188507084E+00  0.90007855253E+02  0.90000118142E+02 0.  0.
         12    1    1    2    0    0 -0.65899955893E+00 -0.96867426569E+00 -0.14188507084E+00  0.11801447475E+01  0.00000000000E+00 0. -1.
         11    1    3    3    0    0  0.79444003206E+01  0.82370301684E+01 -0.39660393852E+01  0.12111632058E+02  0.51100000000E-03 0. -1.
        -11    1    3    3    0    0  0.10069227538E+01 -0.37527424065E+02  0.20205195894E+02  0.42632984786E+02  0.51100000000E-03 0.  1.
         12    1    3    3    0    0 -0.82923235155E+01  0.30259068162E+02 -0.16097271438E+02  0.35263238409E+02  0.00000000000E+00 0. -1.
</event>
<event>
 7    1  0.2090370E-015  0.9000777E+02  0.7816164E-02  0.1186339E+00
        -11   -1    0    0    0    0  0.00000000000E+00  0.00000000000E+00  0.45593999997E+02  0.45594000000E+02  0.51100000000E-03 0.  1.
         11   -1    0    0    0    0 -0.00000000000E+00 -0.00000000000E+00 -0.45593999997E+02  0.45594000000E+02  0.51100000000E-03 0. -1.
    9900012    2    1    2    0    0 -0.30086061854E+00 -0.11350895547E+01 -0.11833827594E+00  0.90007767245E+02  0.90000028972E+02 0.  0.
         12    1    1    2    0    0  0.30086061854E+00  0.11350895547E+01  0.11833827594E+00  0.11802327553E+01  0.00000000000E+00 0. -1.
         11    1    3    3    0    0  0.31458774440E+02  0.63159077072E+01 -0.23785086654E+02  0.39940900426E+02  0.51100000000E-03 0. -1.
        -11    1    3    3    0    0  0.23228023413E+01  0.67411755000E+01  0.49010139379E+01  0.86520977641E+01  0.51100000000E-03 0.  1.
        -12    1    3    3    0    0 -0.34082437400E+02 -0.14192172762E+02  0.18765734440E+02  0.41414769055E+02  0.00000000000E+00 0.  1.
</event>
<event>
 7    1  0.2090370E-015  0.9000767E+02  0.7816164E-02  0.1186339E+00
        -11   -1    0    0    0    0  0.00000000000E+00  0.00000000000E+00  0.45593999997E+02  0.45594000000E+02  0.51100000000E-03 0.  1.
         11   -1    0    0    0    0 -0.00000000000E+00 -0.00000000000E+00 -0.45593999997E+02  0.45594000000E+02  0.51100000000E-03 0. -1.
    9900012    2    1    2    0    0  0.39480854918E+00 -0.71423124282E+00  0.85274637481E+00  0.90007671046E+02  0.89999931504E+02 0.  0.
         12    1    1    2    0    0 -0.39480854918E+00  0.71423124282E+00 -0.85274637481E+00  0.11803289535E+01  0.00000000000E+00 0. -1.
         11    1    3    3    0    0 -0.96314405440E+01 -0.34143042165E+01  0.61401468182E+01  0.11921557090E+02  0.51100000000E-03 0. -1.
        -11    1    3    3    0    0 -0.27894729250E+02  0.14051146152E+02 -0.18565565034E+02  0.36334980850E+02  0.51100000000E-03 0.  1.
         12    1    3    3    0    0  0.37920978343E+02 -0.11351073179E+02  0.13278164590E+02  0.41751133106E+02  0.00000000000E+00 0. -1.
</event>
<event>
 7    1  0.2090370E-015  0.9000778E+02  0.7816164E-02  0.1186339E+00
        -11   -1    0    0    0    0  0.00000000000E+00  0.00000000000E+00  0.45593999997E+02  0.45594000000E+02  0.51100000000E-03 0. -1.
         11   -1    0    0    0    0 -0.00000000000E+00 -0.00000000000E+00 -0.45593999997E+02  0.45594000000E+02  0.51100000000E-03 0.  1.
    9900012    2    1    2    0    0 -0.65490475896E+00 -0.29254627554E+00 -0.93725113044E+00  0.90007778306E+02  0.90000040179E+02 0.  0.
         12    1    1    2    0    0  0.65490475896E+00  0.29254627554E+00  0.93725113044E+00  0.11802216945E+01  0.00000000000E+00 0. -1.
         11    1    3    3    0    0 -0.36793491320E+02  0.49151561780E+01  0.19734216204E+02  0.42039969710E+02  0.51100000000E-03 0. -1.
        -11    1    3    3    0    0 -0.28175733998E+01  0.22629246322E+01 -0.15204326048E+01  0.39206202725E+01  0.51100000000E-03 0.  1.
        -12    1    3    3    0    0  0.38956159961E+02 -0.74706270858E+01 -0.19151034730E+02  0.44047188323E+02  0.00000000000E+00 0.  1.
</event>
<event>
 7    1  0.2191312E-015  0.9000772E+02  0.7816164E-02  0.1186339E+00
        -11   -1    0    0    0    0  0.00000000000E+00  0.00000000000E+00  0.45593999997E+02  0.45594000000E+02  0.51100000000E-03 0. -1.
         11   -1    0    0    0    0 -0.00000000000E+00 -0.00000000000E+00 -0.45593999997E+02  0.45594000000E+02  0.51100000000E-03 0.  1.
    9900012    2    1    2    0    0 -0.66460781926E+00  0.35874512567E+00 -0.90700428792E+00  0.90007721051E+02  0.89999982169E+02 0.  0.
         12    1    1    2    0    0  0.66460781926E+00 -0.35874512567E+00  0.90700428792E+00  0.11802789488E+01  0.00000000000E+00 0. -1.
         11    1    3    3    0    0  0.79794712641E+01 -0.34309558311E+02  0.10039965706E+02  0.36628113039E+02  0.51100000000E-03 0. -1.
        -11    1    3    3    0    0  0.76483981556E+01 -0.28399596800E+01  0.49063333789E+01  0.95202664257E+01  0.51100000000E-03 0.  1.
        -12    1    3    3    0    0 -0.16292477239E+02  0.37508263116E+02 -0.15853303373E+02  0.43859341587E+02  0.00000000000E+00 0.  1.
</event>
<event>
 7    1  0.2090370E-015  0.9000775E+02  0.7816164E-02  0.1186339E+00
        -11   -1    0    0    0    0  0.00000000000E+00  0.00000000000E+00  0.45593999997E+02  0.45594000000E+02  0.51100000000E-03 0.  1.
         11   -1    0    0    0    0 -0.00000000000E+00 -0.00000000000E+00 -0.45593999997E+02  0.45594000000E+02  0.51100000000E-03 0. -1.
    9900012    2    1    2    0    0  0.47681613571E+00  0.48693981481E+00  0.96360159264E+00  0.90007749162E+02  0.90000010651E+02 0.  0.
         12    1    1    2    0    0 -0.47681613571E+00 -0.48693981481E+00 -0.96360159264E+00  0.11802508377E+01  0.00000000000E+00 0. -1.
         11    1    3    3    0    0  0.19340660679E+01  0.95919190530E+01 -0.19724262547E+00  0.97869519049E+01  0.51100000000E-03 0. -1.
        -11    1    3    3    0    0  0.15239326687E+02  0.22855461034E+01  0.36438704831E+02  0.39563114247E+02  0.51100000000E-03 0.  1.
         12    1    3    3    0    0 -0.16696576620E+02 -0.11390525342E+02 -0.35277860613E+02  0.40657683011E+02  0.00000000000E+00 0. -1.
</event>
<event>
 7    1  0.2090370E-015  0.9000776E+02  0.7816164E-02  0.1186339E+00
        -11   -1    0    0    0    0  0.00000000000E+00  0.00000000000E+00  0.45593999997E+02  0.45594000000E+02  0.51100000000E-03 0.  1.
         11   -1    0    0    0    0 -0.00000000000E+00 -0.00000000000E+00 -0.45593999997E+02  0.45594000000E+02  0.51100000000E-03 0. -1.
    9900012    2    1    2    0    0  0.26541185997E+00 -0.58133979988E+00  0.99225141209E+00  0.90007761768E+02  0.90000023424E+02 0.  0.
         12    1    1    2    0    0 -0.26541185997E+00  0.58133979988E+00 -0.99225141209E+00  0.11802382315E+01  0.00000000000E+00 0. -1.
         11    1    3    3    0    0  0.13629291787E+02 -0.35414204731E+02  0.10905300991E+02  0.39482262870E+02  0.51100000000E-03 0. -1.
        -11    1    3    3    0    0  0.82958231110E+01  0.30614002351E+01  0.39041395938E+01  0.96661863585E+01  0.51100000000E-03 0.  1.
        -12    1    3    3    0    0 -0.21659703038E+02  0.31771464696E+02 -0.13817189173E+02  0.40859312540E+02  0.00000000000E+00 0.  1.
</event>
<event>
 7    1  0.2090370E-015  0.9000778E+02  0.7816164E-02  0.1186339E+00
        -11   -1    0    0    0    0  0.00000000000E+00  0.00000000000E+00  0.45593999997E+02  0.45594000000E+02  0.51100000000E-03 0.  1.
         11   -1    0    0    0    0 -0.00000000000E+00 -0.00000000000E+00 -0.45593999997E+02  0.45594000000E+02  0.51100000000E-03 0. -1.
    9900012    2    1    2    0    0 -0.13642845492E+00  0.98837954769E+00 -0.63040229576E+00  0.90007782262E+02  0.90000044188E+02 0.  0.
         12    1    1    2    0    0  0.13642845492E+00 -0.98837954769E+00  0.63040229576E+00  0.11802177376E+01  0.00000000000E+00 0. -1.
         11    1    3    3    0    0 -0.50376611798E+01 -0.86092255362E+00 -0.86441885579E+01  0.10041972610E+02  0.51100000000E-03 0. -1.
        -11    1    3    3    0    0 -0.32406454207E+02  0.18920220304E+02  0.10177410395E+02  0.38881006844E+02  0.51100000000E-03 0.  1.
         12    1    3    3    0    0  0.37307686931E+02 -0.17070918203E+02 -0.21636241328E+01  0.41084802809E+02  0.00000000000E+00 0. -1.
</event>
<event>
 7    1  0.2090370E-015  0.9000775E+02  0.7816164E-02  0.1186339E+00
        -11   -1    0    0    0    0  0.00000000000E+00  0.00000000000E+00  0.45593999997E+02  0.45594000000E+02  0.51100000000E-03 0.  1.
         11   -1    0    0    0    0 -0.00000000000E+00 -0.00000000000E+00 -0.45593999997E+02  0.45594000000E+02  0.51100000000E-03 0. -1.
    9900012    2    1    2    0    0 -0.17184929049E-01 -0.70850871811E+00  0.94377512718E+00  0.90007749427E+02  0.90000010919E+02 0.  0.
         12    1    1    2    0    0  0.17184929049E-01  0.70850871811E+00 -0.94377512718E+00  0.11802505734E+01  0.00000000000E+00 0. -1.
         11    1    3    3    0    0  0.58076316265E+01 -0.30104714452E+01 -0.61976570388E+01  0.90112416715E+01  0.51100000000E-03 0. -1.
        -11    1    3    3    0    0  0.22832470635E+02  0.30393067777E+02 -0.65942531296E+01  0.38581659617E+02  0.51100000000E-03 0.  1.
         12    1    3    3    0    0 -0.28657287191E+02 -0.28091105049E+02  0.13735685296E+02  0.42414848138E+02  0.00000000000E+00 0. -1.
</event>
<event>
 7    1  0.2090370E-015  0.9000775E+02  0.7816164E-02  0.1186339E+00
        -11   -1    0    0    0    0  0.00000000000E+00  0.00000000000E+00  0.45593999997E+02  0.45594000000E+02  0.51100000000E-03 0.  1.
         11   -1    0    0    0    0 -0.00000000000E+00 -0.00000000000E+00 -0.45593999997E+02  0.45594000000E+02  0.51100000000E-03 0. -1.
    9900012    2    1    2    0    0 -0.40877011922E+00 -0.58021090380E-01  0.11056847877E+01  0.90007746507E+02  0.90000007961E+02 0.  0.
         12    1    1    2    0    0  0.40877011922E+00  0.58021090380E-01 -0.11056847877E+01  0.11802534927E+01  0.00000000000E+00 0. -1.
         11    1    3    3    0    0 -0.45156114919E+01 -0.13747221791E+01 -0.89886987275E+01  0.10152699803E+02  0.51100000000E-03 0. -1.
        -11    1    3    3    0    0 -0.21819139414E+02 -0.20707018006E+02 -0.18586843551E+02  0.35359951823E+02  0.51100000000E-03 0.  1.
         12    1    3    3    0    0  0.25925980786E+02  0.22023719095E+02  0.28681227066E+02  0.44495094882E+02  0.00000000000E+00 0. -1.
</event>
<event>
 7    1  0.2090370E-015  0.9000764E+02  0.7816164E-02  0.1186339E+00
        -11   -1    0    0    0    0  0.00000000000E+00  0.00000000000E+00  0.45593999997E+02  0.45594000000E+02  0.51100000000E-03 0.  1.
         11   -1    0    0    0    0 -0.00000000000E+00 -0.00000000000E+00 -0.45593999997E+02  0.45594000000E+02  0.51100000000E-03 0. -1.
    9900012    2    1    2    0    0  0.72967636593E+00  0.22129983758E-01  0.92753514093E+00  0.90007644641E+02  0.89999904751E+02 0.  0.
         12    1    1    2    0    0 -0.72967636593E+00 -0.22129983758E-01 -0.92753514093E+00  0.11803553587E+01  0.00000000000E+00 0. -1.
         11    1    3    3    0    0 -0.52912576710E+01 -0.72804044675E+01  0.40888752452E+01  0.98853729309E+01  0.51100000000E-03 0. -1.
        -11    1    3    3    0    0 -0.59937462549E+01 -0.35284436034E+02 -0.23187410203E+01  0.35864926887E+02  0.51100000000E-03 0.  1.
         12    1    3    3    0    0  0.12014680292E+02  0.42586970485E+02 -0.84259908395E+00  0.44257344824E+02  0.00000000000E+00 0. -1.
</event>
<event>
 7    1  0.2090370E-015  0.9000779E+02  0.7816164E-02  0.1186339E+00
        -11   -1    0    0    0    0  0.00000000000E+00  0.00000000000E+00  0.45593999997E+02  0.45594000000E+02  0.51100000000E-03 0. -1.
         11   -1    0    0    0    0 -0.00000000000E+00 -0.00000000000E+00 -0.45593999997E+02  0.45594000000E+02  0.51100000000E-03 0.  1.
    9900012    2    1    2    0    0  0.10646501521E+01 -0.38713803491E+00  0.33095528257E+00  0.90007793576E+02  0.90000055651E+02 0.  0.
         12    1    1    2    0    0 -0.10646501521E+01  0.38713803491E+00 -0.33095528257E+00  0.11802064241E+01  0.00000000000E+00 0. -1.
         11    1    3    3    0    0  0.15896258706E+02  0.22849350284E+02  0.24200886191E+02  0.36884505445E+02  0.51100000000E-03 0. -1.
        -11    1    3    3    0    0  0.72925996546E+01  0.68347715189E+01 -0.66883895313E+01  0.12026249050E+02  0.51100000000E-03 0.  1.
        -12    1    3    3    0    0 -0.22124208208E+02 -0.30071259837E+02 -0.17181541378E+02  0.41097039080E+02  0.00000000000E+00 0.  1.
</event>
<event>
 7    1  0.2090370E-015  0.9000773E+02  0.7816164E-02  0.1186339E+00
        -11   -1    0    0    0    0  0.00000000000E+00  0.00000000000E+00  0.45593999997E+02  0.45594000000E+02  0.51100000000E-03 0. -1.
         11   -1    0    0    0    0 -0.00000000000E+00 -0.00000000000E+00 -0.45593999997E+02  0.45594000000E+02  0.51100000000E-03 0.  1.
    9900012    2    1    2    0    0  0.16364715591E-01 -0.51246782173E+00 -0.10630873884E+01  0.90007726359E+02  0.89999987547E+02 0.  0.
         12    1    1    2    0    0 -0.16364715591E-01  0.51246782173E+00  0.10630873884E+01  0.11802736410E+01  0.00000000000E+00 0. -1.
         11    1    3    3    0    0  0.36078362314E+02 -0.17144360163E+02  0.19019784980E+01  0.39989934173E+02  0.51100000000E-03 0. -1.
        -11    1    3    3    0    0  0.21821864901E+01  0.24053953795E+01 -0.82558305739E+01  0.88716742239E+01  0.51100000000E-03 0.  1.
        -12    1    3    3    0    0 -0.38244184089E+02  0.14226496962E+02  0.52907646874E+01  0.41146117962E+02  0.00000000000E+00 0.  1.
</event>
<event>
 7    1  0.2090370E-015  0.9000762E+02  0.7816164E-02  0.1186339E+00
        -11   -1    0    0    0    0  0.00000000000E+00  0.00000000000E+00  0.45593999997E+02  0.45594000000E+02  0.51100000000E-03 0.  1.
         11   -1    0    0    0    0 -0.00000000000E+00 -0.00000000000E+00 -0.45593999997E+02  0.45594000000E+02  0.51100000000E-03 0. -1.
    9900012    2    1    2    0    0  0.37923242033E+00 -0.32278127352E+00  0.10701778881E+01  0.90007624767E+02  0.89999884614E+02 0.  0.
         12    1    1    2    0    0 -0.37923242033E+00  0.32278127352E+00 -0.10701778881E+01  0.11803752333E+01  0.00000000000E+00 0. -1.
         11    1    3    3    0    0  0.66385836428E+01  0.36790507127E+01  0.29089047162E+01  0.81282183680E+01  0.51100000000E-03 0. -1.
        -11    1    3    3    0    0  0.92766858661E+01 -0.32567587827E+02  0.23021738579E+02  0.40947589978E+02  0.51100000000E-03 0.  1.
         12    1    3    3    0    0 -0.15536037089E+02  0.28565755841E+02 -0.24860465407E+02  0.40931816420E+02  0.00000000000E+00 0. -1.
</event>
<event>
 7    1  0.2090370E-015  0.9000775E+02  0.7816164E-02  0.1186339E+00
        -11   -1    0    0    0    0  0.00000000000E+00  0.00000000000E+00  0.45593999997E+02  0.45594000000E+02  0.51100000000E-03 0. -1.
         11   -1    0    0    0    0 -0.00000000000E+00 -0.00000000000E+00 -0.45593999997E+02  0.45594000000E+02  0.51100000000E-03 0.  1.
    9900012    2    1    2    0    0 -0.72880030066E+00  0.92375465139E-01 -0.92374058417E+00  0.90007754360E+02  0.90000015917E+02 0.  0.
         12    1    1    2    0    0  0.72880030066E+00 -0.92375465139E-01  0.92374058417E+00  0.11802456404E+01  0.00000000000E+00 0. -1.
         11    1    3    3    0    0 -0.81888971968E+01  0.36416499928E+02  0.56927748339E+01  0.37757478596E+02  0.51100000000E-03 0. -1.
        -11    1    3    3    0    0  0.41563726810E+01  0.68130603791E+01 -0.39496188245E+01  0.89046456815E+01  0.51100000000E-03 0.  1.
        -12    1    3    3    0    0  0.33037242151E+01 -0.43137184842E+02 -0.26668965936E+01  0.43345630083E+02  0.00000000000E+00 0.  1.
</event>
<event>
 7    1  0.2090370E-015  0.9000775E+02  0.7816164E-02  0.1186339E+00
        -11   -1    0    0    0    0  0.00000000000E+00  0.00000000000E+00  0.45593999997E+02  0.45594000000E+02  0.51100000000E-03 0.  1.
         11   -1    0    0    0    0 -0.00000000000E+00 -0.00000000000E+00 -0.45593999997E+02  0.45594000000E+02  0.51100000000E-03 0. -1.
    9900012    2    1    2    0    0 -0.47274494028E+00 -0.78687304132E+00 -0.74185004225E+00  0.90007746448E+02  0.90000007901E+02 0.  0.
         12    1    1    2    0    0  0.47274494028E+00  0.78687304132E+00  0.74185004225E+00  0.11802535520E+01  0.00000000000E+00 0. -1.
         11    1    3    3    0    0 -0.64160859419E+01  0.71812359210E+01 -0.45101425879E-01  0.96300748993E+01  0.51100000000E-03 0. -1.
        -11    1    3    3    0    0  0.40736441964E+02  0.84590302478E+01 -0.37883393918E+01  0.41777558716E+02  0.51100000000E-03 0.  1.
         12    1    3    3    0    0 -0.34793100962E+02 -0.16427139210E+02  0.30915907754E+01  0.38600112833E+02  0.00000000000E+00 0. -1.
</event>
<event>
 7    1  0.2090370E-015  0.9000732E+02  0.7816164E-02  0.1186340E+00
        -11   -1    0    0    0    0  0.00000000000E+00  0.00000000000E+00  0.45593999997E+02  0.45594000000E+02  0.51100000000E-03 0.  1.
         11   -1    0    0    0    0 -0.00000000000E+00 -0.00000000000E+00 -0.45593999997E+02  0.45594000000E+02  0.51100000000E-03 0. -1.
    9900012    2    1    2    0    0  0.11288435822E+00 -0.90015840062E+00  0.75563794867E+00  0.90007315142E+02  0.89999570901E+02 0.  0.
         12    1    1    2    0    0 -0.11288435822E+00  0.90015840062E+00 -0.75563794867E+00  0.11806848580E+01  0.00000000000E+00 0. -1.
         11    1    3    3    0    0  0.35798925390E+02  0.12938243832E+01  0.84067657048E+01  0.36795526229E+02  0.51100000000E-03 0. -1.
        -11    1    3    3    0    0  0.78160512304E+01  0.31445912935E+00 -0.55416219753E+01  0.95864026495E+01  0.51100000000E-03 0.  1.
        -12    1    3    3    0    0 -0.43502092262E+02 -0.25084419132E+01 -0.21095057808E+01  0.43625386263E+02  0.00000000000E+00 0.  1.
</event>
<event>
 7    1  0.2090370E-015  0.9000775E+02  0.7816164E-02  0.1186339E+00
        -11   -1    0    0    0    0  0.00000000000E+00  0.00000000000E+00  0.45593999997E+02  0.45594000000E+02  0.51100000000E-03 0.  1.
         11   -1    0    0    0    0 -0.00000000000E+00 -0.00000000000E+00 -0.45593999997E+02  0.45594000000E+02  0.51100000000E-03 0. -1.
    9900012    2    1    2    0    0 -0.99785595709E+00 -0.41799897393E+00  0.47176493485E+00  0.90007745025E+02  0.90000006459E+02 0.  0.
         12    1    1    2    0    0  0.99785595709E+00  0.41799897393E+00 -0.47176493485E+00  0.11802549754E+01  0.00000000000E+00 0. -1.
         11    1    3    3    0    0  0.40304781118E+02 -0.13848800012E+02 -0.24257602785E+00  0.42618346826E+02  0.51100000000E-03 0. -1.
        -11    1    3    3    0    0 -0.63986611295E+01  0.81744548622E+01  0.55346746354E+01  0.11764233937E+02  0.51100000000E-03 0.  1.
        -12    1    3    3    0    0 -0.34903975946E+02  0.52563461754E+01 -0.48203336727E+01  0.35625164262E+02  0.00000000000E+00 0.  1.
</event>
<event>
 7    1  0.2090370E-015  0.9000780E+02  0.7816164E-02  0.1186339E+00
        -11   -1    0    0    0    0  0.00000000000E+00  0.00000000000E+00  0.45593999997E+02  0.45594000000E+02  0.51100000000E-03 0.  1.
         11   -1    0    0    0    0 -0.00000000000E+00 -0.00000000000E+00 -0.45593999997E+02  0.45594000000E+02  0.51100000000E-03 0. -1.
    9900012    2    1    2    0    0 -0.10683715681E+01  0.17769102233E+00 -0.46892083611E+00  0.90007797197E+02  0.90000059319E+02 0.  0.
         12    1    1    2    0    0  0.10683715681E+01 -0.17769102233E+00  0.46892083611E+00  0.11802028035E+01  0.00000000000E+00 0. -1.
         11    1    3    3    0    0 -0.27126808278E+01  0.10712656644E+02 -0.37512285003E+02  0.39106152663E+02  0.51100000000E-03 0. -1.
        -11    1    3    3    0    0  0.63836198872E+01  0.61487546978E+01 -0.11665251358E+01  0.89397185835E+01  0.51100000000E-03 0.  1.
        -12    1    3    3    0    0 -0.47393106275E+01 -0.16683720319E+02  0.38209889303E+02  0.41961925950E+02  0.00000000000E+00 0.  1.
</event>
<event>
 7    1  0.2090370E-015  0.9000845E+02  0.7816164E-02  0.1186338E+00
        -11   -1    0    0    0    0  0.00000000000E+00  0.00000000000E+00  0.45593999997E+02  0.45594000000E+02  0.51100000000E-03 0.  1.
         11   -1    0    0    0    0 -0.00000000000E+00 -0.00000000000E+00 -0.45593999997E+02  0.45594000000E+02  0.51100000000E-03 0. -1.
    9900012    2    1    2    0    0 -0.58263284051E+00 -0.73936816955E+00  0.71078765730E+00  0.90008446944E+02  0.90000717641E+02 0.  0.
         12    1    1    2    0    0  0.58263284051E+00  0.73936816955E+00 -0.71078765730E+00  0.11795530555E+01  0.00000000000E+00 0. -1.
         11    1    3    3    0    0 -0.52861073254E+01  0.76889632058E+01  0.22713205605E+01  0.96032277483E+01  0.51100000000E-03 0. -1.
        -11    1    3    3    0    0  0.82297049669E+01  0.13661137263E+01  0.38305031024E+02  0.39202929897E+02  0.51100000000E-03 0.  1.
         12    1    3    3    0    0 -0.35262304820E+01 -0.97944451017E+01 -0.39865563927E+02  0.41202289299E+02  0.00000000000E+00 0. -1.
</event>
<event>
 7    1  0.2090370E-015  0.9000773E+02  0.7816164E-02  0.1186339E+00
        -11   -1    0    0    0    0  0.00000000000E+00  0.00000000000E+00  0.45593999997E+02  0.45594000000E+02  0.51100000000E-03 0. -1.
         11   -1    0    0    0    0 -0.00000000000E+00 -0.00000000000E+00 -0.45593999997E+02  0.45594000000E+02  0.51100000000E-03 0.  1.
    9900012    2    1    2    0    0  0.10711088512E+01  0.49460883488E+00  0.33590844356E-01  0.90007728669E+02  0.89999989887E+02 0.  0.
         12    1    1    2    0    0 -0.10711088512E+01 -0.49460883488E+00 -0.33590844356E-01  0.11802713313E+01  0.00000000000E+00 0. -1.
         11    1    3    3    0    0 -0.24141072364E+02  0.37089277111E+02 -0.22866514809E+01  0.44312917155E+02  0.51100000000E-03 0. -1.
        -11    1    3    3    0    0  0.61241467986E+01 -0.46329508757E+01  0.35206080542E+01  0.84477268635E+01  0.51100000000E-03 0.  1.
        -12    1    3    3    0    0  0.19088034417E+02 -0.31961717400E+02 -0.12003657289E+01  0.37247084650E+02  0.00000000000E+00 0.  1.
</event>
<event>
 7    1  0.2090370E-015  0.9000777E+02  0.7816164E-02  0.1186339E+00
        -11   -1    0    0    0    0  0.00000000000E+00  0.00000000000E+00  0.45593999997E+02  0.45594000000E+02  0.51100000000E-03 0.  1.
         11   -1    0    0    0    0 -0.00000000000E+00 -0.00000000000E+00 -0.45593999997E+02  0.45594000000E+02  0.51100000000E-03 0. -1.
    9900012    2    1    2    0    0  0.65110323387E+00  0.96703267182E+00  0.18397374174E+00  0.90007773773E+02  0.90000035587E+02 0.  0.
         12    1    1    2    0    0 -0.65110323387E+00 -0.96703267182E+00 -0.18397374174E+00  0.11802262271E+01  0.00000000000E+00 0. -1.
         11    1    3    3    0    0 -0.80081253811E+00  0.44001393911E+01 -0.13159664185E+02  0.13898895248E+02  0.51100000000E-03 0. -1.
        -11    1    3    3    0    0  0.24873179792E+02  0.16917723902E+02  0.28623144346E+02  0.41523112209E+02  0.51100000000E-03 0.  1.
         12    1    3    3    0    0 -0.23421264020E+02 -0.20350830621E+02 -0.15279506420E+02  0.34585766316E+02  0.00000000000E+00 0. -1.
</event>
<event>
 7    1  0.2168524E-015  0.9000778E+02  0.7816164E-02  0.1186339E+00
        -11   -1    0    0    0    0  0.00000000000E+00  0.00000000000E+00  0.45593999997E+02  0.45594000000E+02  0.51100000000E-03 0.  1.
         11   -1    0    0    0    0 -0.00000000000E+00 -0.00000000000E+00 -0.45593999997E+02  0.45594000000E+02  0.51100000000E-03 0. -1.
    9900012    2    1    2    0    0  0.52932602856E+00 -0.26313528840E+00  0.10215121143E+01  0.90007782552E+02  0.90000044482E+02 0.  0.
         12    1    1    2    0    0 -0.52932602856E+00  0.26313528840E+00 -0.10215121143E+01  0.11802174478E+01  0.00000000000E+00 0. -1.
         11    1    3    3    0    0 -0.57395344640E+01 -0.33178076540E+02 -0.19092395153E+02  0.38707190181E+02  0.51100000000E-03 0. -1.
        -11    1    3    3    0    0 -0.25923596676E+01  0.34395151659E+01 -0.83388216480E+01  0.93854429816E+01  0.51100000000E-03 0.  1.
        -12    1    3    3    0    0  0.88612201602E+01  0.29475426086E+02  0.28452728915E+02  0.41915149390E+02  0.00000000000E+00 0.  1.
</event>
<event>
 7    1  0.2090370E-015  0.9000779E+02  0.7816164E-02  0.1186339E+00
        -11   -1    0    0    0    0  0.00000000000E+00  0.00000000000E+00  0.45593999997E+02  0.45594000000E+02  0.51100000000E-03 0.  1.
         11   -1    0    0    0    0 -0.00000000000E+00 -0.00000000000E+00 -0.45593999997E+02  0.45594000000E+02  0.51100000000E-03 0. -1.
    9900012    2    1    2    0    0  0.16973475304E+00 -0.11563381952E+01  0.16424108498E+00  0.90007786866E+02  0.90000048852E+02 0.  0.
         12    1    1    2    0    0 -0.16973475304E+00  0.11563381952E+01 -0.16424108498E+00  0.11802131342E+01  0.00000000000E+00 0. -1.
         11    1    3    3    0    0 -0.87573955144E+01  0.23480020605E+01  0.37907620288E+01  0.98272563257E+01  0.51100000000E-03 0. -1.
        -11    1    3    3    0    0  0.34516392857E+02 -0.85428020494E+01  0.23443719646E+02  0.42590713000E+02  0.51100000000E-03 0.  1.
         12    1    3    3    0    0 -0.25589262590E+02  0.50384617936E+01 -0.27070240590E+02  0.37589817540E+02  0.00000000000E+00 0. -1.
</event>
<event>
 7    1  0.2090370E-015  0.9000732E+02  0.7816164E-02  0.1186340E+00
        -11   -1    0    0    0    0  0.00000000000E+00  0.00000000000E+00  0.45593999997E+02  0.45594000000E+02  0.51100000000E-03 0.  1.
         11   -1    0    0    0    0 -0.00000000000E+00 -0.00000000000E+00 -0.45593999997E+02  0.45594000000E+02  0.51100000000E-03 0. -1.
    9900012    2    1    2    0    0 -0.43873130026E-01 -0.11262609978E+01  0.35159409311E+00  0.90007319225E+02  0.89999575038E+02 0.  0.
         12    1    1    2    0    0  0.43873130026E-01  0.11262609978E+01 -0.35159409311E+00  0.11806807753E+01  0.00000000000E+00 0. -1.
         11    1    3    3    0    0 -0.41937779384E+01 -0.59142286391E+01 -0.65849538291E+01  0.97942580620E+01  0.51100000000E-03 0. -1.
        -11    1    3    3    0    0  0.13378054446E+02 -0.19713803097E+01  0.41583337704E+02  0.43726795629E+02  0.51100000000E-03 0.  1.
         12    1    3    3    0    0 -0.92281496378E+01  0.67593479510E+01 -0.34646789782E+02  0.36486265534E+02  0.00000000000E+00 0. -1.
</event>
<event>
 7    1  0.2090370E-015  0.9000770E+02  0.7816164E-02  0.1186339E+00
        -11   -1    0    0    0    0  0.00000000000E+00  0.00000000000E+00  0.45593999997E+02  0.45594000000E+02  0.51100000000E-03 0.  1.
         11   -1    0    0    0    0 -0.00000000000E+00 -0.00000000000E+00 -0.45593999997E+02  0.45594000000E+02  0.51100000000E-03 0. -1.
    9900012    2    1    2    0    0 -0.40476867827E+00  0.10649489063E+01  0.30846507263E+00  0.90007701497E+02  0.89999962356E+02 0.  0.
         12    1    1    2    0    0  0.40476867827E+00 -0.10649489063E+01 -0.30846507263E+00  0.11802985033E+01  0.00000000000E+00 0. -1.
         11    1    3    3    0    0  0.18651430374E+02  0.22673235000E+01 -0.34650823097E+01  0.19105585741E+02  0.51100000000E-03 0. -1.
        -11    1    3    3    0    0  0.15144987090E+02 -0.19988937268E+01  0.25964249743E+02  0.30124881329E+02  0.51100000000E-03 0.  1.
        -12    1    3    3    0    0 -0.34201186142E+02  0.79651913311E+00 -0.22190702361E+02  0.40777234427E+02  0.00000000000E+00 0.  1.
</event>
<event>
 7    1  0.2090370E-015  0.9000772E+02  0.7816164E-02  0.1186339E+00
        -11   -1    0    0    0    0  0.00000000000E+00  0.00000000000E+00  0.45593999997E+02  0.45594000000E+02  0.51100000000E-03 0.  1.
         11   -1    0    0    0    0 -0.00000000000E+00 -0.00000000000E+00 -0.45593999997E+02  0.45594000000E+02  0.51100000000E-03 0. -1.
    9900012    2    1    2    0    0 -0.40041517652E+00  0.78135367891E+00  0.78880670645E+00  0.90007719565E+02  0.89999980663E+02 0.  0.
         12    1    1    2    0    0  0.40041517652E+00 -0.78135367891E+00 -0.78880670645E+00  0.11802804350E+01  0.00000000000E+00 0. -1.
         11    1    3    3    0    0 -0.34655109951E+00  0.14217734059E+02 -0.33794740123E+02  0.36665358579E+02  0.51100000000E-03 0. -1.
        -11    1    3    3    0    0 -0.33249274277E+01 -0.22329597902E+01 -0.81299838886E+01  0.90629956479E+01  0.51100000000E-03 0.  1.
        -12    1    3    3    0    0  0.32710633507E+01 -0.11203420590E+02  0.42713530718E+02  0.44279365338E+02  0.00000000000E+00 0.  1.
</event>
<event>
 7    1  0.2090370E-015  0.9000773E+02  0.7816164E-02  0.1186339E+00
        -11   -1    0    0    0    0  0.00000000000E+00  0.00000000000E+00  0.45593999997E+02  0.45594000000E+02  0.51100000000E-03 0. -1.
         11   -1    0    0    0    0 -0.00000000000E+00 -0.00000000000E+00 -0.45593999997E+02  0.45594000000E+02  0.51100000000E-03 0.  1.
    9900012    2    1    2    0    0  0.36357367403E+00 -0.18932536069E+00 -0.11067953935E+01  0.90007734796E+02  0.89999996095E+02 0.  0.
         12    1    1    2    0    0 -0.36357367403E+00  0.18932536069E+00  0.11067953935E+01  0.11802652040E+01  0.00000000000E+00 0. -1.
         11    1    3    3    0    0 -0.13304170476E+02  0.93782528815E+01  0.15686437859E+02  0.22605683182E+02  0.51100000000E-03 0. -1.
        -11    1    3    3    0    0  0.28894632690E+02  0.16655540266E+02 -0.13644679416E+01  0.33379164053E+02  0.51100000000E-03 0.  1.
         12    1    3    3    0    0 -0.15226888540E+02 -0.26223118508E+02 -0.15428765311E+02  0.34022887560E+02  0.00000000000E+00 0. -1.
</event>
<event>
 7    1  0.2090370E-015  0.9000769E+02  0.7816164E-02  0.1186339E+00
        -11   -1    0    0    0    0  0.00000000000E+00  0.00000000000E+00  0.45593999997E+02  0.45594000000E+02  0.51100000000E-03 0.  1.
         11   -1    0    0    0    0 -0.00000000000E+00 -0.00000000000E+00 -0.45593999997E+02  0.45594000000E+02  0.51100000000E-03 0. -1.
    9900012    2    1    2    0    0 -0.26421143419E+00 -0.51065291728E-01  0.11492196649E+01  0.90007694453E+02  0.89999955220E+02 0.  0.
         12    1    1    2    0    0  0.26421143419E+00  0.51065291728E-01 -0.11492196649E+01  0.11803055469E+01  0.00000000000E+00 0. -1.
         11    1    3    3    0    0  0.28806741684E+02  0.10657385177E+02 -0.42485714792E+01  0.31007395652E+02  0.51100000000E-03 0. -1.
        -11    1    3    3    0    0  0.97424333258E+01  0.73593439175E+01 -0.74479722774E+01  0.14302001304E+02  0.51100000000E-03 0.  1.
        -12    1    3    3    0    0 -0.38813386444E+02 -0.18067794386E+02  0.12845763421E+02  0.44698297497E+02  0.00000000000E+00 0.  1.
</event>
<event>
 7    1  0.2604056E-015  0.9000791E+02  0.7816164E-02  0.1186339E+00
        -11   -1    0    0    0    0  0.00000000000E+00  0.00000000000E+00  0.45593999997E+02  0.45594000000E+02  0.51100000000E-03 0. -1.
         11   -1    0    0    0    0 -0.00000000000E+00 -0.00000000000E+00 -0.45593999997E+02  0.45594000000E+02  0.51100000000E-03 0.  1.
    9900012    2    1    2    0    0  0.30174416517E+00  0.32931934676E+00 -0.10922960890E+01  0.90007910377E+02  0.90000173993E+02 0.  0.
         12    1    1    2    0    0 -0.30174416517E+00 -0.32931934676E+00  0.10922960890E+01  0.11800896235E+01  0.00000000000E+00 0. -1.
         11    1    3    3    0    0  0.27629525475E+02  0.37858818156E+01  0.27350373585E+02  0.39061061360E+02  0.51100000000E-03 0. -1.
        -11    1    3    3    0    0  0.66341806016E+01 -0.47027744708E+01 -0.38500348289E+01  0.89972889485E+01  0.51100000000E-03 0.  1.
        -12    1    3    3    0    0 -0.33961961911E+02  0.12462120020E+01 -0.24592634845E+02  0.41949560068E+02  0.00000000000E+00 0.  1.
</event>
<event>
 7    1  0.2090370E-015  0.9000776E+02  0.7816164E-02  0.1186339E+00
        -11   -1    0    0    0    0  0.00000000000E+00  0.00000000000E+00  0.45593999997E+02  0.45594000000E+02  0.51100000000E-03 0.  1.
         11   -1    0    0    0    0 -0.00000000000E+00 -0.00000000000E+00 -0.45593999997E+02  0.45594000000E+02  0.51100000000E-03 0. -1.
    9900012    2    1    2    0    0  0.77285276112E+00 -0.55499351702E+00 -0.69831292685E+00  0.90007762677E+02  0.90000024345E+02 0.  0.
         12    1    1    2    0    0 -0.77285276112E+00  0.55499351702E+00  0.69831292685E+00  0.11802373228E+01  0.00000000000E+00 0. -1.
         11    1    3    3    0    0  0.30000078110E+02  0.69309035885E+01 -0.21750229593E+02  0.37697673652E+02  0.51100000000E-03 0. -1.
        -11    1    3    3    0    0  0.65871602950E+01 -0.74508798339E+01 -0.13952016703E+01  0.10042553411E+02  0.51100000000E-03 0.  1.
        -12    1    3    3    0    0 -0.35814385644E+02 -0.35017271609E-01  0.22447118336E+02  0.42267535614E+02  0.00000000000E+00 0.  1.
</event>
<event>
 7    1  0.2090370E-015  0.9000793E+02  0.7816164E-02  0.1186339E+00
        -11   -1    0    0    0    0  0.00000000000E+00  0.00000000000E+00  0.45593999997E+02  0.45594000000E+02  0.51100000000E-03 0. -1.
         11   -1    0    0    0    0 -0.00000000000E+00 -0.00000000000E+00 -0.45593999997E+02  0.45594000000E+02  0.51100000000E-03 0.  1.
    9900012    2    1    2    0    0 -0.10445883467E+00  0.65489013523E+00 -0.97610023015E+00  0.90007930342E+02  0.90000194223E+02 0.  0.
         12    1    1    2    0    0  0.10445883467E+00 -0.65489013523E+00  0.97610023015E+00  0.11800696575E+01  0.00000000000E+00 0. -1.
         11    1    3    3    0    0  0.30698443298E+01  0.50709458385E+01 -0.64935971475E+01  0.87923398524E+01  0.51100000000E-03 0. -1.
        -11    1    3    3    0    0  0.20254857373E+02  0.31828239466E+02  0.16137006717E+00  0.37726941504E+02  0.51100000000E-03 0.  1.
         12    1    3    3    0    0 -0.23429160538E+02 -0.36244295169E+02  0.53561268501E+01  0.43488648986E+02  0.00000000000E+00 0. -1.
</event>
<event>
 7    1  0.2090370E-015  0.9000818E+02  0.7816164E-02  0.1186338E+00
        -11   -1    0    0    0    0  0.00000000000E+00  0.00000000000E+00  0.45593999997E+02  0.45594000000E+02  0.51100000000E-03 0. -1.
         11   -1    0    0    0    0 -0.00000000000E+00 -0.00000000000E+00 -0.45593999997E+02  0.45594000000E+02  0.51100000000E-03 0.  1.
    9900012    2    1    2    0    0  0.12878657990E+00 -0.86181794093E+00 -0.79540354120E+00  0.90008176734E+02  0.90000443865E+02 0.  0.
         12    1    1    2    0    0 -0.12878657990E+00  0.86181794093E+00  0.79540354120E+00  0.11798232663E+01  0.00000000000E+00 0. -1.
         11    1    3    3    0    0 -0.29917533020E+02  0.76556411062E+01  0.23087288036E+02  0.38557625600E+02  0.51100000000E-03 0. -1.
        -11    1    3    3    0    0  0.87896201523E+00  0.44762422366E+01  0.61218372989E+01  0.76345406516E+01  0.51100000000E-03 0.  1.
        -12    1    3    3    0    0  0.29167357584E+02 -0.12993701284E+02 -0.30004528877E+02  0.43816010483E+02  0.00000000000E+00 0.  1.
</event>
<event>
 7    1  0.2090370E-015  0.9000776E+02  0.7816164E-02  0.1186339E+00
        -11   -1    0    0    0    0  0.00000000000E+00  0.00000000000E+00  0.45593999997E+02  0.45594000000E+02  0.51100000000E-03 0.  1.
         11   -1    0    0    0    0 -0.00000000000E+00 -0.00000000000E+00 -0.45593999997E+02  0.45594000000E+02  0.51100000000E-03 0. -1.
    9900012    2    1    2    0    0 -0.98533338963E+00  0.25212102394E+00  0.59875953261E+00  0.90007762788E+02  0.90000024456E+02 0.  0.
         12    1    1    2    0    0  0.98533338963E+00 -0.25212102394E+00 -0.59875953261E+00  0.11802372123E+01  0.00000000000E+00 0. -1.
         11    1    3    3    0    0 -0.92592978637E+01  0.77085186763E+01  0.51768169582E+01  0.13113172431E+02  0.51100000000E-03 0. -1.
        -11    1    3    3    0    0 -0.22177963852E+02  0.11562561804E+02  0.21125529069E+02  0.32739011817E+02  0.51100000000E-03 0.  1.
         12    1    3    3    0    0  0.30451928326E+02 -0.19018959456E+02 -0.25703586494E+02  0.44155578540E+02  0.00000000000E+00 0. -1.
</event>
<event>
 7    1  0.2090370E-015  0.9000770E+02  0.7816164E-02  0.1186339E+00
        -11   -1    0    0    0    0  0.00000000000E+00  0.00000000000E+00  0.45593999997E+02  0.45594000000E+02  0.51100000000E-03 0.  1.
         11   -1    0    0    0    0 -0.00000000000E+00 -0.00000000000E+00 -0.45593999997E+02  0.45594000000E+02  0.51100000000E-03 0. -1.
    9900012    2    1    2    0    0  0.44649069074E-01 -0.62751805860E+00 -0.99866372512E+00  0.90007702712E+02  0.89999963587E+02 0.  0.
         12    1    1    2    0    0 -0.44649069074E-01  0.62751805860E+00  0.99866372512E+00  0.11802972884E+01  0.00000000000E+00 0. -1.
         11    1    3    3    0    0 -0.23082565314E+02 -0.13558018618E+02 -0.98676668681E+01  0.28530607074E+02  0.51100000000E-03 0. -1.
        -11    1    3    3    0    0  0.14701702253E+01 -0.20600740804E+02  0.32402420419E+00  0.20655675107E+02  0.51100000000E-03 0.  1.
        -12    1    3    3    0    0  0.21657044158E+02  0.33531241364E+02  0.85449789388E+01  0.40821420531E+02  0.00000000000E+00 0.  1.
</event>
<event>
 7    1  0.2090370E-015  0.9000779E+02  0.7816164E-02  0.1186339E+00
        -11   -1    0    0    0    0  0.00000000000E+00  0.00000000000E+00  0.45593999997E+02  0.45594000000E+02  0.51100000000E-03 0. -1.
         11   -1    0    0    0    0 -0.00000000000E+00 -0.00000000000E+00 -0.45593999997E+02  0.45594000000E+02  0.51100000000E-03 0.  1.
    9900012    2    1    2    0    0  0.33108143024E+00 -0.85351757982E+00 -0.74484505486E+00  0.90007787592E+02  0.90000049588E+02 0.  0.
         12    1    1    2    0    0 -0.33108143024E+00  0.85351757982E+00  0.74484505486E+00  0.11802124081E+01  0.00000000000E+00 0. -1.
         11    1    3    3    0    0 -0.47555136110E+01  0.69027146322E+01 -0.16725996432E+01  0.85475124349E+01  0.51100000000E-03 0. -1.
        -11    1    3    3    0    0  0.29160583658E+02  0.26583837464E+02 -0.10813473791E+01  0.39474160738E+02  0.51100000000E-03 0.  1.
         12    1    3    3    0    0 -0.24073988617E+02 -0.34340069676E+02  0.20091019674E+01  0.41986114419E+02  0.00000000000E+00 0. -1.
</event>
<event>
 7    1  0.2090370E-015  0.9000756E+02  0.7816164E-02  0.1186339E+00
        -11   -1    0    0    0    0  0.00000000000E+00  0.00000000000E+00  0.45593999997E+02  0.45594000000E+02  0.51100000000E-03 0. -1.
         11   -1    0    0    0    0 -0.00000000000E+00 -0.00000000000E+00 -0.45593999997E+02  0.45594000000E+02  0.51100000000E-03 0.  1.
    9900012    2    1    2    0    0 -0.67753664071E+00 -0.93956588087E+00 -0.22715173633E+00  0.90007560313E+02  0.89999819309E+02 0.  0.
         12    1    1    2    0    0  0.67753664071E+00  0.93956588087E+00  0.22715173633E+00  0.11804396873E+01  0.00000000000E+00 0. -1.
         11    1    3    3    0    0 -0.21585175682E+02 -0.32586502316E+02 -0.15353510822E+01  0.39117224411E+02  0.51100000000E-03 0. -1.
        -11    1    3    3    0    0 -0.52812673445E+01 -0.40095496509E+01  0.21975258179E-01  0.66308940830E+01  0.51100000000E-03 0.  1.
        -12    1    3    3    0    0  0.26188906385E+02  0.35656486086E+02  0.12862240877E+01  0.44259441819E+02  0.00000000000E+00 0.  1.
</event>
<event>
 7    1  0.2090370E-015  0.9000778E+02  0.7816164E-02  0.1186339E+00
        -11   -1    0    0    0    0  0.00000000000E+00  0.00000000000E+00  0.45593999997E+02  0.45594000000E+02  0.51100000000E-03 0. -1.
         11   -1    0    0    0    0 -0.00000000000E+00 -0.00000000000E+00 -0.45593999997E+02  0.45594000000E+02  0.51100000000E-03 0.  1.
    9900012    2    1    2    0    0 -0.99677581072E+00 -0.11781802473E+00 -0.62087419438E+00  0.90007776348E+02  0.90000038196E+02 0.  0.
         12    1    1    2    0    0  0.99677581072E+00  0.11781802473E+00  0.62087419438E+00  0.11802236521E+01  0.00000000000E+00 0. -1.
         11    1    3    3    0    0 -0.12968363537E+02  0.32200629608E+02 -0.11697352783E+02  0.36631776675E+02  0.51100000000E-03 0. -1.
        -11    1    3    3    0    0 -0.59966028940E+01  0.45817949859E+01  0.97271551153E+01  0.12311362169E+02  0.51100000000E-03 0.  1.
        -12    1    3    3    0    0  0.17968190620E+02 -0.36900242619E+02  0.13493234730E+01  0.41064637504E+02  0.00000000000E+00 0.  1.
</event>
<event>
 7    1  0.2090370E-015  0.9000784E+02  0.7816164E-02  0.1186339E+00
        -11   -1    0    0    0    0  0.00000000000E+00  0.00000000000E+00  0.45593999997E+02  0.45594000000E+02  0.51100000000E-03 0. -1.
         11   -1    0    0    0    0 -0.00000000000E+00 -0.00000000000E+00 -0.45593999997E+02  0.45594000000E+02  0.51100000000E-03 0.  1.
    9900012    2    1    2    0    0 -0.83833522473E+00  0.82771129343E+00 -0.69831713333E-01  0.90007835434E+02  0.90000098062E+02 0.  0.
         12    1    1    2    0    0  0.83833522473E+00 -0.82771129343E+00  0.69831713333E-01  0.11801645658E+01  0.00000000000E+00 0. -1.
         11    1    3    3    0    0  0.27310477428E+02  0.12117985128E+02  0.28725630074E+02  0.41447190065E+02  0.51100000000E-03 0. -1.
        -11    1    3    3    0    0  0.43337129439E+01 -0.24284727772E+01 -0.64889109021E+01  0.81721791994E+01  0.51100000000E-03 0.  1.
        -12    1    3    3    0    0 -0.32482525597E+02 -0.88618010572E+01 -0.22306550885E+02  0.40388466169E+02  0.00000000000E+00 0.  1.
</event>
<event>
 7    1  0.2090370E-015  0.9000781E+02  0.7816164E-02  0.1186339E+00
        -11   -1    0    0    0    0  0.00000000000E+00  0.00000000000E+00  0.45593999997E+02  0.45594000000E+02  0.51100000000E-03 0. -1.
         11   -1    0    0    0    0 -0.00000000000E+00 -0.00000000000E+00 -0.45593999997E+02  0.45594000000E+02  0.51100000000E-03 0.  1.
    9900012    2    1    2    0    0 -0.73487454470E+00  0.92270038835E+00 -0.37801639709E-01  0.90007811215E+02  0.90000073524E+02 0.  0.
         12    1    1    2    0    0  0.73487454470E+00 -0.92270038835E+00  0.37801639709E-01  0.11801887845E+01  0.00000000000E+00 0. -1.
         11    1    3    3    0    0  0.42785862188E+01 -0.57342315520E+01 -0.33568977351E+01  0.79029408570E+01  0.51100000000E-03 0. -1.
        -11    1    3    3    0    0  0.34144996151E+02 -0.11591559970E+02 -0.90307780258E+01  0.37172570220E+02  0.51100000000E-03 0.  1.
         12    1    3    3    0    0 -0.39158456915E+02  0.18248491910E+02  0.12349874121E+02  0.44932300139E+02  0.00000000000E+00 0. -1.
</event>
<event>
 7    1  0.2090370E-015  0.9000771E+02  0.7816164E-02  0.1186339E+00
        -11   -1    0    0    0    0  0.00000000000E+00  0.00000000000E+00  0.45593999997E+02  0.45594000000E+02  0.51100000000E-03 0. -1.
         11   -1    0    0    0    0 -0.00000000000E+00 -0.00000000000E+00 -0.45593999997E+02  0.45594000000E+02  0.51100000000E-03 0.  1.
    9900012    2    1    2    0    0 -0.29219944045E+00 -0.11164107112E+01 -0.24764969149E+00  0.90007710307E+02  0.89999971283E+02 0.  0.
         12    1    1    2    0    0  0.29219944045E+00  0.11164107112E+01  0.24764969149E+00  0.11802896927E+01  0.00000000000E+00 0. -1.
         11    1    3    3    0    0  0.29680515819E+02  0.25331616767E+02  0.11004643844E+02  0.40542891038E+02  0.51100000000E-03 0. -1.
        -11    1    3    3    0    0 -0.17557088213E+01  0.27918193406E+01 -0.80557642961E+01  0.87047175342E+01  0.51100000000E-03 0.  1.
        -12    1    3    3    0    0 -0.28217006438E+02 -0.29239846819E+02 -0.31965292390E+01  0.40760101735E+02  0.00000000000E+00 0.  1.
</event>
<event>
 7    1  0.2090370E-015  0.9000780E+02  0.7816164E-02  0.1186339E+00
        -11   -1    0    0    0    0  0.00000000000E+00  0.00000000000E+00  0.45593999997E+02  0.45594000000E+02  0.51100000000E-03 0.  1.
         11   -1    0    0    0    0 -0.00000000000E+00 -0.00000000000E+00 -0.45593999997E+02  0.45594000000E+02  0.51100000000E-03 0. -1.
    9900012    2    1    2    0    0 -0.53726732675E+00 -0.22769267655E+00  0.10258496617E+01  0.90007801854E+02  0.90000064038E+02 0.  0.
         12    1    1    2    0    0  0.53726732675E+00  0.22769267655E+00 -0.10258496617E+01  0.11801981460E+01  0.00000000000E+00 0. -1.
         11    1    3    3    0    0 -0.23946998390E+01  0.10322274961E+01 -0.63029688275E+01  0.68211067448E+01  0.51100000000E-03 0. -1.
        -11    1    3    3    0    0  0.17441998982E+02  0.37094404342E+02  0.80845913185E+01  0.41780124210E+02  0.51100000000E-03 0.  1.
         12    1    3    3    0    0 -0.15584566470E+02 -0.38354324515E+02 -0.75577282938E+00  0.41406570899E+02  0.00000000000E+00 0. -1.
</event>
<event>
 7    1  0.2090370E-015  0.9000775E+02  0.7816164E-02  0.1186339E+00
        -11   -1    0    0    0    0  0.00000000000E+00  0.00000000000E+00  0.45593999997E+02  0.45594000000E+02  0.51100000000E-03 0. -1.
         11   -1    0    0    0    0 -0.00000000000E+00 -0.00000000000E+00 -0.45593999997E+02  0.45594000000E+02  0.51100000000E-03 0.  1.
    9900012    2    1    2    0    0  0.11070036902E+00 -0.11657822765E+01  0.14722786018E+00  0.90007754716E+02  0.90000016278E+02 0.  0.
         12    1    1    2    0    0 -0.11070036902E+00  0.11657822765E+01 -0.14722786018E+00  0.11802452842E+01  0.00000000000E+00 0. -1.
         11    1    3    3    0    0 -0.71931092008E+01 -0.79896587617E+01  0.11568872459E+00  0.10751225570E+02  0.51100000000E-03 0. -1.
        -11    1    3    3    0    0 -0.25838572874E+01 -0.32227511188E+02 -0.15785646228E+02  0.35978819088E+02  0.51100000000E-03 0.  1.
         12    1    3    3    0    0  0.98876668573E+01  0.39051387673E+02  0.15817185363E+02  0.43277710059E+02  0.00000000000E+00 0. -1.
</event>
<event>
 7    1  0.2090370E-015  0.9000776E+02  0.7816164E-02  0.1186339E+00
        -11   -1    0    0    0    0  0.00000000000E+00  0.00000000000E+00  0.45593999997E+02  0.45594000000E+02  0.51100000000E-03 0. -1.
         11   -1    0    0    0    0 -0.00000000000E+00 -0.00000000000E+00 -0.45593999997E+02  0.45594000000E+02  0.51100000000E-03 0.  1.
    9900012    2    1    2    0    0 -0.66119629736E+00 -0.95341519486E+00 -0.21628431535E+00  0.90007762743E+02  0.90000024411E+02 0.  0.
         12    1    1    2    0    0  0.66119629736E+00  0.95341519486E+00  0.21628431535E+00  0.11802372569E+01  0.00000000000E+00 0. -1.
         11    1    3    3    0    0  0.54113608330E+01  0.65925858946E+01  0.10131371614E+02  0.13243477862E+02  0.51100000000E-03 0. -1.
        -11    1    3    3    0    0 -0.32555677593E+02 -0.26867808140E+02  0.56097153077E+00  0.42214522940E+02  0.51100000000E-03 0.  1.
         12    1    3    3    0    0  0.26483120462E+02  0.19321807050E+02 -0.10908627460E+02  0.34549761941E+02  0.00000000000E+00 0. -1.
</event>
<event>
 7    1  0.2090370E-015  0.9000757E+02  0.7816164E-02  0.1186339E+00
        -11   -1    0    0    0    0  0.00000000000E+00  0.00000000000E+00  0.45593999997E+02  0.45594000000E+02  0.51100000000E-03 0.  1.
         11   -1    0    0    0    0 -0.00000000000E+00 -0.00000000000E+00 -0.45593999997E+02  0.45594000000E+02  0.51100000000E-03 0. -1.
    9900012    2    1    2    0    0 -0.75241902590E+00 -0.82741304814E+00  0.37771248087E+00  0.90007570645E+02  0.89999829778E+02 0.  0.
         12    1    1    2    0    0  0.75241902590E+00  0.82741304814E+00 -0.37771248087E+00  0.11804293545E+01  0.00000000000E+00 0. -1.
         11    1    3    3    0    0  0.37560595379E+01  0.23519727036E+01 -0.62569651948E+01  0.76674228109E+01  0.51100000000E-03 0. -1.
        -11    1    3    3    0    0  0.15431201002E+02 -0.36710956981E+02 -0.81004897956E+01  0.40637842734E+02  0.51100000000E-03 0.  1.
         12    1    3    3    0    0 -0.19939679566E+02  0.33531571230E+02  0.14735167471E+02  0.41702305101E+02  0.00000000000E+00 0. -1.
</event>
<event>
 7    1  0.2090370E-015  0.9000771E+02  0.7816164E-02  0.1186339E+00
        -11   -1    0    0    0    0  0.00000000000E+00  0.00000000000E+00  0.45593999997E+02  0.45594000000E+02  0.51100000000E-03 0.  1.
         11   -1    0    0    0    0 -0.00000000000E+00 -0.00000000000E+00 -0.45593999997E+02  0.45594000000E+02  0.51100000000E-03 0. -1.
    9900012    2    1    2    0    0  0.11610802059E+01 -0.17441805481E+00 -0.12063958783E+00  0.90007710708E+02  0.89999971689E+02 0.  0.
         12    1    1    2    0    0 -0.11610802059E+01  0.17441805481E+00  0.12063958783E+00  0.11802892919E+01  0.00000000000E+00 0. -1.
         11    1    3    3    0    0 -0.10575685170E+01  0.64172276458E+01 -0.79181123478E+01  0.10246744129E+02  0.51100000000E-03 0. -1.
        -11    1    3    3    0    0  0.37518247813E+01  0.36167563067E+02  0.55651734073E+00  0.36365897751E+02  0.51100000000E-03 0.  1.
         12    1    3    3    0    0 -0.15331760584E+01 -0.42759208768E+02  0.72409554192E+01  0.43395068829E+02  0.00000000000E+00 0. -1.
</event>
<event>
 7    1  0.2090370E-015  0.9000773E+02  0.7816164E-02  0.1186339E+00
        -11   -1    0    0    0    0  0.00000000000E+00  0.00000000000E+00  0.45593999997E+02  0.45594000000E+02  0.51100000000E-03 0.  1.
         11   -1    0    0    0    0 -0.00000000000E+00 -0.00000000000E+00 -0.45593999997E+02  0.45594000000E+02  0.51100000000E-03 0. -1.
    9900012    2    1    2    0    0 -0.36331086770E+00  0.16853756385E+00  0.11102419709E+01  0.90007730145E+02  0.89999991383E+02 0.  0.
         12    1    1    2    0    0  0.36331086770E+00 -0.16853756385E+00 -0.11102419709E+01  0.11802698552E+01  0.00000000000E+00 0. -1.
         11    1    3    3    0    0 -0.21457655443E+01  0.61203886960E+01  0.11198604738E+02  0.12941105668E+02  0.51100000000E-03 0. -1.
        -11    1    3    3    0    0  0.23794014693E+02  0.70988295884E+01  0.23938994647E+02  0.34490926078E+02  0.51100000000E-03 0.  1.
         12    1    3    3    0    0 -0.22011560016E+02 -0.13050680720E+02 -0.34027357414E+02  0.42575698399E+02  0.00000000000E+00 0. -1.
</event>
<event>
 7    1  0.2090370E-015  0.9000748E+02  0.7816164E-02  0.1186340E+00
        -11   -1    0    0    0    0  0.00000000000E+00  0.00000000000E+00  0.45593999997E+02  0.45594000000E+02  0.51100000000E-03 0. -1.
         11   -1    0    0    0    0 -0.00000000000E+00 -0.00000000000E+00 -0.45593999997E+02  0.45594000000E+02  0.51100000000E-03 0.  1.
    9900012    2    1    2    0    0  0.10083903023E+01  0.49512936247E+00  0.36279329223E+00  0.90007481868E+02  0.89999739828E+02 0.  0.
         12    1    1    2    0    0 -0.10083903023E+01 -0.49512936247E+00 -0.36279329223E+00  0.11805181321E+01  0.00000000000E+00 0. -1.
         11    1    3    3    0    0  0.59184184621E+01 -0.70000724421E+01 -0.71974593308E+01  0.11654703444E+02  0.51100000000E-03 0. -1.
        -11    1    3    3    0    0 -0.94935579308E+01  0.15084042849E+02 -0.32638642746E+02  0.37187860807E+02  0.51100000000E-03 0.  1.
         12    1    3    3    0    0  0.45835297710E+01 -0.75888410441E+01  0.40198895369E+02  0.41164917617E+02  0.00000000000E+00 0. -1.
</event>
<event>
 7    1  0.2090370E-015  0.9000773E+02  0.7816164E-02  0.1186339E+00
        -11   -1    0    0    0    0  0.00000000000E+00  0.00000000000E+00  0.45593999997E+02  0.45594000000E+02  0.51100000000E-03 0.  1.
         11   -1    0    0    0    0 -0.00000000000E+00 -0.00000000000E+00 -0.45593999997E+02  0.45594000000E+02  0.51100000000E-03 0. -1.
    9900012    2    1    2    0    0 -0.46875733096E+00  0.68614210941E+00  0.83816319643E+00  0.90007728009E+02  0.89999989218E+02 0.  0.
         12    1    1    2    0    0  0.46875733096E+00 -0.68614210941E+00 -0.83816319643E+00  0.11802719913E+01  0.00000000000E+00 0. -1.
         11    1    3    3    0    0 -0.46853031004E+01  0.32526221997E+02 -0.18187734597E+02  0.37559298084E+02  0.51100000000E-03 0. -1.
        -11    1    3    3    0    0  0.74811838013E+01  0.64599658119E+01  0.82646828892E+00  0.99187861886E+01  0.51100000000E-03 0.  1.
        -12    1    3    3    0    0 -0.32646380319E+01 -0.38300045699E+02  0.18199429505E+02  0.42529643736E+02  0.00000000000E+00 0.  1.
</event>
<event>
 7    1  0.2090370E-015  0.9000774E+02  0.7816164E-02  0.1186339E+00
        -11   -1    0    0    0    0  0.00000000000E+00  0.00000000000E+00  0.45593999997E+02  0.45594000000E+02  0.51100000000E-03 0.  1.
         11   -1    0    0    0    0 -0.00000000000E+00 -0.00000000000E+00 -0.45593999997E+02  0.45594000000E+02  0.51100000000E-03 0. -1.
    9900012    2    1    2    0    0  0.33860170259E+00  0.31830576334E+00  0.10849218630E+01  0.90007735148E+02  0.89999996452E+02 0.  0.
         12    1    1    2    0    0 -0.33860170259E+00 -0.31830576334E+00 -0.10849218630E+01  0.11802648519E+01  0.00000000000E+00 0. -1.
         11    1    3    3    0    0 -0.28491925337E+02  0.28917850444E+02 -0.12763539637E+02  0.42555138680E+02  0.51100000000E-03 0. -1.
        -11    1    3    3    0    0  0.95272165032E+00 -0.23928489886E+01  0.84231363183E+01  0.88081002789E+01  0.51100000000E-03 0.  1.
        -12    1    3    3    0    0  0.27877805389E+02 -0.26206695692E+02  0.54253251820E+01  0.38644496190E+02  0.00000000000E+00 0.  1.
</event>
<event>
 7    1  0.2941797E-015  0.9000784E+02  0.7816164E-02  0.1186339E+00
        -11   -1    0    0    0    0  0.00000000000E+00  0.00000000000E+00  0.45593999997E+02  0.45594000000E+02  0.51100000000E-03 0.  1.
         11   -1    0    0    0    0 -0.00000000000E+00 -0.00000000000E+00 -0.45593999997E+02  0.45594000000E+02  0.51100000000E-03 0. -1.
    9900012    2    1    2    0    0  0.50835593932E+00 -0.77873054843E+00  0.72659128937E+00  0.90007838176E+02  0.90000100840E+02 0.  0.
         12    1    1    2    0    0 -0.50835593932E+00  0.77873054843E+00 -0.72659128937E+00  0.11801618236E+01  0.00000000000E+00 0. -1.
         11    1    3    3    0    0  0.17833556122E+02 -0.24807463010E+02 -0.19860152064E+02  0.36439972356E+02  0.51100000000E-03 0. -1.
        -11    1    3    3    0    0  0.92882782220E+01 -0.32026111070E+01 -0.86741765191E+00  0.98631254618E+01  0.51100000000E-03 0.  1.
        -12    1    3    3    0    0 -0.26613478405E+02  0.27231343569E+02  0.21454161006E+02  0.43704740359E+02  0.00000000000E+00 0.  1.
</event>
<event>
 7    1  0.2090370E-015  0.9000710E+02  0.7816164E-02  0.1186340E+00
        -11   -1    0    0    0    0  0.00000000000E+00  0.00000000000E+00  0.45593999997E+02  0.45594000000E+02  0.51100000000E-03 0.  1.
         11   -1    0    0    0    0 -0.00000000000E+00 -0.00000000000E+00 -0.45593999997E+02  0.45594000000E+02  0.51100000000E-03 0. -1.
    9900012    2    1    2    0    0 -0.11505954992E+01  0.25704981015E+00 -0.67611246724E-01  0.90007103777E+02  0.89999356745E+02 0.  0.
         12    1    1    2    0    0  0.11505954992E+01 -0.25704981015E+00  0.67611246724E-01  0.11808962226E+01  0.00000000000E+00 0. -1.
         11    1    3    3    0    0  0.21802364265E+01 -0.13224920332E+02 -0.40421753527E+01  0.13999683229E+02  0.51100000000E-03 0. -1.
        -11    1    3    3    0    0  0.31747313997E+01 -0.13686463365E+02  0.32911894846E+02  0.35785346463E+02  0.51100000000E-03 0.  1.
         12    1    3    3    0    0 -0.65055633254E+01  0.27168433507E+02 -0.28937330740E+02  0.40222074085E+02  0.00000000000E+00 0. -1.
</event>
<event>
 7    1  0.2090370E-015  0.9000778E+02  0.7816164E-02  0.1186339E+00
        -11   -1    0    0    0    0  0.00000000000E+00  0.00000000000E+00  0.45593999997E+02  0.45594000000E+02  0.51100000000E-03 0.  1.
         11   -1    0    0    0    0 -0.00000000000E+00 -0.00000000000E+00 -0.45593999997E+02  0.45594000000E+02  0.51100000000E-03 0. -1.
    9900012    2    1    2    0    0  0.53274524452E+00  0.35546941018E+00  0.99133448223E+00  0.90007779659E+02  0.90000041551E+02 0.  0.
         12    1    1    2    0    0 -0.53274524452E+00 -0.35546941018E+00 -0.99133448223E+00  0.11802203408E+01  0.00000000000E+00 0. -1.
         11    1    3    3    0    0 -0.11849786718E+02  0.22325955523E+02  0.26869119281E+02  0.36889230223E+02  0.51100000000E-03 0. -1.
        -11    1    3    3    0    0 -0.21271083238E+01  0.89608912645E+01  0.15073326088E+01  0.93324280833E+01  0.51100000000E-03 0.  1.
        -12    1    3    3    0    0  0.14509640286E+02 -0.30931377377E+02 -0.27385117407E+02  0.43786121353E+02  0.00000000000E+00 0.  1.
</event>
<event>
 7    1  0.2090370E-015  0.9000787E+02  0.7816164E-02  0.1186339E+00
        -11   -1    0    0    0    0  0.00000000000E+00  0.00000000000E+00  0.45593999997E+02  0.45594000000E+02  0.51100000000E-03 0. -1.
         11   -1    0    0    0    0 -0.00000000000E+00 -0.00000000000E+00 -0.45593999997E+02  0.45594000000E+02  0.51100000000E-03 0.  1.
    9900012    2    1    2    0    0 -0.10654185361E+01  0.30074836314E+00 -0.40883802361E+00  0.90007866633E+02  0.90000129672E+02 0.  0.
         12    1    1    2    0    0  0.10654185361E+01 -0.30074836314E+00  0.40883802361E+00  0.11801333673E+01  0.00000000000E+00 0. -1.
         11    1    3    3    0    0 -0.57534044070E-01 -0.38279630323E+01  0.74219685654E+01  0.83511812811E+01  0.51100000000E-03 0. -1.
        -11    1    3    3    0    0  0.35304683302E+02  0.21136649060E+02 -0.27887842280E+01  0.41242646790E+02  0.51100000000E-03 0.  1.
         12    1    3    3    0    0 -0.36312567794E+02 -0.17007937664E+02 -0.50420223610E+01  0.40414038562E+02  0.00000000000E+00 0. -1.
</event>
<event>
 7    1  0.2090370E-015  0.9000782E+02  0.7816164E-02  0.1186339E+00
        -11   -1    0    0    0    0  0.00000000000E+00  0.00000000000E+00  0.45593999997E+02  0.45594000000E+02  0.51100000000E-03 0.  1.
         11   -1    0    0    0    0 -0.00000000000E+00 -0.00000000000E+00 -0.45593999997E+02  0.45594000000E+02  0.51100000000E-03 0. -1.
    9900012    2    1    2    0    0 -0.35244477393E-01 -0.37963727958E+00  0.11169010148E+01  0.90007815898E+02  0.90000078268E+02 0.  0.
         12    1    1    2    0    0  0.35244477393E-01  0.37963727958E+00 -0.11169010148E+01  0.11801841018E+01  0.00000000000E+00 0. -1.
         11    1    3    3    0    0 -0.10755667777E+02 -0.26769022603E+02 -0.14714779509E+02  0.32385022722E+02  0.51100000000E-03 0. -1.
        -11    1    3    3    0    0 -0.87982493406E+01 -0.80647803406E+01 -0.49275974896E+01  0.12912439378E+02  0.51100000000E-03 0.  1.
        -12    1    3    3    0    0  0.19518672640E+02  0.34454165664E+02  0.20759278013E+02  0.44710353799E+02  0.00000000000E+00 0.  1.
</event>
<event>
 7    1  0.2090370E-015  0.9000786E+02  0.7816164E-02  0.1186339E+00
        -11   -1    0    0    0    0  0.00000000000E+00  0.00000000000E+00  0.45593999997E+02  0.45594000000E+02  0.51100000000E-03 0. -1.
         11   -1    0    0    0    0 -0.00000000000E+00 -0.00000000000E+00 -0.45593999997E+02  0.45594000000E+02  0.51100000000E-03 0.  1.
    9900012    2    1    2    0    0 -0.10463915503E+01  0.39304093333E+00  0.37857143170E+00  0.90007859000E+02  0.90000121938E+02 0.  0.
         12    1    1    2    0    0  0.10463915503E+01 -0.39304093333E+00 -0.37857143170E+00  0.11801410004E+01  0.00000000000E+00 0. -1.
         11    1    3    3    0    0  0.77732878419E+01  0.55622038040E+01  0.51478962427E+01  0.10856470468E+02  0.51100000000E-03 0. -1.
        -11    1    3    3    0    0  0.29644886873E+02  0.17417967538E+02 -0.29206104613E+01  0.34507026482E+02  0.51100000000E-03 0.  1.
         12    1    3    3    0    0 -0.38464566265E+02 -0.22587130409E+02 -0.18487143497E+01  0.44644362050E+02  0.00000000000E+00 0. -1.
</event>
<event>
 7    1  0.2090370E-015  0.9000775E+02  0.7816164E-02  0.1186339E+00
        -11   -1    0    0    0    0  0.00000000000E+00  0.00000000000E+00  0.45593999997E+02  0.45594000000E+02  0.51100000000E-03 0.  1.
         11   -1    0    0    0    0 -0.00000000000E+00 -0.00000000000E+00 -0.45593999997E+02  0.45594000000E+02  0.51100000000E-03 0. -1.
    9900012    2    1    2    0    0 -0.11643172222E+01  0.31430578573E-01  0.19069233248E+00  0.90007751704E+02  0.90000013226E+02 0.  0.
         12    1    1    2    0    0  0.11643172222E+01 -0.31430578573E-01 -0.19069233248E+00  0.11802482963E+01  0.00000000000E+00 0. -1.
         11    1    3    3    0    0 -0.26387659158E+01  0.98662328949E+01  0.16189120283E+01  0.10340527719E+02  0.51100000000E-03 0. -1.
        -11    1    3    3    0    0  0.34726987825E+02  0.12485631493E+02  0.95920364342E+01  0.38129540259E+02  0.51100000000E-03 0.  1.
         12    1    3    3    0    0 -0.33252539131E+02 -0.22320433809E+02 -0.11020256130E+02  0.41537683725E+02  0.00000000000E+00 0. -1.
</event>
<event>
 7    1  0.2090370E-015  0.9000758E+02  0.7816164E-02  0.1186339E+00
        -11   -1    0    0    0    0  0.00000000000E+00  0.00000000000E+00  0.45593999997E+02  0.45594000000E+02  0.51100000000E-03 0.  1.
         11   -1    0    0    0    0 -0.00000000000E+00 -0.00000000000E+00 -0.45593999997E+02  0.45594000000E+02  0.51100000000E-03 0. -1.
    9900012    2    1    2    0    0  0.41464814790E+00 -0.66311829239E+00  0.88415374150E+00  0.90007581941E+02  0.89999841222E+02 0.  0.
         12    1    1    2    0    0 -0.41464814790E+00  0.66311829239E+00 -0.88415374150E+00  0.11804180594E+01  0.00000000000E+00 0. -1.
         11    1    3    3    0    0 -0.14219989085E+01 -0.29511554300E+01  0.80121526716E+01  0.86559800116E+01  0.51100000000E-03 0. -1.
        -11    1    3    3    0    0 -0.66453976903E+01  0.27345707761E+02  0.26439048553E+02  0.38613110883E+02  0.51100000000E-03 0.  1.
         12    1    3    3    0    0  0.84820447467E+01 -0.25057670623E+02 -0.33567047483E+02  0.42738491046E+02  0.00000000000E+00 0. -1.
</event>
<event>
 7    1  0.2090370E-015  0.9000774E+02  0.7816164E-02  0.1186339E+00
        -11   -1    0    0    0    0  0.00000000000E+00  0.00000000000E+00  0.45593999997E+02  0.45594000000E+02  0.51100000000E-03 0. -1.
         11   -1    0    0    0    0 -0.00000000000E+00 -0.00000000000E+00 -0.45593999997E+02  0.45594000000E+02  0.51100000000E-03 0.  1.
    9900012    2    1    2    0    0 -0.90735061419E+00  0.32969206806E+00  0.67898568712E+00  0.90007744282E+02  0.90000005706E+02 0.  0.
         12    1    1    2    0    0  0.90735061419E+00 -0.32969206806E+00 -0.67898568712E+00  0.11802557181E+01  0.00000000000E+00 0. -1.
         11    1    3    3    0    0  0.35322890869E+02  0.43975852855E+01  0.44935322639E+01  0.35878088134E+02  0.51100000000E-03 0. -1.
        -11    1    3    3    0    0  0.87407975809E+01 -0.72063026263E+00  0.75715231635E+00  0.88030750433E+01  0.51100000000E-03 0.  1.
        -12    1    3    3    0    0 -0.44971039064E+02 -0.33472629548E+01 -0.45716988931E+01  0.45326581104E+02  0.00000000000E+00 0.  1.
</event>
<event>
 7    1  0.2090370E-015  0.9000773E+02  0.7816164E-02  0.1186339E+00
        -11   -1    0    0    0    0  0.00000000000E+00  0.00000000000E+00  0.45593999997E+02  0.45594000000E+02  0.51100000000E-03 0.  1.
         11   -1    0    0    0    0 -0.00000000000E+00 -0.00000000000E+00 -0.45593999997E+02  0.45594000000E+02  0.51100000000E-03 0. -1.
    9900012    2    1    2    0    0  0.11728041145E+01  0.84190442275E-01 -0.10232855498E+00  0.90007733651E+02  0.89999994935E+02 0.  0.
         12    1    1    2    0    0 -0.11728041145E+01 -0.84190442275E-01  0.10232855498E+00  0.11802663491E+01  0.00000000000E+00 0. -1.
         11    1    3    3    0    0  0.12534619571E+02  0.52690843993E+01 -0.33195156974E+02  0.35871972137E+02  0.51100000000E-03 0. -1.
        -11    1    3    3    0    0  0.52343332563E+01 -0.40114015227E+01 -0.76658666234E+01  0.10112126293E+02  0.51100000000E-03 0.  1.
        -12    1    3    3    0    0 -0.16596148712E+02 -0.11734924344E+01  0.40758695042E+02  0.44023635222E+02  0.00000000000E+00 0.  1.
</event>
<event>
 7    1  0.2090370E-015  0.9000850E+02  0.7816164E-02  0.1186338E+00
        -11   -1    0    0    0    0  0.00000000000E+00  0.00000000000E+00  0.45593999997E+02  0.45594000000E+02  0.51100000000E-03 0.  1.
         11   -1    0    0    0    0 -0.00000000000E+00 -0.00000000000E+00 -0.45593999997E+02  0.45594000000E+02  0.51100000000E-03 0. -1.
    9900012    2    1    2    0    0 -0.39695059869E-01 -0.11044816872E+01  0.41201902500E+00  0.90008502153E+02  0.90000773578E+02 0.  0.
         12    1    1    2    0    0  0.39695059869E-01  0.11044816872E+01 -0.41201902500E+00  0.11794978475E+01  0.00000000000E+00 0. -1.
         11    1    3    3    0    0  0.34343447505E+01 -0.69564130342E+01  0.15785127692E+01  0.79169507383E+01  0.51100000000E-03 0. -1.
        -11    1    3    3    0    0  0.27091138843E+02 -0.94633206965E+01 -0.26875284129E+02  0.39316219804E+02  0.51100000000E-03 0.  1.
         12    1    3    3    0    0 -0.30565178654E+02  0.15315252043E+02  0.25708790385E+02  0.42775331610E+02  0.00000000000E+00 0. -1.
</event>
<event>
 7    1  0.2090370E-015  0.9000774E+02  0.7816164E-02  0.1186339E+00
        -11   -1    0    0    0    0  0.00000000000E+00  0.00000000000E+00  0.45593999997E+02  0.45594000000E+02  0.51100000000E-03 0. -1.
         11   -1    0    0    0    0 -0.00000000000E+00 -0.00000000000E+00 -0.45593999997E+02  0.45594000000E+02  0.51100000000E-03 0.  1.
    9900012    2    1    2    0    0  0.87553479683E+00 -0.15048006388E+00 -0.77705571590E+00  0.90007736887E+02  0.89999998214E+02 0.  0.
         12    1    1    2    0    0 -0.87553479683E+00  0.15048006388E+00  0.77705571590E+00  0.11802631129E+01  0.00000000000E+00 0. -1.
         11    1    3    3    0    0  0.95968801821E+01 -0.24739554520E+02  0.30369126375E+02  0.40329015660E+02  0.51100000000E-03 0. -1.
        -11    1    3    3    0    0  0.47071138448E+01 -0.45834686912E+01 -0.58645495520E+01  0.88067047016E+01  0.51100000000E-03 0.  1.
        -12    1    3    3    0    0 -0.13428459230E+02  0.29172543148E+02 -0.25281632539E+02  0.40872016525E+02  0.00000000000E+00 0.  1.
</event>
<event>
 7    1  0.2090370E-015  0.9000761E+02  0.7816164E-02  0.1186339E+00
        -11   -1    0    0    0    0  0.00000000000E+00  0.00000000000E+00  0.45593999997E+02  0.45594000000E+02  0.51100000000E-03 0.  1.
         11   -1    0    0    0    0 -0.00000000000E+00 -0.00000000000E+00 -0.45593999997E+02  0.45594000000E+02  0.51100000000E-03 0. -1.
    9900012    2    1    2    0    0  0.19435426472E+00  0.94543980037E+00 -0.67947662198E+00  0.90007610879E+02  0.89999870543E+02 0.  0.
         12    1    1    2    0    0 -0.19435426472E+00 -0.94543980037E+00  0.67947662198E+00  0.11803891207E+01  0.00000000000E+00 0. -1.
         11    1    3    3    0    0  0.35101921768E+02  0.19182550010E+02  0.29361827992E+01  0.40109055167E+02  0.51100000000E-03 0. -1.
        -11    1    3    3    0    0 -0.47461453107E+00 -0.24482448340E+01  0.94923239342E+01  0.98144472923E+01  0.51100000000E-03 0.  1.
        -12    1    3    3    0    0 -0.34432952972E+02 -0.15788865375E+02 -0.13107983355E+02  0.40084108420E+02  0.00000000000E+00 0.  1.
</event>
<event>
 7    1  0.2090370E-015  0.9000770E+02  0.7816164E-02  0.1186339E+00
        -11   -1    0    0    0    0  0.00000000000E+00  0.00000000000E+00  0.45593999997E+02  0.45594000000E+02  0.51100000000E-03 0. -1.
         11   -1    0    0    0    0 -0.00000000000E+00 -0.00000000000E+00 -0.45593999997E+02  0.45594000000E+02  0.51100000000E-03 0.  1.
    9900012    2    1    2    0    0 -0.67417885128E+00 -0.66252496693E+00 -0.70686624383E+00  0.90007696504E+02  0.89999957298E+02 0.  0.
         12    1    1    2    0    0  0.67417885128E+00  0.66252496693E+00  0.70686624383E+00  0.11803034957E+01  0.00000000000E+00 0. -1.
         11    1    3    3    0    0  0.75959439473E+01 -0.56145244439E+01 -0.35339201237E+01  0.10085129691E+02  0.51100000000E-03 0. -1.
        -11    1    3    3    0    0 -0.14472299445E+02 -0.29892908419E+02 -0.19076225989E+02  0.38300598210E+02  0.51100000000E-03 0.  1.
         12    1    3    3    0    0  0.62021766462E+01  0.34844907896E+02  0.21903279869E+02  0.41621968604E+02  0.00000000000E+00 0. -1.
</event>
<event>
 7    1  0.2090370E-015  0.9000776E+02  0.7816164E-02  0.1186339E+00
        -11   -1    0    0    0    0  0.00000000000E+00  0.00000000000E+00  0.45593999997E+02  0.45594000000E+02  0.51100000000E-03 0.  1.
         11   -1    0    0    0    0 -0.00000000000E+00 -0.00000000000E+00 -0.45593999997E+02  0.45594000000E+02  0.51100000000E-03 0. -1.
    9900012    2    1    2    0    0 -0.91129151955E+00  0.71795041929E+00 -0.21690943908E+00  0.90007764963E+02  0.90000026660E+02 0.  0.
         12    1    1    2    0    0  0.91129151955E+00 -0.71795041929E+00  0.21690943908E+00  0.11802350372E+01  0.00000000000E+00 0. -1.
         11    1    3    3    0    0  0.87606391162E+01 -0.39932188230E+01 -0.52778275311E+00  0.96422585108E+01  0.51100000000E-03 0. -1.
        -11    1    3    3    0    0  0.65752833757E+00 -0.34058752888E+02 -0.15260959752E+02  0.37327307492E+02  0.51100000000E-03 0.  1.
         12    1    3    3    0    0 -0.10329458973E+02  0.38769922130E+02  0.15571833066E+02  0.43038198960E+02  0.00000000000E+00 0. -1.
</event>
<event>
 7    1  0.2090370E-015  0.9000780E+02  0.7816164E-02  0.1186339E+00
        -11   -1    0    0    0    0  0.00000000000E+00  0.00000000000E+00  0.45593999997E+02  0.45594000000E+02  0.51100000000E-03 0. -1.
         11   -1    0    0    0    0 -0.00000000000E+00 -0.00000000000E+00 -0.45593999997E+02  0.45594000000E+02  0.51100000000E-03 0.  1.
    9900012    2    1    2    0    0 -0.88583551641E+00  0.57180144333E+00  0.53028211578E+00  0.90007804857E+02  0.90000067081E+02 0.  0.
         12    1    1    2    0    0  0.88583551641E+00 -0.57180144333E+00 -0.53028211578E+00  0.11801951428E+01  0.00000000000E+00 0. -1.
         11    1    3    3    0    0 -0.35485835873E+01 -0.65515382996E+01  0.83583720211E+01  0.11197208700E+02  0.51100000000E-03 0. -1.
        -11    1    3    3    0    0 -0.28077388912E+01 -0.35376557380E+02 -0.53463336446E+01  0.35888264007E+02  0.51100000000E-03 0.  1.
         12    1    3    3    0    0  0.54704869620E+01  0.42499897123E+02 -0.24817562607E+01  0.42922332150E+02  0.00000000000E+00 0. -1.
</event>
<event>
 7    1  0.2090370E-015  0.9000773E+02  0.7816164E-02  0.1186339E+00
        -11   -1    0    0    0    0  0.00000000000E+00  0.00000000000E+00  0.45593999997E+02  0.45594000000E+02  0.51100000000E-03 0.  1.
         11   -1    0    0    0    0 -0.00000000000E+00 -0.00000000000E+00 -0.45593999997E+02  0.45594000000E+02  0.51100000000E-03 0. -1.
    9900012    2    1    2    0    0  0.22302992314E+00  0.20179596781E+00  0.11413060548E+01  0.90007727375E+02  0.89999988576E+02 0.  0.
         12    1    1    2    0    0 -0.22302992314E+00 -0.20179596781E+00 -0.11413060548E+01  0.11802726252E+01  0.00000000000E+00 0. -1.
         11    1    3    3    0    0 -0.11144612211E+02  0.13792983876E+01  0.16826180203E+01  0.11355001058E+02  0.51100000000E-03 0. -1.
        -11    1    3    3    0    0  0.70056510176E+01  0.51749358161E+01  0.38185752900E+02  0.39166450332E+02  0.51100000000E-03 0.  1.
         12    1    3    3    0    0  0.43619911161E+01 -0.63524382359E+01 -0.38727064865E+02  0.39486275984E+02  0.00000000000E+00 0. -1.
</event>
<event>
 7    1  0.2090370E-015  0.9000774E+02  0.7816164E-02  0.1186339E+00
        -11   -1    0    0    0    0  0.00000000000E+00  0.00000000000E+00  0.45593999997E+02  0.45594000000E+02  0.51100000000E-03 0.  1.
         11   -1    0    0    0    0 -0.00000000000E+00 -0.00000000000E+00 -0.45593999997E+02  0.45594000000E+02  0.51100000000E-03 0. -1.
    9900012    2    1    2    0    0  0.48911559647E+00 -0.10482860297E+01 -0.23425205735E+00  0.90007740836E+02  0.90000002215E+02 0.  0.
         12    1    1    2    0    0 -0.48911559647E+00  0.10482860297E+01  0.23425205735E+00  0.11802591636E+01  0.00000000000E+00 0. -1.
         11    1    3    3    0    0 -0.75671022262E+00  0.10715872894E+02 -0.34810265821E+02  0.36430168117E+02  0.51100000000E-03 0. -1.
        -11    1    3    3    0    0  0.39055649715E+01  0.79447236356E+01 -0.43512457278E+01  0.98643505127E+01  0.51100000000E-03 0.  1.
        -12    1    3    3    0    0 -0.26597391524E+01 -0.19708882560E+02  0.38927259492E+02  0.43713222206E+02  0.00000000000E+00 0.  1.
</event>
<event>
 7    1  0.2090370E-015  0.9000761E+02  0.7816164E-02  0.1186339E+00
        -11   -1    0    0    0    0  0.00000000000E+00  0.00000000000E+00  0.45593999997E+02  0.45594000000E+02  0.51100000000E-03 0.  1.
         11   -1    0    0    0    0 -0.00000000000E+00 -0.00000000000E+00 -0.45593999997E+02  0.45594000000E+02  0.51100000000E-03 0. -1.
    9900012    2    1    2    0    0 -0.31969581002E-01  0.97381233637E+00  0.66633116728E+00  0.90007606106E+02  0.89999865706E+02 0.  0.
         12    1    1    2    0    0  0.31969581002E-01 -0.97381233637E+00 -0.66633116728E+00  0.11803938940E+01  0.00000000000E+00 0. -1.
         11    1    3    3    0    0  0.48514428666E+01  0.62663653206E+01 -0.65378250476E+01  0.10273606418E+02  0.51100000000E-03 0. -1.
        -11    1    3    3    0    0 -0.38267572197E+02  0.77601120229E+01 -0.95034315091E+01  0.40186336375E+02  0.51100000000E-03 0.  1.
         12    1    3    3    0    0  0.33384159750E+02 -0.13052665007E+02  0.16707587724E+02  0.39547663313E+02  0.00000000000E+00 0. -1.
</event>
<event>
 7    1  0.2090370E-015  0.9000777E+02  0.7816164E-02  0.1186339E+00
        -11   -1    0    0    0    0  0.00000000000E+00  0.00000000000E+00  0.45593999997E+02  0.45594000000E+02  0.51100000000E-03 0.  1.
         11   -1    0    0    0    0 -0.00000000000E+00 -0.00000000000E+00 -0.45593999997E+02  0.45594000000E+02  0.51100000000E-03 0. -1.
    9900012    2    1    2    0    0 -0.10262686812E+01 -0.50672577270E+00  0.28800377294E+00  0.90007769265E+02  0.90000031019E+02 0.  0.
         12    1    1    2    0    0  0.10262686812E+01  0.50672577270E+00 -0.28800377294E+00  0.11802307350E+01  0.00000000000E+00 0. -1.
         11    1    3    3    0    0 -0.31890556195E+02 -0.25388129438E+02 -0.33096479638E+01  0.40896435795E+02  0.51100000000E-03 0. -1.
        -11    1    3    3    0    0 -0.22966467177E+01 -0.12671102090E+01 -0.53365987205E+01  0.59463804614E+01  0.51100000000E-03 0.  1.
        -12    1    3    3    0    0  0.33160934232E+02  0.26148513875E+02  0.89342504572E+01  0.43164953008E+02  0.00000000000E+00 0.  1.
</event>
<event>
 7    1  0.2094811E-015  0.9000773E+02  0.7816164E-02  0.1186339E+00
        -11   -1    0    0    0    0  0.00000000000E+00  0.00000000000E+00  0.45593999997E+02  0.45594000000E+02  0.51100000000E-03 0. -1.
         11   -1    0    0    0    0 -0.00000000000E+00 -0.00000000000E+00 -0.45593999997E+02  0.45594000000E+02  0.51100000000E-03 0.  1.
    9900012    2    1    2    0    0  0.84965082135E+00 -0.75169035948E+00 -0.32570635582E+00  0.90007733274E+02  0.89999994553E+02 0.  0.
         12    1    1    2    0    0 -0.84965082135E+00  0.75169035948E+00  0.32570635582E+00  0.11802667262E+01  0.00000000000E+00 0. -1.
         11    1    3    3    0    0  0.16151465451E+02  0.28935078891E+02  0.18908003145E+02  0.38152604234E+02  0.51100000000E-03 0. -1.
        -11    1    3    3    0    0 -0.74919755221E+00 -0.31113831816E+01  0.95448900597E+01  0.10067121177E+02  0.51100000000E-03 0.  1.
        -12    1    3    3    0    0 -0.14552617077E+02 -0.26575386069E+02 -0.28778599561E+02  0.41788007863E+02  0.00000000000E+00 0.  1.
</event>
<event>
 7    1  0.2090370E-015  0.9000774E+02  0.7816164E-02  0.1186339E+00
        -11   -1    0    0    0    0  0.00000000000E+00  0.00000000000E+00  0.45593999997E+02  0.45594000000E+02  0.51100000000E-03 0. -1.
         11   -1    0    0    0    0 -0.00000000000E+00 -0.00000000000E+00 -0.45593999997E+02  0.45594000000E+02  0.51100000000E-03 0.  1.
    9900012    2    1    2    0    0  0.67682960042E+00  0.54046384297E+00  0.80176052982E+00  0.90007737563E+02  0.89999998899E+02 0.  0.
         12    1    1    2    0    0 -0.67682960042E+00 -0.54046384297E+00 -0.80176052982E+00  0.11802624372E+01  0.00000000000E+00 0. -1.
         11    1    3    3    0    0  0.10259515701E+01 -0.92830915320E+01  0.92969599408E+01  0.13178081401E+02  0.51100000000E-03 0. -1.
        -11    1    3    3    0    0 -0.41872350645E+01 -0.12958681236E+02 -0.37413961983E+02  0.39815385322E+02  0.51100000000E-03 0.  1.
         12    1    3    3    0    0  0.38381130949E+01  0.22782236611E+02  0.28918762572E+02  0.37014270840E+02  0.00000000000E+00 0. -1.
</event>
<event>
 7    1  0.2090370E-015  0.9000777E+02  0.7816164E-02  0.1186339E+00
        -11   -1    0    0    0    0  0.00000000000E+00  0.00000000000E+00  0.45593999997E+02  0.45594000000E+02  0.51100000000E-03 0. -1.
         11   -1    0    0    0    0 -0.00000000000E+00 -0.00000000000E+00 -0.45593999997E+02  0.45594000000E+02  0.51100000000E-03 0.  1.
    9900012    2    1    2    0    0  0.19894278459E-01 -0.94887105444E+00 -0.70156833494E+00  0.90007766892E+02  0.90000028615E+02 0.  0.
         12    1    1    2    0    0 -0.19894278459E-01  0.94887105444E+00  0.70156833494E+00  0.11802331079E+01  0.00000000000E+00 0. -1.
         11    1    3    3    0    0  0.35058657970E+01  0.88006507359E+01 -0.11909212182E+01  0.95478187023E+01  0.51100000000E-03 0. -1.
        -11    1    3    3    0    0 -0.27839094839E+02  0.22756176172E+02  0.12561520916E+02  0.38087406887E+02  0.51100000000E-03 0.  1.
         12    1    3    3    0    0  0.24353123320E+02 -0.32505697962E+02 -0.12072168033E+02  0.42372541303E+02  0.00000000000E+00 0. -1.
</event>
<event>
 7    1  0.2090370E-015  0.9000721E+02  0.7816164E-02  0.1186340E+00
        -11   -1    0    0    0    0  0.00000000000E+00  0.00000000000E+00  0.45593999997E+02  0.45594000000E+02  0.51100000000E-03 0. -1.
         11   -1    0    0    0    0 -0.00000000000E+00 -0.00000000000E+00 -0.45593999997E+02  0.45594000000E+02  0.51100000000E-03 0.  1.
    9900012    2    1    2    0    0 -0.17658543272E+00 -0.55517847465E+00 -0.10270597799E+01  0.90007213252E+02  0.89999467665E+02 0.  0.
         12    1    1    2    0    0  0.17658543272E+00  0.55517847465E+00  0.10270597799E+01  0.11807867484E+01  0.00000000000E+00 0. -1.
         11    1    3    3    0    0  0.88493028425E+01  0.28338874025E+01 -0.27762537735E+01  0.96978690383E+01  0.51100000000E-03 0. -1.
        -11    1    3    3    0    0 -0.11079446079E+02 -0.24854236677E+02 -0.30905124500E+02  0.41177832954E+02  0.51100000000E-03 0.  1.
         12    1    3    3    0    0  0.20535578036E+01  0.21465170800E+02  0.32654318494E+02  0.39131511259E+02  0.00000000000E+00 0. -1.
</event>
<event>
 7    1  0.2090370E-015  0.9000714E+02  0.7816164E-02  0.1186340E+00
        -11   -1    0    0    0    0  0.00000000000E+00  0.00000000000E+00  0.45593999997E+02  0.45594000000E+02  0.51100000000E-03 0. -1.
         11   -1    0    0    0    0 -0.00000000000E+00 -0.00000000000E+00 -0.45593999997E+02  0.45594000000E+02  0.51100000000E-03 0.  1.
    9900012    2    1    2    0    0  0.13973688185E-01 -0.61320427464E-01 -0.11791870145E+01  0.90007136979E+02  0.89999390385E+02 0.  0.
         12    1    1    2    0    0 -0.13973688185E-01  0.61320427464E-01  0.11791870145E+01  0.11808630208E+01  0.00000000000E+00 0. -1.
         11    1    3    3    0    0 -0.53587627640E+01  0.81336813848E+01  0.33621107131E+01  0.10304217580E+02  0.51100000000E-03 0. -1.
        -11    1    3    3    0    0 -0.36125126036E+02 -0.13440367016E+01 -0.94309770001E+01  0.37360065487E+02  0.51100000000E-03 0.  1.
         12    1    3    3    0    0  0.41497862488E+02 -0.68509651107E+01  0.48896792725E+01  0.42342853912E+02  0.00000000000E+00 0. -1.
</event>
<event>
 7    1  0.2090370E-015  0.9000738E+02  0.7816164E-02  0.1186340E+00
        -11   -1    0    0    0    0  0.00000000000E+00  0.00000000000E+00  0.45593999997E+02  0.45594000000E+02  0.51100000000E-03 0. -1.
         11   -1    0    0    0    0 -0.00000000000E+00 -0.00000000000E+00 -0.45593999997E+02  0.45594000000E+02  0.51100000000E-03 0.  1.
    9900012    2    1    2    0    0 -0.90144388427E-01  0.11770425149E+01 -0.17260412796E-01  0.90007384476E+02  0.89999641151E+02 0.  0.
         12    1    1    2    0    0  0.90144388427E-01 -0.11770425149E+01  0.17260412796E-01  0.11806155236E+01  0.00000000000E+00 0. -1.
         11    1    3    3    0    0  0.23620422331E+02  0.23468095235E+02 -0.54819185244E+01  0.33745033353E+02  0.51100000000E-03 0. -1.
        -11    1    3    3    0    0  0.43709612872E+01  0.11318286969E+02  0.23201080209E+01  0.12352806320E+02  0.51100000000E-03 0.  1.
        -12    1    3    3    0    0 -0.28081528007E+02 -0.33609339689E+02  0.31445500907E+01  0.43909544803E+02  0.00000000000E+00 0.  1.
</event>
<event>
 7    1  0.2090370E-015  0.9000774E+02  0.7816164E-02  0.1186339E+00
        -11   -1    0    0    0    0  0.00000000000E+00  0.00000000000E+00  0.45593999997E+02  0.45594000000E+02  0.51100000000E-03 0.  1.
         11   -1    0    0    0    0 -0.00000000000E+00 -0.00000000000E+00 -0.45593999997E+02  0.45594000000E+02  0.51100000000E-03 0. -1.
    9900012    2    1    2    0    0 -0.20804813575E+00 -0.11383550359E+01 -0.23211357829E+00  0.90007740313E+02  0.90000001686E+02 0.  0.
         12    1    1    2    0    0  0.20804813575E+00  0.11383550359E+01  0.23211357829E+00  0.11802596865E+01  0.00000000000E+00 0. -1.
         11    1    3    3    0    0  0.31564347134E+01  0.62484278665E+01  0.70468516735E+01  0.99329778854E+01  0.51100000000E-03 0. -1.
        -11    1    3    3    0    0  0.35528386871E+02  0.34916879565E+01  0.85311844304E+01  0.36704758090E+02  0.51100000000E-03 0.  1.
         12    1    3    3    0    0 -0.38892869720E+02 -0.10878470859E+02 -0.15810149682E+02  0.43370004338E+02  0.00000000000E+00 0. -1.
</event>
<event>
 7    1  0.2090370E-015  0.9000771E+02  0.7816164E-02  0.1186339E+00
        -11   -1    0    0    0    0  0.00000000000E+00  0.00000000000E+00  0.45593999997E+02  0.45594000000E+02  0.51100000000E-03 0.  1.
         11   -1    0    0    0    0 -0.00000000000E+00 -0.00000000000E+00 -0.45593999997E+02  0.45594000000E+02  0.51100000000E-03 0. -1.
    9900012    2    1    2    0    0  0.14334711563E+00 -0.37039486424E+00  0.11114613788E+01  0.90007708872E+02  0.89999969829E+02 0.  0.
         12    1    1    2    0    0 -0.14334711563E+00  0.37039486424E+00 -0.11114613788E+01  0.11802911283E+01  0.00000000000E+00 0. -1.
         11    1    3    3    0    0  0.34406643041E+02 -0.11732015513E+02  0.12488107591E+02  0.38437092824E+02  0.51100000000E-03 0. -1.
        -11    1    3    3    0    0 -0.17419590069E+01  0.19786980556E+00  0.10612631276E+02  0.10756463940E+02  0.51100000000E-03 0.  1.
        -12    1    3    3    0    0 -0.32521336918E+02  0.11163750843E+02 -0.21989277488E+02  0.40814152107E+02  0.00000000000E+00 0.  1.
</event>
<event>
 7    1  0.2090370E-015  0.9000776E+02  0.7816164E-02  0.1186339E+00
        -11   -1    0    0    0    0  0.00000000000E+00  0.00000000000E+00  0.45593999997E+02  0.45594000000E+02  0.51100000000E-03 0. -1.
         11   -1    0    0    0    0 -0.00000000000E+00 -0.00000000000E+00 -0.45593999997E+02  0.45594000000E+02  0.51100000000E-03 0.  1.
    9900012    2    1    2    0    0 -0.73370219757E+00 -0.52423409437E+00 -0.76146939033E+00  0.90007755986E+02  0.90000017565E+02 0.  0.
         12    1    1    2    0    0  0.73370219757E+00  0.52423409437E+00  0.76146939033E+00  0.11802440141E+01  0.00000000000E+00 0. -1.
         11    1    3    3    0    0 -0.30559326039E+02  0.11048415148E+02 -0.67122543537E+01  0.33181233310E+02  0.51100000000E-03 0. -1.
        -11    1    3    3    0    0 -0.80779712944E+01  0.30413453608E+01 -0.99767551162E+01  0.13192385863E+02  0.51100000000E-03 0.  1.
        -12    1    3    3    0    0  0.37903595135E+02 -0.14613994603E+02  0.15927540080E+02  0.43634136813E+02  0.00000000000E+00 0.  1.
</event>
<event>
 7    1  0.2090370E-015  0.9000774E+02  0.7816164E-02  0.1186339E+00
        -11   -1    0    0    0    0  0.00000000000E+00  0.00000000000E+00  0.45593999997E+02  0.45594000000E+02  0.51100000000E-03 0.  1.
         11   -1    0    0    0    0 -0.00000000000E+00 -0.00000000000E+00 -0.45593999997E+02  0.45594000000E+02  0.51100000000E-03 0. -1.
    9900012    2    1    2    0    0  0.32938427119E+00 -0.37843757321E+00  0.10683134367E+01  0.90007744691E+02  0.90000006121E+02 0.  0.
         12    1    1    2    0    0 -0.32938427119E+00  0.37843757321E+00 -0.10683134367E+01  0.11802553088E+01  0.00000000000E+00 0. -1.
         11    1    3    3    0    0  0.54603082750E+01  0.23540723165E+02 -0.16062481129E+02  0.29016959073E+02  0.51100000000E-03 0. -1.
        -11    1    3    3    0    0  0.18672569714E+02  0.22220529625E+01  0.17422237680E+02  0.25634678564E+02  0.51100000000E-03 0.  1.
        -12    1    3    3    0    0 -0.23803493717E+02 -0.26141213700E+02 -0.29144311380E+00  0.35356107053E+02  0.00000000000E+00 0.  1.
</event>
<event>
 7    1  0.2090370E-015  0.9000779E+02  0.7816164E-02  0.1186339E+00
        -11   -1    0    0    0    0  0.00000000000E+00  0.00000000000E+00  0.45593999997E+02  0.45594000000E+02  0.51100000000E-03 0.  1.
         11   -1    0    0    0    0 -0.00000000000E+00 -0.00000000000E+00 -0.45593999997E+02  0.45594000000E+02  0.51100000000E-03 0. -1.
    9900012    2    1    2    0    0 -0.32231486469E-01 -0.11506297053E+01  0.26058850891E+00  0.90007790714E+02  0.90000052752E+02 0.  0.
         12    1    1    2    0    0  0.32231486469E-01  0.11506297053E+01 -0.26058850891E+00  0.11802092858E+01  0.00000000000E+00 0. -1.
         11    1    3    3    0    0 -0.18798516857E+02 -0.58270240795E+01 -0.33256102000E+02  0.38643327576E+02  0.51100000000E-03 0. -1.
        -11    1    3    3    0    0  0.46951146783E+01 -0.42654889646E+01 -0.58399128689E+01  0.86222433582E+01  0.51100000000E-03 0.  1.
        -12    1    3    3    0    0  0.14071170692E+02  0.89418833388E+01  0.39356603378E+02  0.42742219780E+02  0.00000000000E+00 0.  1.
</event>
<event>
 7    1  0.2090370E-015  0.9000750E+02  0.7816164E-02  0.1186340E+00
        -11   -1    0    0    0    0  0.00000000000E+00  0.00000000000E+00  0.45593999997E+02  0.45594000000E+02  0.51100000000E-03 0. -1.
         11   -1    0    0    0    0 -0.00000000000E+00 -0.00000000000E+00 -0.45593999997E+02  0.45594000000E+02  0.51100000000E-03 0.  1.
    9900012    2    1    2    0    0 -0.10190608327E+01 -0.59587634453E+00 -0.45814483278E-02  0.90007502398E+02  0.89999760629E+02 0.  0.
         12    1    1    2    0    0  0.10190608327E+01  0.59587634453E+00  0.45814483278E-02  0.11804976021E+01  0.00000000000E+00 0. -1.
         11    1    3    3    0    0  0.63296517523E+01 -0.38543213279E+01  0.55745545475E+01  0.92733997470E+01  0.51100000000E-03 0. -1.
        -11    1    3    3    0    0  0.65599857332E+01 -0.37027336978E+02 -0.61928942507E+01  0.38110484593E+02  0.51100000000E-03 0.  1.
         12    1    3    3    0    0 -0.13908698318E+02  0.40285781961E+02  0.61375825494E+00  0.42623618058E+02  0.00000000000E+00 0. -1.
</event>
<event>
 7    1  0.2090370E-015  0.9000775E+02  0.7816164E-02  0.1186339E+00
        -11   -1    0    0    0    0  0.00000000000E+00  0.00000000000E+00  0.45593999997E+02  0.45594000000E+02  0.51100000000E-03 0.  1.
         11   -1    0    0    0    0 -0.00000000000E+00 -0.00000000000E+00 -0.45593999997E+02  0.45594000000E+02  0.51100000000E-03 0. -1.
    9900012    2    1    2    0    0 -0.20169106062E-01 -0.11387510675E+01  0.30957086331E+00  0.90007747948E+02  0.90000009421E+02 0.  0.
         12    1    1    2    0    0  0.20169106062E-01  0.11387510675E+01 -0.30957086331E+00  0.11802520519E+01  0.00000000000E+00 0. -1.
         11    1    3    3    0    0  0.37747768032E+01  0.41519680368E+01 -0.57380261163E+01  0.80257537007E+01  0.51100000000E-03 0. -1.
        -11    1    3    3    0    0  0.12960589196E+02  0.24424991898E+02  0.29616617607E+02  0.40517911352E+02  0.51100000000E-03 0.  1.
         12    1    3    3    0    0 -0.16755535105E+02 -0.29715711002E+02 -0.23569020628E+02  0.41464082896E+02  0.00000000000E+00 0. -1.
</event>
<event>
 7    1  0.2090370E-015  0.9000770E+02  0.7816164E-02  0.1186339E+00
        -11   -1    0    0    0    0  0.00000000000E+00  0.00000000000E+00  0.45593999997E+02  0.45594000000E+02  0.51100000000E-03 0.  1.
         11   -1    0    0    0    0 -0.00000000000E+00 -0.00000000000E+00 -0.45593999997E+02  0.45594000000E+02  0.51100000000E-03 0. -1.
    9900012    2    1    2    0    0  0.87658626528E+00  0.65410631170E+00  0.44366684277E+00  0.90007703929E+02  0.89999964821E+02 0.  0.
         12    1    1    2    0    0 -0.87658626528E+00 -0.65410631170E+00 -0.44366684277E+00  0.11802960708E+01  0.00000000000E+00 0. -1.
         11    1    3    3    0    0  0.50454102515E+01  0.56589443029E+01 -0.23653521076E+01  0.79419585798E+01  0.51100000000E-03 0. -1.
        -11    1    3    3    0    0 -0.21749445672E+02  0.30220226526E+02 -0.13288372339E+02  0.39533293792E+02  0.51100000000E-03 0.  1.
         12    1    3    3    0    0  0.17580621686E+02 -0.35225064518E+02  0.16097391289E+02  0.42532451557E+02  0.00000000000E+00 0. -1.
</event>
<event>
 7    1  0.2090370E-015  0.9000764E+02  0.7816164E-02  0.1186339E+00
        -11   -1    0    0    0    0  0.00000000000E+00  0.00000000000E+00  0.45593999997E+02  0.45594000000E+02  0.51100000000E-03 0. -1.
         11   -1    0    0    0    0 -0.00000000000E+00 -0.00000000000E+00 -0.45593999997E+02  0.45594000000E+02  0.51100000000E-03 0.  1.
    9900012    2    1    2    0    0  0.61323533359E+00 -0.92209114260E+00 -0.40857396924E+00  0.90007643131E+02  0.89999903220E+02 0.  0.
         12    1    1    2    0    0 -0.61323533359E+00  0.92209114260E+00  0.40857396924E+00  0.11803568689E+01  0.00000000000E+00 0. -1.
         11    1    3    3    0    0 -0.17918569994E+02  0.19406004514E+02 -0.19438078807E+02  0.32794924452E+02  0.51100000000E-03 0. -1.
        -11    1    3    3    0    0 -0.13694158490E+02 -0.45465252510E+01 -0.34946934089E+01  0.14846337962E+02  0.51100000000E-03 0.  1.
         12    1    3    3    0    0  0.32225963817E+02 -0.15781570406E+02  0.22524198247E+02  0.42366380717E+02  0.00000000000E+00 0. -1.
</event>
<event>
 7    1  0.2090370E-015  0.9000774E+02  0.7816164E-02  0.1186339E+00
        -11   -1    0    0    0    0  0.00000000000E+00  0.00000000000E+00  0.45593999997E+02  0.45594000000E+02  0.51100000000E-03 0. -1.
         11   -1    0    0    0    0 -0.00000000000E+00 -0.00000000000E+00 -0.45593999997E+02  0.45594000000E+02  0.51100000000E-03 0.  1.
    9900012    2    1    2    0    0  0.97192430590E-02  0.82060561984E+00 -0.84825335390E+00  0.90007736555E+02  0.89999997878E+02 0.  0.
         12    1    1    2    0    0 -0.97192430590E-02 -0.82060561984E+00  0.84825335390E+00  0.11802634449E+01  0.00000000000E+00 0. -1.
         11    1    3    3    0    0  0.73439461800E+01 -0.78630500917E+01 -0.25961380090E+01  0.11068018570E+02  0.51100000000E-03 0. -1.
        -11    1    3    3    0    0  0.19718094032E+02 -0.11891255095E+02 -0.26240782671E+02  0.34911084993E+02  0.51100000000E-03 0.  1.
         12    1    3    3    0    0 -0.27052320968E+02  0.20574910806E+02  0.27988667326E+02  0.44028632992E+02  0.00000000000E+00 0. -1.
</event>
<event>
 7    1  0.2090370E-015  0.9000768E+02  0.7816164E-02  0.1186339E+00
        -11   -1    0    0    0    0  0.00000000000E+00  0.00000000000E+00  0.45593999997E+02  0.45594000000E+02  0.51100000000E-03 0. -1.
         11   -1    0    0    0    0 -0.00000000000E+00 -0.00000000000E+00 -0.45593999997E+02  0.45594000000E+02  0.51100000000E-03 0.  1.
    9900012    2    1    2    0    0  0.10593047621E+01  0.45496144813E+00  0.25304950378E+00  0.90007682013E+02  0.89999942616E+02 0.  0.
         12    1    1    2    0    0 -0.10593047621E+01 -0.45496144813E+00 -0.25304950378E+00  0.11803179867E+01  0.00000000000E+00 0. -1.
         11    1    3    3    0    0  0.46185107698E+01  0.54012831537E+01 -0.35632110503E+01  0.79499040678E+01  0.51100000000E-03 0. -1.
        -11    1    3    3    0    0 -0.48507768839E+01  0.10644147523E+02 -0.36756837069E+02  0.38573215894E+02  0.51100000000E-03 0.  1.
         12    1    3    3    0    0  0.12915708761E+01 -0.15590469228E+02  0.40573097623E+02  0.43484562051E+02  0.00000000000E+00 0. -1.
</event>
<event>
 7    1  0.2090370E-015  0.9000771E+02  0.7816164E-02  0.1186339E+00
        -11   -1    0    0    0    0  0.00000000000E+00  0.00000000000E+00  0.45593999997E+02  0.45594000000E+02  0.51100000000E-03 0. -1.
         11   -1    0    0    0    0 -0.00000000000E+00 -0.00000000000E+00 -0.45593999997E+02  0.45594000000E+02  0.51100000000E-03 0.  1.
    9900012    2    1    2    0    0  0.10973402594E+01 -0.39865265573E+00 -0.17324321413E+00  0.90007706479E+02  0.89999967404E+02 0.  0.
         12    1    1    2    0    0 -0.10973402594E+01  0.39865265573E+00  0.17324321413E+00  0.11802935211E+01  0.00000000000E+00 0. -1.
         11    1    3    3    0    0  0.24169894891E+02 -0.22046111949E+02  0.17014361803E+02  0.36874155976E+02  0.51100000000E-03 0. -1.
        -11    1    3    3    0    0 -0.10616144586E+02 -0.10956653294E+02 -0.35684859113E+01  0.15667956767E+02  0.51100000000E-03 0.  1.
        -12    1    3    3    0    0 -0.12456410046E+02  0.32604112587E+02 -0.13619119106E+02  0.37465593737E+02  0.00000000000E+00 0.  1.
</event>
<event>
 7    1  0.2090370E-015  0.9000773E+02  0.7816164E-02  0.1186339E+00
        -11   -1    0    0    0    0  0.00000000000E+00  0.00000000000E+00  0.45593999997E+02  0.45594000000E+02  0.51100000000E-03 0. -1.
         11   -1    0    0    0    0 -0.00000000000E+00 -0.00000000000E+00 -0.45593999997E+02  0.45594000000E+02  0.51100000000E-03 0.  1.
    9900012    2    1    2    0    0 -0.82990801944E+00 -0.24976733280E+00  0.80118397730E+00  0.90007734434E+02  0.89999995728E+02 0.  0.
         12    1    1    2    0    0  0.82990801944E+00  0.24976733280E+00 -0.80118397730E+00  0.11802655662E+01  0.00000000000E+00 0. -1.
         11    1    3    3    0    0  0.10476796721E+02 -0.46442408231E+01  0.15919824806E+00  0.11461133744E+02  0.51100000000E-03 0. -1.
        -11    1    3    3    0    0 -0.13067569734E+02 -0.58270054201E+01 -0.36911256199E+02  0.39587323797E+02  0.51100000000E-03 0.  1.
         12    1    3    3    0    0  0.17608649941E+01  0.10221478910E+02  0.37553241929E+02  0.38959276893E+02  0.00000000000E+00 0. -1.
</event>
<event>
 7    1  0.2090370E-015  0.9000752E+02  0.7816164E-02  0.1186339E+00
        -11   -1    0    0    0    0  0.00000000000E+00  0.00000000000E+00  0.45593999997E+02  0.45594000000E+02  0.51100000000E-03 0.  1.
         11   -1    0    0    0    0 -0.00000000000E+00 -0.00000000000E+00 -0.45593999997E+02  0.45594000000E+02  0.51100000000E-03 0. -1.
    9900012    2    1    2    0    0 -0.33565584172E+00 -0.25259083125E+00  0.11032116659E+01  0.90007515798E+02  0.89999774206E+02 0.  0.
         12    1    1    2    0    0  0.33565584172E+00  0.25259083125E+00 -0.11032116659E+01  0.11804842023E+01  0.00000000000E+00 0. -1.
         11    1    3    3    0    0  0.11582394583E+01 -0.97596024996E+01  0.27112157493E+01  0.10195197433E+02  0.51100000000E-03 0. -1.
        -11    1    3    3    0    0 -0.13435936514E+02 -0.88117502956E+01  0.34239105173E+02  0.37821788120E+02  0.51100000000E-03 0.  1.
         12    1    3    3    0    0  0.11942041214E+02  0.18318761964E+02 -0.35847109256E+02  0.41990530245E+02  0.00000000000E+00 0. -1.
</event>
<event>
 7    1  0.2090370E-015  0.9000797E+02  0.7816164E-02  0.1186339E+00
        -11   -1    0    0    0    0  0.00000000000E+00  0.00000000000E+00  0.45593999997E+02  0.45594000000E+02  0.51100000000E-03 0. -1.
         11   -1    0    0    0    0 -0.00000000000E+00 -0.00000000000E+00 -0.45593999997E+02  0.45594000000E+02  0.51100000000E-03 0.  1.
    9900012    2    1    2    0    0  0.87944286019E+00  0.31751080104E+00 -0.71987951591E+00  0.90007974843E+02  0.90000239311E+02 0.  0.
         12    1    1    2    0    0 -0.87944286019E+00 -0.31751080104E+00  0.71987951591E+00  0.11800251567E+01  0.00000000000E+00 0. -1.
         11    1    3    3    0    0 -0.58589601979E+01  0.17735708284E+02  0.30455408614E+02  0.35726946092E+02  0.51100000000E-03 0. -1.
        -11    1    3    3    0    0 -0.10756813092E+02  0.14299835333E+01  0.32345125614E+01  0.11323248322E+02  0.51100000000E-03 0.  1.
        -12    1    3    3    0    0  0.17495216150E+02 -0.18848181016E+02 -0.34409800692E+02  0.42957780429E+02  0.00000000000E+00 0.  1.
</event>
<event>
 7    1  0.2090370E-015  0.9000776E+02  0.7816164E-02  0.1186339E+00
        -11   -1    0    0    0    0  0.00000000000E+00  0.00000000000E+00  0.45593999997E+02  0.45594000000E+02  0.51100000000E-03 0.  1.
         11   -1    0    0    0    0 -0.00000000000E+00 -0.00000000000E+00 -0.45593999997E+02  0.45594000000E+02  0.51100000000E-03 0. -1.
    9900012    2    1    2    0    0  0.91435873199E+00 -0.62571709559E+00 -0.40667318916E+00  0.90007764067E+02  0.90000025753E+02 0.  0.
         12    1    1    2    0    0 -0.91435873199E+00  0.62571709559E+00  0.40667318916E+00  0.11802359329E+01  0.00000000000E+00 0. -1.
         11    1    3    3    0    0 -0.18003583823E+02 -0.20297927469E+02 -0.34341347170E+02  0.43766002967E+02  0.51100000000E-03 0. -1.
        -11    1    3    3    0    0  0.88333485136E+01  0.45878082169E+01  0.30309580988E+01  0.10404938128E+02  0.51100000000E-03 0.  1.
        -12    1    3    3    0    0  0.10084594042E+02  0.15084402156E+02  0.30903715882E+02  0.35836822972E+02  0.00000000000E+00 0.  1.
</event>
<event>
 7    1  0.2175169E-015  0.9000783E+02  0.7816164E-02  0.1186339E+00
        -11   -1    0    0    0    0  0.00000000000E+00  0.00000000000E+00  0.45593999997E+02  0.45594000000E+02  0.51100000000E-03 0. -1.
         11   -1    0    0    0    0 -0.00000000000E+00 -0.00000000000E+00 -0.45593999997E+02  0.45594000000E+02  0.51100000000E-03 0.  1.
    9900012    2    1    2    0    0 -0.51604149785E+00 -0.16960477019E+00 -0.10477297665E+01  0.90007829559E+02  0.90000092109E+02 0.  0.
         12    1    1    2    0    0  0.51604149785E+00  0.16960477019E+00  0.10477297665E+01  0.11801704407E+01  0.00000000000E+00 0. -1.
         11    1    3    3    0    0  0.16652377931E+02 -0.15689431227E+02  0.36987366118E+02  0.43491668117E+02  0.51100000000E-03 0. -1.
        -11    1    3    3    0    0  0.18371536415E+01  0.33451987867E+01 -0.87211776484E+01  0.95196863530E+01  0.51100000000E-03 0.  1.
        -12    1    3    3    0    0 -0.19005573070E+02  0.12174627670E+02 -0.29313918236E+02  0.36996475089E+02  0.00000000000E+00 0.  1.
</event>
<event>
 7    1  0.2090370E-015  0.9000772E+02  0.7816164E-02  0.1186339E+00
        -11   -1    0    0    0    0  0.00000000000E+00  0.00000000000E+00  0.45593999997E+02  0.45594000000E+02  0.51100000000E-03 0.  1.
         11   -1    0    0    0    0 -0.00000000000E+00 -0.00000000000E+00 -0.45593999997E+02  0.45594000000E+02  0.51100000000E-03 0. -1.
    9900012    2    1    2    0    0  0.62306286900E+00 -0.61168599135E+00  0.79415586194E+00  0.90007724344E+02  0.89999985505E+02 0.  0.
         12    1    1    2    0    0 -0.62306286900E+00  0.61168599135E+00 -0.79415586194E+00  0.11802756558E+01  0.00000000000E+00 0. -1.
         11    1    3    3    0    0 -0.27113231037E+02  0.24795213268E+02  0.78549129525E+01  0.37571658947E+02  0.51100000000E-03 0. -1.
        -11    1    3    3    0    0 -0.34599283459E+01 -0.38485802605E+01  0.96862981694E+01  0.10982123960E+02  0.51100000000E-03 0.  1.
        -12    1    3    3    0    0  0.31196222252E+02 -0.21558318999E+02 -0.16747055260E+02  0.41453941438E+02  0.00000000000E+00 0.  1.
</event>
<event>
 7    1  0.2090370E-015  0.9000772E+02  0.7816164E-02  0.1186339E+00
        -11   -1    0    0    0    0  0.00000000000E+00  0.00000000000E+00  0.45593999997E+02  0.45594000000E+02  0.51100000000E-03 0. -1.
         11   -1    0    0    0    0 -0.00000000000E+00 -0.00000000000E+00 -0.45593999997E+02  0.45594000000E+02  0.51100000000E-03 0.  1.
    9900012    2    1    2    0    0  0.10963093218E+01 -0.42298984404E+00  0.11062614108E+00  0.90007723473E+02  0.89999984623E+02 0.  0.
         12    1    1    2    0    0 -0.10963093218E+01  0.42298984404E+00 -0.11062614108E+00  0.11802765270E+01  0.00000000000E+00 0. -1.
         11    1    3    3    0    0  0.96020837301E+01  0.25148045247E+02  0.28198960712E+02  0.38984683880E+02  0.51100000000E-03 0. -1.
        -11    1    3    3    0    0 -0.95503393938E+01  0.41767512985E+01 -0.15557798453E+02  0.18726967905E+02  0.51100000000E-03 0.  1.
        -12    1    3    3    0    0  0.10445649854E+01 -0.29747786389E+02 -0.12530536118E+02  0.32296071688E+02  0.00000000000E+00 0.  1.
</event>
<event>
 7    1  0.2090370E-015  0.9000774E+02  0.7816164E-02  0.1186339E+00
        -11   -1    0    0    0    0  0.00000000000E+00  0.00000000000E+00  0.45593999997E+02  0.45594000000E+02  0.51100000000E-03 0. -1.
         11   -1    0    0    0    0 -0.00000000000E+00 -0.00000000000E+00 -0.45593999997E+02  0.45594000000E+02  0.51100000000E-03 0.  1.
    9900012    2    1    2    0    0 -0.85502591849E+00 -0.68881203235E+00  0.43298969347E+00  0.90007740956E+02  0.90000002336E+02 0.  0.
         12    1    1    2    0    0  0.85502591849E+00  0.68881203235E+00 -0.43298969347E+00  0.11802590444E+01  0.00000000000E+00 0. -1.
         11    1    3    3    0    0 -0.35156655558E+02 -0.89204279668E+00  0.86134220488E+01  0.36207419268E+02  0.51100000000E-03 0. -1.
        -11    1    3    3    0    0 -0.61109681684E+01  0.94748784594E+01  0.10479150981E+01  0.11323223043E+02  0.51100000000E-03 0.  1.
        -12    1    3    3    0    0  0.40412597808E+02 -0.92716476950E+01 -0.92283474535E+01  0.42477098645E+02  0.00000000000E+00 0.  1.
</event>
<event>
 7    1  0.2090370E-015  0.9000761E+02  0.7816164E-02  0.1186339E+00
        -11   -1    0    0    0    0  0.00000000000E+00  0.00000000000E+00  0.45593999997E+02  0.45594000000E+02  0.51100000000E-03 0. -1.
         11   -1    0    0    0    0 -0.00000000000E+00 -0.00000000000E+00 -0.45593999997E+02  0.45594000000E+02  0.51100000000E-03 0.  1.
    9900012    2    1    2    0    0 -0.16802944270E+00 -0.86501631098E+00 -0.78539203588E+00  0.90007606946E+02  0.89999866558E+02 0.  0.
         12    1    1    2    0    0  0.16802944270E+00  0.86501631098E+00  0.78539203588E+00  0.11803930540E+01  0.00000000000E+00 0. -1.
         11    1    3    3    0    0 -0.66681357949E+01 -0.89754813823E+01  0.19449829786E+02  0.22434776130E+02  0.51100000000E-03 0. -1.
        -11    1    3    3    0    0 -0.25794194298E+02  0.16220321428E+02 -0.14655340474E+02  0.33811511226E+02  0.51100000000E-03 0.  1.
         12    1    3    3    0    0  0.32294300650E+02 -0.81098563569E+01 -0.55798813482E+01  0.33761319590E+02  0.00000000000E+00 0. -1.
</event>
<event>
 7    1  0.2090370E-015  0.9000833E+02  0.7816164E-02  0.1186338E+00
        -11   -1    0    0    0    0  0.00000000000E+00  0.00000000000E+00  0.45593999997E+02  0.45594000000E+02  0.51100000000E-03 0. -1.
         11   -1    0    0    0    0 -0.00000000000E+00 -0.00000000000E+00 -0.45593999997E+02  0.45594000000E+02  0.51100000000E-03 0.  1.
    9900012    2    1    2    0    0  0.96402264699E+00  0.65712507457E+00 -0.17457395997E+00  0.90008326700E+02  0.90000595810E+02 0.  0.
         12    1    1    2    0    0 -0.96402264699E+00 -0.65712507457E+00  0.17457395997E+00  0.11796733001E+01  0.00000000000E+00 0. -1.
         11    1    3    3    0    0 -0.54214218662E+01  0.16560342539E+00 -0.99609608175E+00  0.55146574881E+01  0.51100000000E-03 0. -1.
        -11    1    3    3    0    0  0.21367011645E+02  0.21416281015E+02 -0.31169166856E+02  0.43436427591E+02  0.51100000000E-03 0.  1.
         12    1    3    3    0    0 -0.14981567132E+02 -0.20924759365E+02  0.31990688978E+02  0.41057241621E+02  0.00000000000E+00 0. -1.
</event>
<event>
 7    1  0.2090370E-015  0.9000773E+02  0.7816164E-02  0.1186339E+00
        -11   -1    0    0    0    0  0.00000000000E+00  0.00000000000E+00  0.45593999997E+02  0.45594000000E+02  0.51100000000E-03 0.  1.
         11   -1    0    0    0    0 -0.00000000000E+00 -0.00000000000E+00 -0.45593999997E+02  0.45594000000E+02  0.51100000000E-03 0. -1.
    9900012    2    1    2    0    0  0.80899477968E+00  0.40511293375E+00  0.75792522620E+00  0.90007728976E+02  0.89999990198E+02 0.  0.
         12    1    1    2    0    0 -0.80899477968E+00 -0.40511293375E+00 -0.75792522620E+00  0.11802710244E+01  0.00000000000E+00 0. -1.
         11    1    3    3    0    0  0.26525918208E+00  0.99083732111E+01 -0.27671874890E+01  0.10290945000E+02  0.51100000000E-03 0. -1.
        -11    1    3    3    0    0 -0.34731474004E+02 -0.21751648655E+02  0.90530655043E+01  0.41968649025E+02  0.51100000000E-03 0.  1.
         12    1    3    3    0    0  0.35275209601E+02  0.12248388377E+02 -0.55279527891E+01  0.37748134951E+02  0.00000000000E+00 0. -1.
</event>
<event>
 7    1  0.2090370E-015  0.9000772E+02  0.7816164E-02  0.1186339E+00
        -11   -1    0    0    0    0  0.00000000000E+00  0.00000000000E+00  0.45593999997E+02  0.45594000000E+02  0.51100000000E-03 0.  1.
         11   -1    0    0    0    0 -0.00000000000E+00 -0.00000000000E+00 -0.45593999997E+02  0.45594000000E+02  0.51100000000E-03 0. -1.
    9900012    2    1    2    0    0 -0.14287230744E+00 -0.77904810350E+00  0.87506497611E+00  0.90007717341E+02  0.89999978409E+02 0.  0.
         12    1    1    2    0    0  0.14287230744E+00  0.77904810350E+00 -0.87506497611E+00  0.11802826595E+01  0.00000000000E+00 0. -1.
         11    1    3    3    0    0  0.22562426510E+02  0.28671503797E+02  0.23711277034E+00  0.36485263364E+02  0.51100000000E-03 0. -1.
        -11    1    3    3    0    0 -0.34980596694E+00  0.83422103948E+01 -0.42011885362E+01  0.93469152057E+01  0.51100000000E-03 0.  1.
        -12    1    3    3    0    0 -0.22355492851E+02 -0.37792762296E+02  0.48391407419E+01  0.44175538770E+02  0.00000000000E+00 0.  1.
</event>
<event>
 7    1  0.2090370E-015  0.9000770E+02  0.7816164E-02  0.1186339E+00
        -11   -1    0    0    0    0  0.00000000000E+00  0.00000000000E+00  0.45593999997E+02  0.45594000000E+02  0.51100000000E-03 0.  1.
         11   -1    0    0    0    0 -0.00000000000E+00 -0.00000000000E+00 -0.45593999997E+02  0.45594000000E+02  0.51100000000E-03 0. -1.
    9900012    2    1    2    0    0  0.54484634438E-01  0.95218163220E+00  0.69532693904E+00  0.90007704279E+02  0.89999965176E+02 0.  0.
         12    1    1    2    0    0 -0.54484634438E-01 -0.95218163220E+00 -0.69532693904E+00  0.11802957207E+01  0.00000000000E+00 0. -1.
         11    1    3    3    0    0 -0.11333263773E+02 -0.38359464274E+02  0.11155929148E+02  0.41525246809E+02  0.51100000000E-03 0. -1.
        -11    1    3    3    0    0  0.70549614183E+01  0.88259453509E+00 -0.64549730996E+01  0.96030272157E+01  0.51100000000E-03 0.  1.
        -12    1    3    3    0    0  0.43327869887E+01  0.38429051371E+02 -0.40056291093E+01  0.38879430255E+02  0.00000000000E+00 0.  1.
</event>
<event>
 7    1  0.2090370E-015  0.9000759E+02  0.7816164E-02  0.1186339E+00
        -11   -1    0    0    0    0  0.00000000000E+00  0.00000000000E+00  0.45593999997E+02  0.45594000000E+02  0.51100000000E-03 0.  1.
         11   -1    0    0    0    0 -0.00000000000E+00 -0.00000000000E+00 -0.45593999997E+02  0.45594000000E+02  0.51100000000E-03 0. -1.
    9900012    2    1    2    0    0  0.38992728312E+00 -0.10434204466E+01  0.39064022428E+00  0.90007589351E+02  0.89999848731E+02 0.  0.
         12    1    1    2    0    0 -0.38992728312E+00  0.10434204466E+01 -0.39064022428E+00  0.11804106486E+01  0.00000000000E+00 0. -1.
         11    1    3    3    0    0  0.88889139478E+01  0.40318099492E+01 -0.43972489098E+01  0.10705329555E+02  0.51100000000E-03 0. -1.
        -11    1    3    3    0    0  0.83862202510E+01  0.32937633756E+01  0.39116649579E+02  0.40140874951E+02  0.51100000000E-03 0.  1.
         12    1    3    3    0    0 -0.16885206916E+02 -0.83689937714E+01 -0.34328760445E+02  0.39161384846E+02  0.00000000000E+00 0. -1.
</event>
<event>
 7    1  0.2090370E-015  0.9000781E+02  0.7816164E-02  0.1186339E+00
        -11   -1    0    0    0    0  0.00000000000E+00  0.00000000000E+00  0.45593999997E+02  0.45594000000E+02  0.51100000000E-03 0.  1.
         11   -1    0    0    0    0 -0.00000000000E+00 -0.00000000000E+00 -0.45593999997E+02  0.45594000000E+02  0.51100000000E-03 0. -1.
    9900012    2    1    2    0    0  0.44298061051E+00 -0.10412997396E+01 -0.33511998604E+00  0.90007812568E+02  0.90000074894E+02 0.  0.
         12    1    1    2    0    0 -0.44298061051E+00  0.10412997396E+01  0.33511998604E+00  0.11801874317E+01  0.00000000000E+00 0. -1.
         11    1    3    3    0    0 -0.19504435898E+00  0.35114112024E+02 -0.11429690282E+02  0.36927993796E+02  0.51100000000E-03 0. -1.
        -11    1    3    3    0    0 -0.85739961400E+00  0.78008007230E+01  0.27354737338E+01  0.83108629412E+01  0.51100000000E-03 0.  1.
        -12    1    3    3    0    0  0.14954245835E+01 -0.43956212487E+02  0.83590965626E+01  0.44768955831E+02  0.00000000000E+00 0.  1.
</event>
<event>
 7    1  0.2090370E-015  0.9000770E+02  0.7816164E-02  0.1186339E+00
        -11   -1    0    0    0    0  0.00000000000E+00  0.00000000000E+00  0.45593999997E+02  0.45594000000E+02  0.51100000000E-03 0.  1.
         11   -1    0    0    0    0 -0.00000000000E+00 -0.00000000000E+00 -0.45593999997E+02  0.45594000000E+02  0.51100000000E-03 0. -1.
    9900012    2    1    2    0    0 -0.23297627733E+00 -0.10824292109E+01  0.40888021260E+00  0.90007697509E+02  0.89999958316E+02 0.  0.
         12    1    1    2    0    0  0.23297627733E+00  0.10824292109E+01 -0.40888021260E+00  0.11803024912E+01  0.00000000000E+00 0. -1.
         11    1    3    3    0    0 -0.50619419317E+01 -0.11723188072E+02  0.80488705625E-02  0.12769356277E+02  0.51100000000E-03 0. -1.
        -11    1    3    3    0    0  0.36960105427E+01 -0.16984792578E+02  0.31282856357E+02  0.35787718214E+02  0.51100000000E-03 0.  1.
         12    1    3    3    0    0  0.11329551116E+01  0.27625551439E+02 -0.30882025015E+02  0.41450623018E+02  0.00000000000E+00 0. -1.
</event>
<event>
 7    1  0.2090370E-015  0.9000777E+02  0.7816164E-02  0.1186339E+00
        -11   -1    0    0    0    0  0.00000000000E+00  0.00000000000E+00  0.45593999997E+02  0.45594000000E+02  0.51100000000E-03 0.  1.
         11   -1    0    0    0    0 -0.00000000000E+00 -0.00000000000E+00 -0.45593999997E+02  0.45594000000E+02  0.51100000000E-03 0. -1.
    9900012    2    1    2    0    0 -0.27879693215E-01  0.60089257766E+00  0.10154248985E+01  0.90007772525E+02  0.90000034323E+02 0.  0.
         12    1    1    2    0    0  0.27879693215E-01 -0.60089257766E+00 -0.10154248985E+01  0.11802274745E+01  0.00000000000E+00 0. -1.
         11    1    3    3    0    0 -0.25858624796E+01  0.36834388683E+01  0.62380903738E+01  0.76920854411E+01  0.51100000000E-03 0. -1.
        -11    1    3    3    0    0  0.16386450320E+02 -0.38732451993E+02  0.59593617818E+01  0.42476259070E+02  0.51100000000E-03 0.  1.
         12    1    3    3    0    0 -0.13828467534E+02  0.35649905702E+02 -0.11182027257E+02  0.39839428014E+02  0.00000000000E+00 0. -1.
</event>
<event>
 7    1  0.2090370E-015  0.9000779E+02  0.7816164E-02  0.1186339E+00
        -11   -1    0    0    0    0  0.00000000000E+00  0.00000000000E+00  0.45593999997E+02  0.45594000000E+02  0.51100000000E-03 0.  1.
         11   -1    0    0    0    0 -0.00000000000E+00 -0.00000000000E+00 -0.45593999997E+02  0.45594000000E+02  0.51100000000E-03 0. -1.
    9900012    2    1    2    0    0  0.11981379961E+00 -0.11107609656E+01  0.38047569962E+00  0.90007785177E+02  0.90000047142E+02 0.  0.
         12    1    1    2    0    0 -0.11981379961E+00  0.11107609656E+01 -0.38047569962E+00  0.11802148225E+01  0.00000000000E+00 0. -1.
         11    1    3    3    0    0  0.39124009232E+02 -0.15775479178E+02 -0.31897113561E+01  0.42305178176E+02  0.51100000000E-03 0. -1.
        -11    1    3    3    0    0 -0.87145159300E+00  0.81864089847E+01  0.36936388041E+01  0.90232858661E+01  0.51100000000E-03 0.  1.
        -12    1    3    3    0    0 -0.38132743839E+02  0.64783092276E+01 -0.12345174841E+00  0.38679321136E+02  0.00000000000E+00 0.  1.
</event>
<event>
 7    1  0.2090370E-015  0.9000774E+02  0.7816164E-02  0.1186339E+00
        -11   -1    0    0    0    0  0.00000000000E+00  0.00000000000E+00  0.45593999997E+02  0.45594000000E+02  0.51100000000E-03 0. -1.
         11   -1    0    0    0    0 -0.00000000000E+00 -0.00000000000E+00 -0.45593999997E+02  0.45594000000E+02  0.51100000000E-03 0.  1.
    9900012    2    1    2    0    0  0.10486352044E+00 -0.40764390157E+00 -0.11026496028E+01  0.90007743225E+02  0.90000004636E+02 0.  0.
         12    1    1    2    0    0 -0.10486352044E+00  0.40764390157E+00  0.11026496028E+01  0.11802567750E+01  0.00000000000E+00 0. -1.
         11    1    3    3    0    0 -0.74945520536E+01 -0.12385312361E+01  0.32543329942E+01  0.82639550825E+01  0.51100000000E-03 0. -1.
        -11    1    3    3    0    0  0.13349997448E+00 -0.26760015180E+02 -0.32181381527E+02  0.41854002819E+02  0.51100000000E-03 0.  1.
         12    1    3    3    0    0  0.74659155996E+01  0.27590902515E+02  0.27824398930E+02  0.39889785324E+02  0.00000000000E+00 0. -1.
</event>
<event>
 7    1  0.2090370E-015  0.9000770E+02  0.7816164E-02  0.1186339E+00
        -11   -1    0    0    0    0  0.00000000000E+00  0.00000000000E+00  0.45593999997E+02  0.45594000000E+02  0.51100000000E-03 0. -1.
         11   -1    0    0    0    0 -0.00000000000E+00 -0.00000000000E+00 -0.45593999997E+02  0.45594000000E+02  0.51100000000E-03 0.  1.
    9900012    2    1    2    0    0 -0.86217977292E+00  0.40463080203E+00 -0.69716079393E+00  0.90007697827E+02  0.89999958638E+02 0.  0.
         12    1    1    2    0    0  0.86217977292E+00 -0.40463080203E+00  0.69716079393E+00  0.11803021729E+01  0.00000000000E+00 0. -1.
         11    1    3    3    0    0  0.10119317054E+02 -0.36992965501E+01  0.41653960092E+01  0.11551445658E+02  0.51100000000E-03 0. -1.
        -11    1    3    3    0    0  0.30108684749E+02  0.14920773602E+02 -0.11362061182E+02  0.35471944080E+02  0.51100000000E-03 0.  1.
         12    1    3    3    0    0 -0.41090181576E+02 -0.10816846250E+02  0.64995043793E+01  0.42984308090E+02  0.00000000000E+00 0. -1.
</event>
<event>
 7    1  0.2090370E-015  0.9000776E+02  0.7816164E-02  0.1186339E+00
        -11   -1    0    0    0    0  0.00000000000E+00  0.00000000000E+00  0.45593999997E+02  0.45594000000E+02  0.51100000000E-03 0.  1.
         11   -1    0    0    0    0 -0.00000000000E+00 -0.00000000000E+00 -0.45593999997E+02  0.45594000000E+02  0.51100000000E-03 0. -1.
    9900012    2    1    2    0    0  0.23796672854E+00  0.53631009889E+00  0.10240699261E+01  0.90007756000E+02  0.90000017579E+02 0.  0.
         12    1    1    2    0    0 -0.23796672854E+00 -0.53631009889E+00 -0.10240699261E+01  0.11802440000E+01  0.00000000000E+00 0. -1.
         11    1    3    3    0    0 -0.98868645201E+01 -0.55770022448E+01  0.16935628464E+01  0.11476985643E+02  0.51100000000E-03 0. -1.
        -11    1    3    3    0    0 -0.43583119406E+01  0.32719512240E+02  0.22878526597E+02  0.40162026140E+02  0.51100000000E-03 0.  1.
         12    1    3    3    0    0  0.14483143189E+02 -0.26606199896E+02 -0.23548019517E+02  0.38368744216E+02  0.00000000000E+00 0. -1.
</event>
<event>
 7    1  0.2090370E-015  0.9000765E+02  0.7816164E-02  0.1186339E+00
        -11   -1    0    0    0    0  0.00000000000E+00  0.00000000000E+00  0.45593999997E+02  0.45594000000E+02  0.51100000000E-03 0. -1.
         11   -1    0    0    0    0 -0.00000000000E+00 -0.00000000000E+00 -0.45593999997E+02  0.45594000000E+02  0.51100000000E-03 0.  1.
    9900012    2    1    2    0    0 -0.10559810385E+01  0.43254863541E+00  0.30172875721E+00  0.90007646443E+02  0.89999906576E+02 0.  0.
         12    1    1    2    0    0  0.10559810385E+01 -0.43254863541E+00 -0.30172875721E+00  0.11803535566E+01  0.00000000000E+00 0. -1.
         11    1    3    3    0    0  0.67919110140E+00 -0.69380383559E+01 -0.67481688923E+01  0.97023430387E+01  0.51100000000E-03 0. -1.
        -11    1    3    3    0    0  0.25474218313E+02  0.25360173845E+02 -0.17016028000E+02  0.39769579144E+02  0.51100000000E-03 0.  1.
         12    1    3    3    0    0 -0.27209390453E+02 -0.17989586853E+02  0.24065925649E+02  0.40535724261E+02  0.00000000000E+00 0. -1.
</event>
<event>
 7    1  0.2090370E-015  0.9000804E+02  0.7816164E-02  0.1186338E+00
        -11   -1    0    0    0    0  0.00000000000E+00  0.00000000000E+00  0.45593999997E+02  0.45594000000E+02  0.51100000000E-03 0. -1.
         11   -1    0    0    0    0 -0.00000000000E+00 -0.00000000000E+00 -0.45593999997E+02  0.45594000000E+02  0.51100000000E-03 0.  1.
    9900012    2    1    2    0    0 -0.11497210729E+01  0.22753352303E+00  0.13661537702E+00  0.90008044996E+02  0.90000310390E+02 0.  0.
         12    1    1    2    0    0  0.11497210729E+01 -0.22753352303E+00 -0.13661537702E+00  0.11799550037E+01  0.00000000000E+00 0. -1.
         11    1    3    3    0    0 -0.48454657881E+01 -0.24676533992E+01 -0.81124468892E+01  0.97662503958E+01  0.51100000000E-03 0. -1.
        -11    1    3    3    0    0 -0.30357026894E+02  0.67357129787E+01 -0.19001140460E+02  0.36441216366E+02  0.51100000000E-03 0.  1.
         12    1    3    3    0    0  0.34052771609E+02 -0.40405260565E+01  0.27250202726E+02  0.43800578235E+02  0.00000000000E+00 0. -1.
</event>
<event>
 7    1  0.2090370E-015  0.9000770E+02  0.7816164E-02  0.1186339E+00
        -11   -1    0    0    0    0  0.00000000000E+00  0.00000000000E+00  0.45593999997E+02  0.45594000000E+02  0.51100000000E-03 0. -1.
         11   -1    0    0    0    0 -0.00000000000E+00 -0.00000000000E+00 -0.45593999997E+02  0.45594000000E+02  0.51100000000E-03 0.  1.
    9900012    2    1    2    0    0  0.71279424429E+00  0.19840240022E+00 -0.91960403715E+00  0.90007698881E+02  0.89999959706E+02 0.  0.
         12    1    1    2    0    0 -0.71279424429E+00 -0.19840240022E+00  0.91960403715E+00  0.11803011193E+01  0.00000000000E+00 0. -1.
         11    1    3    3    0    0 -0.96110285943E+01  0.84634926843E+00 -0.51854102729E+01  0.10953385672E+02  0.51100000000E-03 0. -1.
        -11    1    3    3    0    0  0.31130451625E+02 -0.21721692247E+02 -0.17992277783E+02  0.42007844417E+02  0.51100000000E-03 0.  1.
         12    1    3    3    0    0 -0.20806628787E+02  0.21073745379E+02  0.22258084019E+02  0.37046468792E+02  0.00000000000E+00 0. -1.
</event>
<event>
 7    1  0.2090370E-015  0.9000773E+02  0.7816164E-02  0.1186339E+00
        -11   -1    0    0    0    0  0.00000000000E+00  0.00000000000E+00  0.45593999997E+02  0.45594000000E+02  0.51100000000E-03 0. -1.
         11   -1    0    0    0    0 -0.00000000000E+00 -0.00000000000E+00 -0.45593999997E+02  0.45594000000E+02  0.51100000000E-03 0.  1.
    9900012    2    1    2    0    0 -0.81588383216E+00 -0.70747023721E+00  0.47628962130E+00  0.90007732078E+02  0.89999993342E+02 0.  0.
         12    1    1    2    0    0  0.81588383216E+00  0.70747023721E+00 -0.47628962130E+00  0.11802679219E+01  0.00000000000E+00 0. -1.
         11    1    3    3    0    0 -0.68180075629E+01 -0.16326985966E+01  0.66977368495E+01  0.96959069200E+01  0.51100000000E-03 0. -1.
        -11    1    3    3    0    0  0.75382987021E+01  0.31960498745E+02  0.21019333806E+02  0.38988611430E+02  0.51100000000E-03 0.  1.
         12    1    3    3    0    0 -0.15361749713E+01 -0.31035270386E+02 -0.27240781034E+02  0.41323213728E+02  0.00000000000E+00 0. -1.
</event>
<event>
 7    1  0.2090370E-015  0.9000774E+02  0.7816164E-02  0.1186339E+00
        -11   -1    0    0    0    0  0.00000000000E+00  0.00000000000E+00  0.45593999997E+02  0.45594000000E+02  0.51100000000E-03 0. -1.
         11   -1    0    0    0    0 -0.00000000000E+00 -0.00000000000E+00 -0.45593999997E+02  0.45594000000E+02  0.51100000000E-03 0.  1.
    9900012    2    1    2    0    0  0.22220926286E+00 -0.11049168695E+01 -0.35043032511E+00  0.90007737462E+02  0.89999998797E+02 0.  0.
         12    1    1    2    0    0 -0.22220926286E+00  0.11049168695E+01  0.35043032511E+00  0.11802625377E+01  0.00000000000E+00 0. -1.
         11    1    3    3    0    0  0.95622753447E+01  0.10980250908E+01  0.14504456738E+01  0.97337845559E+01  0.51100000000E-03 0. -1.
        -11    1    3    3    0    0  0.26563278037E+02 -0.16333348071E+02 -0.20580681976E+02  0.37362420560E+02  0.51100000000E-03 0.  1.
         12    1    3    3    0    0 -0.35903344118E+02  0.14130406111E+02  0.18779805977E+02  0.42911532346E+02  0.00000000000E+00 0. -1.
</event>
<event>
 7    1  0.2090370E-015  0.9000762E+02  0.7816164E-02  0.1186339E+00
        -11   -1    0    0    0    0  0.00000000000E+00  0.00000000000E+00  0.45593999997E+02  0.45594000000E+02  0.51100000000E-03 0.  1.
         11   -1    0    0    0    0 -0.00000000000E+00 -0.00000000000E+00 -0.45593999997E+02  0.45594000000E+02  0.51100000000E-03 0. -1.
    9900012    2    1    2    0    0 -0.37017613651E+00  0.39071945790E+00 -0.10505212516E+01  0.90007624226E+02  0.89999884066E+02 0.  0.
         12    1    1    2    0    0  0.37017613651E+00 -0.39071945790E+00  0.10505212516E+01  0.11803757736E+01  0.00000000000E+00 0. -1.
         11    1    3    3    0    0  0.73572413183E+01 -0.47941932739E+01 -0.69908555563E+00  0.88092002951E+01  0.51100000000E-03 0. -1.
        -11    1    3    3    0    0  0.66278123829E+01  0.41181062061E+02 -0.56237704533E+01  0.42088413653E+02  0.51100000000E-03 0.  1.
         12    1    3    3    0    0 -0.14355229838E+02 -0.35996149329E+02  0.52723347573E+01  0.39110010279E+02  0.00000000000E+00 0. -1.
</event>
<event>
 7    1  0.2090370E-015  0.9000778E+02  0.7816164E-02  0.1186339E+00
        -11   -1    0    0    0    0  0.00000000000E+00  0.00000000000E+00  0.45593999997E+02  0.45594000000E+02  0.51100000000E-03 0. -1.
         11   -1    0    0    0    0 -0.00000000000E+00 -0.00000000000E+00 -0.45593999997E+02  0.45594000000E+02  0.51100000000E-03 0.  1.
    9900012    2    1    2    0    0 -0.10051116650E+01  0.61848435805E+00  0.12391233536E-01  0.90007777181E+02  0.90000039040E+02 0.  0.
         12    1    1    2    0    0  0.10051116650E+01 -0.61848435805E+00 -0.12391233536E-01  0.11802228192E+01  0.00000000000E+00 0. -1.
         11    1    3    3    0    0 -0.75918707296E+01  0.64884688871E+01 -0.19094738106E+01  0.10167734269E+02  0.51100000000E-03 0. -1.
        -11    1    3    3    0    0  0.35298430690E+02  0.15047100444E+02  0.16073002853E+02  0.41602113671E+02  0.51100000000E-03 0.  1.
         12    1    3    3    0    0 -0.28711671626E+02 -0.20917084973E+02 -0.14151137808E+02  0.38237929240E+02  0.00000000000E+00 0. -1.
</event>
<event>
 7    1  0.2090370E-015  0.9000777E+02  0.7816164E-02  0.1186339E+00
        -11   -1    0    0    0    0  0.00000000000E+00  0.00000000000E+00  0.45593999997E+02  0.45594000000E+02  0.51100000000E-03 0.  1.
         11   -1    0    0    0    0 -0.00000000000E+00 -0.00000000000E+00 -0.45593999997E+02  0.45594000000E+02  0.51100000000E-03 0. -1.
    9900012    2    1    2    0    0  0.90079493089E+00 -0.76019063445E+00 -0.60135403108E-01  0.90007772236E+02  0.90000034030E+02 0.  0.
         12    1    1    2    0    0 -0.90079493089E+00  0.76019063445E+00  0.60135403108E-01  0.11802277640E+01  0.00000000000E+00 0. -1.
         11    1    3    3    0    0  0.82122972495E+01  0.45801080792E+01 -0.20757344075E+01  0.96295321654E+01  0.51100000000E-03 0. -1.
        -11    1    3    3    0    0  0.21023749338E+02 -0.77234046176E+01  0.31996894796E+02  0.39057013352E+02  0.51100000000E-03 0.  1.
         12    1    3    3    0    0 -0.28335251657E+02  0.23831059039E+01 -0.29981295792E+02  0.41321226719E+02  0.00000000000E+00 0. -1.
</event>
<event>
 7    1  0.2090370E-015  0.9000761E+02  0.7816164E-02  0.1186339E+00
        -11   -1    0    0    0    0  0.00000000000E+00  0.00000000000E+00  0.45593999997E+02  0.45594000000E+02  0.51100000000E-03 0.  1.
         11   -1    0    0    0    0 -0.00000000000E+00 -0.00000000000E+00 -0.45593999997E+02  0.45594000000E+02  0.51100000000E-03 0. -1.
    9900012    2    1    2    0    0  0.45883439826E+00 -0.10868580780E+01 -0.39165559716E-01  0.90007608782E+02  0.89999868418E+02 0.  0.
         12    1    1    2    0    0 -0.45883439826E+00  0.10868580780E+01  0.39165559716E-01  0.11803912182E+01  0.00000000000E+00 0. -1.
         11    1    3    3    0    0 -0.19576343701E+02 -0.78006926226E+01 -0.21413645322E+02  0.30043772138E+02  0.51100000000E-03 0. -1.
        -11    1    3    3    0    0 -0.13737142941E+02  0.24876225567E+01 -0.70318974797E+01  0.15631536859E+02  0.51100000000E-03 0.  1.
        -12    1    3    3    0    0  0.33772321040E+02  0.42262119878E+01  0.28406377242E+02  0.44332299784E+02  0.00000000000E+00 0.  1.
</event>
<event>
 7    1  0.2090370E-015  0.9000765E+02  0.7816164E-02  0.1186339E+00
        -11   -1    0    0    0    0  0.00000000000E+00  0.00000000000E+00  0.45593999997E+02  0.45594000000E+02  0.51100000000E-03 0. -1.
         11   -1    0    0    0    0 -0.00000000000E+00 -0.00000000000E+00 -0.45593999997E+02  0.45594000000E+02  0.51100000000E-03 0.  1.
    9900012    2    1    2    0    0  0.11450163099E+01  0.24925225799E+00 -0.14152684494E+00  0.90007653065E+02  0.89999913286E+02 0.  0.
         12    1    1    2    0    0 -0.11450163099E+01 -0.24925225799E+00  0.14152684494E+00  0.11803469345E+01  0.00000000000E+00 0. -1.
         11    1    3    3    0    0 -0.77636767597E+01 -0.17228269911E+02 -0.11145927023E+01  0.18929613786E+02  0.51100000000E-03 0. -1.
        -11    1    3    3    0    0  0.27094620045E+02  0.11652062561E+02 -0.25121488727E+02  0.38742459826E+02  0.51100000000E-03 0.  1.
         12    1    3    3    0    0 -0.18185926975E+02  0.58254596078E+01  0.26094554584E+02  0.32335579453E+02  0.00000000000E+00 0. -1.
</event>
<event>
 7    1  0.2090370E-015  0.9000761E+02  0.7816164E-02  0.1186339E+00
        -11   -1    0    0    0    0  0.00000000000E+00  0.00000000000E+00  0.45593999997E+02  0.45594000000E+02  0.51100000000E-03 0.  1.
         11   -1    0    0    0    0 -0.00000000000E+00 -0.00000000000E+00 -0.45593999997E+02  0.45594000000E+02  0.51100000000E-03 0. -1.
    9900012    2    1    2    0    0 -0.13693451665E+00  0.68500594588E+00  0.95148839219E+00  0.90007612619E+02  0.89999872306E+02 0.  0.
         12    1    1    2    0    0  0.13693451665E+00 -0.68500594588E+00 -0.95148839219E+00  0.11803873806E+01  0.00000000000E+00 0. -1.
         11    1    3    3    0    0  0.12839466849E+02 -0.26893034763E+02 -0.23134302300E+02  0.37726425366E+02  0.51100000000E-03 0. -1.
        -11    1    3    3    0    0  0.14971119111E+01 -0.79195223020E+01  0.38206154746E+01  0.89194887988E+01  0.51100000000E-03 0.  1.
        -12    1    3    3    0    0 -0.14473513277E+02  0.35497563011E+02  0.20265175218E+02  0.43361698455E+02  0.00000000000E+00 0.  1.
</event>
<event>
 7    1  0.2090370E-015  0.9000772E+02  0.7816164E-02  0.1186339E+00
        -11   -1    0    0    0    0  0.00000000000E+00  0.00000000000E+00  0.45593999997E+02  0.45594000000E+02  0.51100000000E-03 0. -1.
         11   -1    0    0    0    0 -0.00000000000E+00 -0.00000000000E+00 -0.45593999997E+02  0.45594000000E+02  0.51100000000E-03 0.  1.
    9900012    2    1    2    0    0  0.11563641854E+01 -0.21489337179E+00 -0.98517906828E-01  0.90007719072E+02  0.89999980164E+02 0.  0.
         12    1    1    2    0    0 -0.11563641854E+01  0.21489337179E+00  0.98517906828E-01  0.11802809277E+01  0.00000000000E+00 0. -1.
         11    1    3    3    0    0  0.50501273294E+01  0.84523302656E+01  0.83243556873E+00  0.98812257437E+01  0.51100000000E-03 0. -1.
        -11    1    3    3    0    0  0.13936076068E+02  0.32336371051E+02 -0.31991538243E+01  0.35356607507E+02  0.51100000000E-03 0.  1.
         12    1    3    3    0    0 -0.17829839212E+02 -0.41003594688E+02  0.22682003488E+01  0.44769885822E+02  0.00000000000E+00 0. -1.
</event>
<event>
 7    1  0.2090370E-015  0.9000779E+02  0.7816164E-02  0.1186339E+00
        -11   -1    0    0    0    0  0.00000000000E+00  0.00000000000E+00  0.45593999997E+02  0.45594000000E+02  0.51100000000E-03 0.  1.
         11   -1    0    0    0    0 -0.00000000000E+00 -0.00000000000E+00 -0.45593999997E+02  0.45594000000E+02  0.51100000000E-03 0. -1.
    9900012    2    1    2    0    0 -0.15517765791E+00  0.94705180451E+00  0.68695175881E+00  0.90007792415E+02  0.90000054474E+02 0.  0.
         12    1    1    2    0    0  0.15517765791E+00 -0.94705180451E+00 -0.68695175881E+00  0.11802075855E+01  0.00000000000E+00 0. -1.
         11    1    3    3    0    0 -0.40187558303E+01 -0.65157471479E+01 -0.21209229411E+01  0.79437820779E+01  0.51100000000E-03 0. -1.
        -11    1    3    3    0    0  0.31444426273E+02 -0.14288645593E+02  0.23049327186E+02  0.41523352713E+02  0.51100000000E-03 0.  1.
         12    1    3    3    0    0 -0.27580848101E+02  0.21751444546E+02 -0.20241452486E+02  0.40540657623E+02  0.00000000000E+00 0. -1.
</event>
<event>
 7    1  0.2090370E-015  0.9000764E+02  0.7816164E-02  0.1186339E+00
        -11   -1    0    0    0    0  0.00000000000E+00  0.00000000000E+00  0.45593999997E+02  0.45594000000E+02  0.51100000000E-03 0. -1.
         11   -1    0    0    0    0 -0.00000000000E+00 -0.00000000000E+00 -0.45593999997E+02  0.45594000000E+02  0.51100000000E-03 0.  1.
    9900012    2    1    2    0    0 -0.90575158152E+00  0.61168991171E+00 -0.44575094527E+00  0.90007642266E+02  0.89999902344E+02 0.  0.
         12    1    1    2    0    0  0.90575158152E+00 -0.61168991171E+00  0.44575094527E+00  0.11803577342E+01  0.00000000000E+00 0. -1.
         11    1    3    3    0    0  0.95541193572E+01  0.22731151974E+01  0.12889641901E-01  0.98208154344E+01  0.51100000000E-03 0. -1.
        -11    1    3    3    0    0  0.18930692553E+01  0.11209607168E+02 -0.37439710712E+02  0.39127623778E+02  0.51100000000E-03 0.  1.
         12    1    3    3    0    0 -0.12352940194E+02 -0.12871032453E+02  0.36981070124E+02  0.41059203054E+02  0.00000000000E+00 0. -1.
</event>
<event>
 7    1  0.2090370E-015  0.9000769E+02  0.7816164E-02  0.1186339E+00
        -11   -1    0    0    0    0  0.00000000000E+00  0.00000000000E+00  0.45593999997E+02  0.45594000000E+02  0.51100000000E-03 0. -1.
         11   -1    0    0    0    0 -0.00000000000E+00 -0.00000000000E+00 -0.45593999997E+02  0.45594000000E+02  0.51100000000E-03 0.  1.
    9900012    2    1    2    0    0 -0.78010593772E+00  0.29872942649E+00 -0.83386012302E+00  0.90007691884E+02  0.89999952617E+02 0.  0.
         12    1    1    2    0    0  0.78010593772E+00 -0.29872942649E+00  0.83386012302E+00  0.11803081162E+01  0.00000000000E+00 0. -1.
         11    1    3    3    0    0 -0.76746207458E+01  0.98487906273E+01  0.20536038026E+02  0.24033878973E+02  0.51100000000E-03 0. -1.
        -11    1    3    3    0    0 -0.18182647914E+02  0.16667738282E+02 -0.17493494535E+01  0.24728170340E+02  0.51100000000E-03 0.  1.
        -12    1    3    3    0    0  0.25077162722E+02 -0.26217799483E+02 -0.19620548696E+02  0.41245642570E+02  0.00000000000E+00 0.  1.
</event>
<event>
 7    1  0.2090370E-015  0.9000775E+02  0.7816164E-02  0.1186339E+00
        -11   -1    0    0    0    0  0.00000000000E+00  0.00000000000E+00  0.45593999997E+02  0.45594000000E+02  0.51100000000E-03 0. -1.
         11   -1    0    0    0    0 -0.00000000000E+00 -0.00000000000E+00 -0.45593999997E+02  0.45594000000E+02  0.51100000000E-03 0.  1.
    9900012    2    1    2    0    0 -0.98541916344E+00  0.60373304748E+00  0.23965956434E+00  0.90007753743E+02  0.90000015292E+02 0.  0.
         12    1    1    2    0    0  0.98541916344E+00 -0.60373304748E+00 -0.23965956434E+00  0.11802462570E+01  0.00000000000E+00 0. -1.
         11    1    3    3    0    0 -0.69561783991E+01  0.90408147754E+01  0.38930309622E+02  0.40567151209E+02  0.51100000000E-03 0. -1.
        -11    1    3    3    0    0 -0.55672553736E+01 -0.87230170171E+01 -0.14461028827E+01  0.10448759356E+02  0.51100000000E-03 0.  1.
        -12    1    3    3    0    0  0.11538014609E+02  0.28593528915E+00 -0.37244547175E+02  0.38991843177E+02  0.00000000000E+00 0.  1.
</event>
<event>
 7    1  0.2090370E-015  0.9000768E+02  0.7816164E-02  0.1186339E+00
        -11   -1    0    0    0    0  0.00000000000E+00  0.00000000000E+00  0.45593999997E+02  0.45594000000E+02  0.51100000000E-03 0.  1.
         11   -1    0    0    0    0 -0.00000000000E+00 -0.00000000000E+00 -0.45593999997E+02  0.45594000000E+02  0.51100000000E-03 0. -1.
    9900012    2    1    2    0    0  0.26706613863E+00 -0.68835998184E+00  0.92086518181E+00  0.90007679505E+02  0.89999940075E+02 0.  0.
         12    1    1    2    0    0 -0.26706613863E+00  0.68835998184E+00 -0.92086518181E+00  0.11803204946E+01  0.00000000000E+00 0. -1.
         11    1    3    3    0    0 -0.10538860068E+01 -0.36518298890E+01  0.94820369387E+01  0.10215457015E+02  0.51100000000E-03 0. -1.
        -11    1    3    3    0    0  0.34806562431E+01  0.40942977485E+02 -0.16150309171E+01  0.41122386827E+02  0.51100000000E-03 0.  1.
         12    1    3    3    0    0 -0.21597040977E+01 -0.37979507578E+02 -0.69461408398E+01  0.38669835663E+02  0.00000000000E+00 0. -1.
</event>
<event>
 7    1  0.2090370E-015  0.9000790E+02  0.7816164E-02  0.1186339E+00
        -11   -1    0    0    0    0  0.00000000000E+00  0.00000000000E+00  0.45593999997E+02  0.45594000000E+02  0.51100000000E-03 0. -1.
         11   -1    0    0    0    0 -0.00000000000E+00 -0.00000000000E+00 -0.45593999997E+02  0.45594000000E+02  0.51100000000E-03 0.  1.
    9900012    2    1    2    0    0 -0.99118150990E+00 -0.11854593479E+00 -0.62940269653E+00  0.90007897598E+02  0.90000161046E+02 0.  0.
         12    1    1    2    0    0  0.99118150990E+00  0.11854593479E+00  0.62940269653E+00  0.11801024018E+01  0.00000000000E+00 0. -1.
         11    1    3    3    0    0  0.31910038159E+01 -0.48752275328E+01 -0.66504491614E+01  0.88418789383E+01  0.51100000000E-03 0. -1.
        -11    1    3    3    0    0 -0.39038718374E+02  0.10718245479E+02 -0.10955409873E+02  0.41939519838E+02  0.51100000000E-03 0.  1.
         12    1    3    3    0    0  0.34856533048E+02 -0.59615638810E+01  0.16976456338E+02  0.39226498822E+02  0.00000000000E+00 0. -1.
</event>
<event>
 7    1  0.2090370E-015  0.9000765E+02  0.7816164E-02  0.1186339E+00
        -11   -1    0    0    0    0  0.00000000000E+00  0.00000000000E+00  0.45593999997E+02  0.45594000000E+02  0.51100000000E-03 0.  1.
         11   -1    0    0    0    0 -0.00000000000E+00 -0.00000000000E+00 -0.45593999997E+02  0.45594000000E+02  0.51100000000E-03 0. -1.
    9900012    2    1    2    0    0  0.20330321315E+00 -0.26267714747E+00  0.11326520221E+01  0.90007647475E+02  0.89999907622E+02 0.  0.
         12    1    1    2    0    0 -0.20330321315E+00  0.26267714747E+00 -0.11326520221E+01  0.11803525251E+01  0.00000000000E+00 0. -1.
         11    1    3    3    0    0  0.10529764055E+02 -0.24160023410E+01  0.10560909566E+02  0.15107806243E+02  0.51100000000E-03 0. -1.
        -11    1    3    3    0    0  0.21107946876E+02 -0.24960020864E+02 -0.21950351546E+01  0.32762268578E+02  0.51100000000E-03 0.  1.
         12    1    3    3    0    0 -0.31434407718E+02  0.27113346057E+02 -0.72332223890E+01  0.42137572653E+02  0.00000000000E+00 0. -1.
</event>
<event>
 7    1  0.2090370E-015  0.9000772E+02  0.7816164E-02  0.1186339E+00
        -11   -1    0    0    0    0  0.00000000000E+00  0.00000000000E+00  0.45593999997E+02  0.45594000000E+02  0.51100000000E-03 0. -1.
         11   -1    0    0    0    0 -0.00000000000E+00 -0.00000000000E+00 -0.45593999997E+02  0.45594000000E+02  0.51100000000E-03 0.  1.
    9900012    2    1    2    0    0  0.11734789630E+01 -0.94067989383E-01 -0.84595664217E-01  0.90007721181E+02  0.89999982301E+02 0.  0.
         12    1    1    2    0    0 -0.11734789630E+01  0.94067989383E-01  0.84595664217E-01  0.11802788186E+01  0.00000000000E+00 0. -1.
         11    1    3    3    0    0 -0.20521714918E+02  0.17051352178E+02  0.41078010865E+01  0.26995618613E+02  0.51100000000E-03 0. -1.
        -11    1    3    3    0    0  0.17506100900E+02  0.13956126580E+02  0.14320059693E+02  0.26576326829E+02  0.51100000000E-03 0.  1.
        -12    1    3    3    0    0  0.41890929813E+01 -0.31101546748E+02 -0.18512456444E+02  0.36435775739E+02  0.00000000000E+00 0.  1.
</event>
<event>
 7    1  0.2090370E-015  0.9000775E+02  0.7816164E-02  0.1186339E+00
        -11   -1    0    0    0    0  0.00000000000E+00  0.00000000000E+00  0.45593999997E+02  0.45594000000E+02  0.51100000000E-03 0. -1.
         11   -1    0    0    0    0 -0.00000000000E+00 -0.00000000000E+00 -0.45593999997E+02  0.45594000000E+02  0.51100000000E-03 0.  1.
    9900012    2    1    2    0    0 -0.69845036849E+00  0.55250642988E+00 -0.77453443234E+00  0.90007745850E+02  0.90000007295E+02 0.  0.
         12    1    1    2    0    0  0.69845036849E+00 -0.55250642988E+00  0.77453443234E+00  0.11802541502E+01  0.00000000000E+00 0. -1.
         11    1    3    3    0    0 -0.40366391658E+01 -0.21697397197E+02  0.17307196369E+02  0.28046578174E+02  0.51100000000E-03 0. -1.
        -11    1    3    3    0    0 -0.19165987610E+02  0.10035021913E+02  0.10107395835E+02  0.23878781307E+02  0.51100000000E-03 0.  1.
        -12    1    3    3    0    0  0.22504176407E+02  0.12214881714E+02 -0.28189126637E+02  0.38082386369E+02  0.00000000000E+00 0.  1.
</event>
<event>
 7    1  0.2090370E-015  0.9000771E+02  0.7816164E-02  0.1186339E+00
        -11   -1    0    0    0    0  0.00000000000E+00  0.00000000000E+00  0.45593999997E+02  0.45594000000E+02  0.51100000000E-03 0.  1.
         11   -1    0    0    0    0 -0.00000000000E+00 -0.00000000000E+00 -0.45593999997E+02  0.45594000000E+02  0.51100000000E-03 0. -1.
    9900012    2    1    2    0    0 -0.13149701526E+00  0.93758593729E+00  0.70479379971E+00  0.90007706327E+02  0.89999967250E+02 0.  0.
         12    1    1    2    0    0  0.13149701526E+00 -0.93758593729E+00 -0.70479379971E+00  0.11802936732E+01  0.00000000000E+00 0. -1.
         11    1    3    3    0    0 -0.20744126671E+02 -0.17575200296E+02 -0.10715235012E+02  0.29223667094E+02  0.51100000000E-03 0. -1.
        -11    1    3    3    0    0  0.61924457797E+01 -0.52200011585E+01  0.27518108177E+02  0.28685206549E+02  0.51100000000E-03 0.  1.
         12    1    3    3    0    0  0.14420183876E+02  0.23732787392E+02 -0.16098079365E+02  0.32098832684E+02  0.00000000000E+00 0. -1.
</event>
<event>
 7    1  0.2090370E-015  0.9000775E+02  0.7816164E-02  0.1186339E+00
        -11   -1    0    0    0    0  0.00000000000E+00  0.00000000000E+00  0.45593999997E+02  0.45594000000E+02  0.51100000000E-03 0. -1.
         11   -1    0    0    0    0 -0.00000000000E+00 -0.00000000000E+00 -0.45593999997E+02  0.45594000000E+02  0.51100000000E-03 0.  1.
    9900012    2    1    2    0    0  0.85951341773E-01 -0.11718832411E+01 -0.11084824604E+00  0.90007752019E+02  0.90000013545E+02 0.  0.
         12    1    1    2    0    0 -0.85951341773E-01  0.11718832411E+01  0.11084824604E+00  0.11802479814E+01  0.00000000000E+00 0. -1.
         11    1    3    3    0    0  0.11181794866E+02  0.38406790707E+02  0.52994763389E+01  0.40350942474E+02  0.51100000000E-03 0. -1.
        -11    1    3    3    0    0 -0.84114809756E+01  0.10497180133E+01 -0.24917457454E+01  0.88353674078E+01  0.51100000000E-03 0.  1.
        -12    1    3    3    0    0 -0.26843625484E+01 -0.40628391961E+02 -0.29185788395E+01  0.40821442137E+02  0.00000000000E+00 0.  1.
</event>
<event>
 7    1  0.2090370E-015  0.9000772E+02  0.7816164E-02  0.1186339E+00
        -11   -1    0    0    0    0  0.00000000000E+00  0.00000000000E+00  0.45593999997E+02  0.45594000000E+02  0.51100000000E-03 0. -1.
         11   -1    0    0    0    0 -0.00000000000E+00 -0.00000000000E+00 -0.45593999997E+02  0.45594000000E+02  0.51100000000E-03 0.  1.
    9900012    2    1    2    0    0 -0.10084912258E+01 -0.36031975282E+00 -0.49615636256E+00  0.90007722061E+02  0.89999983192E+02 0.  0.
         12    1    1    2    0    0  0.10084912258E+01  0.36031975282E+00  0.49615636256E+00  0.11802779388E+01  0.00000000000E+00 0. -1.
         11    1    3    3    0    0  0.37913869714E+02 -0.51405714328E+01  0.29600157513E-01  0.38260787600E+02  0.51100000000E-03 0. -1.
        -11    1    3    3    0    0  0.26140686269E+01  0.94557889213E+01 -0.15691271755E+01  0.99351627699E+01  0.51100000000E-03 0.  1.
        -12    1    3    3    0    0 -0.41536429567E+02 -0.46755372414E+01  0.10433706554E+01  0.41811771691E+02  0.00000000000E+00 0.  1.
</event>
<event>
 7    1  0.2090370E-015  0.9000740E+02  0.7816164E-02  0.1186340E+00
        -11   -1    0    0    0    0  0.00000000000E+00  0.00000000000E+00  0.45593999997E+02  0.45594000000E+02  0.51100000000E-03 0.  1.
         11   -1    0    0    0    0 -0.00000000000E+00 -0.00000000000E+00 -0.45593999997E+02  0.45594000000E+02  0.51100000000E-03 0. -1.
    9900012    2    1    2    0    0 -0.44551694495E+00  0.20662991067E+00  0.10736102556E+01  0.90007398353E+02  0.89999655210E+02 0.  0.
         12    1    1    2    0    0  0.44551694495E+00 -0.20662991067E+00 -0.10736102556E+01  0.11806016471E+01  0.00000000000E+00 0. -1.
         11    1    3    3    0    0  0.13724587507E+02 -0.79886108974E+01  0.53035751035E+01  0.16742464438E+02  0.51100000000E-03 0. -1.
        -11    1    3    3    0    0 -0.15080088869E+02 -0.22481821561E+02 -0.24478056568E+02  0.36496803074E+02  0.51100000000E-03 0.  1.
         12    1    3    3    0    0  0.90998441688E+00  0.30677062370E+02  0.20248091720E+02  0.36768130841E+02  0.00000000000E+00 0. -1.
</event>
<event>
 7    1  0.2090370E-015  0.9000774E+02  0.7816164E-02  0.1186339E+00
        -11   -1    0    0    0    0  0.00000000000E+00  0.00000000000E+00  0.45593999997E+02  0.45594000000E+02  0.51100000000E-03 0. -1.
         11   -1    0    0    0    0 -0.00000000000E+00 -0.00000000000E+00 -0.45593999997E+02  0.45594000000E+02  0.51100000000E-03 0.  1.
    9900012    2    1    2    0    0  0.48959055126E+00 -0.99317203747E+00 -0.40856929673E+00  0.90007737964E+02  0.89999999305E+02 0.  0.
         12    1    1    2    0    0 -0.48959055126E+00  0.99317203747E+00  0.40856929673E+00  0.11802620362E+01  0.00000000000E+00 0. -1.
         11    1    3    3    0    0 -0.57437266503E+01  0.33784767242E+01  0.71937884825E+01  0.98058703745E+01  0.51100000000E-03 0. -1.
        -11    1    3    3    0    0 -0.19907088929E+02 -0.34195547692E+02  0.11682404266E+01  0.39585255557E+02  0.51100000000E-03 0.  1.
         12    1    3    3    0    0  0.26140406130E+02  0.29823898930E+02 -0.87705982059E+01  0.40616612032E+02  0.00000000000E+00 0. -1.
</event>
<event>
 7    1  0.2090370E-015  0.9000749E+02  0.7816164E-02  0.1186340E+00
        -11   -1    0    0    0    0  0.00000000000E+00  0.00000000000E+00  0.45593999997E+02  0.45594000000E+02  0.51100000000E-03 0. -1.
         11   -1    0    0    0    0 -0.00000000000E+00 -0.00000000000E+00 -0.45593999997E+02  0.45594000000E+02  0.51100000000E-03 0.  1.
    9900012    2    1    2    0    0  0.41843188058E+00  0.93953115071E+00 -0.57948882383E+00  0.90007486841E+02  0.89999744867E+02 0.  0.
         12    1    1    2    0    0 -0.41843188058E+00 -0.93953115071E+00  0.57948882383E+00  0.11805131591E+01  0.00000000000E+00 0. -1.
         11    1    3    3    0    0  0.87251320028E+01 -0.34545163124E+02  0.21950874692E+02  0.41848979961E+02  0.51100000000E-03 0. -1.
        -11    1    3    3    0    0  0.67840033450E+01  0.46691711808E+01 -0.38528240167E+01  0.90922007273E+01  0.51100000000E-03 0.  1.
        -12    1    3    3    0    0 -0.15090703467E+02  0.30815523094E+02 -0.18677539499E+02  0.39066306153E+02  0.00000000000E+00 0.  1.
</event>
<event>
 7    1  0.2090370E-015  0.9000766E+02  0.7816164E-02  0.1186339E+00
        -11   -1    0    0    0    0  0.00000000000E+00  0.00000000000E+00  0.45593999997E+02  0.45594000000E+02  0.51100000000E-03 0.  1.
         11   -1    0    0    0    0 -0.00000000000E+00 -0.00000000000E+00 -0.45593999997E+02  0.45594000000E+02  0.51100000000E-03 0. -1.
    9900012    2    1    2    0    0 -0.26726967451E+00 -0.54516455722E+00  0.10122035147E+01  0.90007663849E+02  0.89999924212E+02 0.  0.
         12    1    1    2    0    0  0.26726967451E+00  0.54516455722E+00 -0.10122035147E+01  0.11803361507E+01  0.00000000000E+00 0. -1.
         11    1    3    3    0    0 -0.87569552957E+01 -0.18831335891E+02 -0.35434992266E+02  0.41072401374E+02  0.51100000000E-03 0. -1.
        -11    1    3    3    0    0  0.69132097236E+01 -0.35008175782E+01  0.17653832259E+01  0.79476267271E+01  0.51100000000E-03 0.  1.
        -12    1    3    3    0    0  0.15764758976E+01  0.21786988912E+02  0.34681812555E+02  0.40987635748E+02  0.00000000000E+00 0.  1.
</event>
<event>
 7    1  0.2090370E-015  0.9000775E+02  0.7816164E-02  0.1186339E+00
        -11   -1    0    0    0    0  0.00000000000E+00  0.00000000000E+00  0.45593999997E+02  0.45594000000E+02  0.51100000000E-03 0. -1.
         11   -1    0    0    0    0 -0.00000000000E+00 -0.00000000000E+00 -0.45593999997E+02  0.45594000000E+02  0.51100000000E-03 0.  1.
    9900012    2    1    2    0    0 -0.52746025313E+00  0.10055456724E+01  0.32194627043E+00  0.90007751798E+02  0.90000013321E+02 0.  0.
         12    1    1    2    0    0  0.52746025313E+00 -0.10055456724E+01 -0.32194627043E+00  0.11802482022E+01  0.00000000000E+00 0. -1.
         11    1    3    3    0    0  0.30254904202E+02  0.27684822954E+02 -0.11161296317E+02  0.42501566865E+02  0.51100000000E-03 0. -1.
        -11    1    3    3    0    0 -0.69640359602E+00 -0.43701506707E+01  0.89277177792E+01  0.99643032802E+01  0.51100000000E-03 0.  1.
        -12    1    3    3    0    0 -0.30085960859E+02 -0.22309126611E+02  0.25555248082E+01  0.37541881652E+02  0.00000000000E+00 0.  1.
</event>
<event>
 7    1  0.2090370E-015  0.9000774E+02  0.7816164E-02  0.1186339E+00
        -11   -1    0    0    0    0  0.00000000000E+00  0.00000000000E+00  0.45593999997E+02  0.45594000000E+02  0.51100000000E-03 0.  1.
         11   -1    0    0    0    0 -0.00000000000E+00 -0.00000000000E+00 -0.45593999997E+02  0.45594000000E+02  0.51100000000E-03 0. -1.
    9900012    2    1    2    0    0 -0.84565448034E+00  0.60656401871E+00  0.55674443934E+00  0.90007739105E+02  0.90000000461E+02 0.  0.
         12    1    1    2    0    0  0.84565448034E+00 -0.60656401871E+00 -0.55674443934E+00  0.11802608947E+01  0.00000000000E+00 0. -1.
         11    1    3    3    0    0  0.12187464124E+02 -0.50050812201E+01  0.68864758399E+01  0.14866360333E+02  0.51100000000E-03 0. -1.
        -11    1    3    3    0    0  0.92871409263E+01 -0.28699655191E+02  0.89270184113E+01  0.31458112668E+02  0.51100000000E-03 0.  1.
         12    1    3    3    0    0 -0.22320259531E+02  0.34311300430E+02 -0.15256749812E+02  0.43683266104E+02  0.00000000000E+00 0. -1.
</event>
<event>
 7    1  0.2090370E-015  0.9000767E+02  0.7816164E-02  0.1186339E+00
        -11   -1    0    0    0    0  0.00000000000E+00  0.00000000000E+00  0.45593999997E+02  0.45594000000E+02  0.51100000000E-03 0. -1.
         11   -1    0    0    0    0 -0.00000000000E+00 -0.00000000000E+00 -0.45593999997E+02  0.45594000000E+02  0.51100000000E-03 0.  1.
    9900012    2    1    2    0    0 -0.10587802118E+01 -0.16101274658E+00  0.49622906718E+00  0.90007667874E+02  0.89999928290E+02 0.  0.
         12    1    1    2    0    0  0.10587802118E+01  0.16101274658E+00 -0.49622906718E+00  0.11803321264E+01  0.00000000000E+00 0. -1.
         11    1    3    3    0    0  0.29711529272E+01  0.52222142917E+01 -0.76024217551E+01  0.96899994133E+01  0.51100000000E-03 0. -1.
        -11    1    3    3    0    0  0.35059299708E+02  0.85786468469E+01 -0.57748584561E+01  0.36552656103E+02  0.51100000000E-03 0.  1.
         12    1    3    3    0    0 -0.39089232847E+02 -0.13961873885E+02  0.13873509278E+02  0.43765012357E+02  0.00000000000E+00 0. -1.
</event>
<event>
 7    1  0.2090370E-015  0.9000801E+02  0.7816164E-02  0.1186339E+00
        -11   -1    0    0    0    0  0.00000000000E+00  0.00000000000E+00  0.45593999997E+02  0.45594000000E+02  0.51100000000E-03 0.  1.
         11   -1    0    0    0    0 -0.00000000000E+00 -0.00000000000E+00 -0.45593999997E+02  0.45594000000E+02  0.51100000000E-03 0. -1.
    9900012    2    1    2    0    0 -0.92794922500E+00 -0.71192059193E+00  0.15637761982E+00  0.90008010740E+02  0.90000275681E+02 0.  0.
         12    1    1    2    0    0  0.92794922500E+00  0.71192059193E+00 -0.15637761982E+00  0.11799892599E+01  0.00000000000E+00 0. -1.
         11    1    3    3    0    0 -0.15359005838E+02 -0.10098275628E+02 -0.33158613601E+02  0.37912634928E+02  0.51100000000E-03 0. -1.
        -11    1    3    3    0    0 -0.32267738591E+01  0.91984798580E+01 -0.42136028214E+01  0.10619724584E+02  0.51100000000E-03 0.  1.
        -12    1    3    3    0    0  0.17657830472E+02  0.18787517819E+00  0.37528594042E+02  0.41475651229E+02  0.00000000000E+00 0.  1.
</event>
<event>
 7    1  0.2090370E-015  0.9000778E+02  0.7816164E-02  0.1186339E+00
        -11   -1    0    0    0    0  0.00000000000E+00  0.00000000000E+00  0.45593999997E+02  0.45594000000E+02  0.51100000000E-03 0. -1.
         11   -1    0    0    0    0 -0.00000000000E+00 -0.00000000000E+00 -0.45593999997E+02  0.45594000000E+02  0.51100000000E-03 0.  1.
    9900012    2    1    2    0    0 -0.10106026818E+01  0.59789736436E+00  0.11881236453E+00  0.90007781623E+02  0.90000043541E+02 0.  0.
         12    1    1    2    0    0  0.10106026818E+01 -0.59789736436E+00 -0.11881236453E+00  0.11802183767E+01  0.00000000000E+00 0. -1.
         11    1    3    3    0    0 -0.88904893494E+01  0.23513583057E+01 -0.30660794075E+01  0.96938397938E+01  0.51100000000E-03 0. -1.
        -11    1    3    3    0    0 -0.17657325792E+02  0.28792377787E+02 -0.14490066752E+02  0.36752472127E+02  0.51100000000E-03 0.  1.
         12    1    3    3    0    0  0.25537212459E+02 -0.30545838728E+02  0.17674958524E+02  0.43561469702E+02  0.00000000000E+00 0. -1.
</event>
<event>
 7    1  0.2090370E-015  0.9000767E+02  0.7816164E-02  0.1186339E+00
        -11   -1    0    0    0    0  0.00000000000E+00  0.00000000000E+00  0.45593999997E+02  0.45594000000E+02  0.51100000000E-03 0. -1.
         11   -1    0    0    0    0 -0.00000000000E+00 -0.00000000000E+00 -0.45593999997E+02  0.45594000000E+02  0.51100000000E-03 0.  1.
    9900012    2    1    2    0    0  0.58528549474E+00  0.10016899282E+01 -0.21733159461E+00  0.90007671722E+02  0.89999932188E+02 0.  0.
         12    1    1    2    0    0 -0.58528549474E+00 -0.10016899282E+01  0.21733159461E+00  0.11803282783E+01  0.00000000000E+00 0. -1.
         11    1    3    3    0    0  0.34792190251E+01 -0.66438549198E+01 -0.46320923319E+01  0.88148767917E+01  0.51100000000E-03 0. -1.
        -11    1    3    3    0    0 -0.31235918257E+02 -0.65644537784E+01 -0.22949344127E+02  0.39312174182E+02  0.51100000000E-03 0.  1.
         12    1    3    3    0    0  0.28341984727E+02  0.14209998626E+02  0.27364104864E+02  0.41880620748E+02  0.00000000000E+00 0. -1.
</event>
<event>
 7    1  0.2090370E-015  0.9000776E+02  0.7816164E-02  0.1186339E+00
        -11   -1    0    0    0    0  0.00000000000E+00  0.00000000000E+00  0.45593999997E+02  0.45594000000E+02  0.51100000000E-03 0.  1.
         11   -1    0    0    0    0 -0.00000000000E+00 -0.00000000000E+00 -0.45593999997E+02  0.45594000000E+02  0.51100000000E-03 0. -1.
    9900012    2    1    2    0    0  0.51195932648E+00 -0.78769524285E+00  0.71442714233E+00  0.90007757529E+02  0.90000019129E+02 0.  0.
         12    1    1    2    0    0 -0.51195932648E+00  0.78769524285E+00 -0.71442714233E+00  0.11802424705E+01  0.00000000000E+00 0. -1.
         11    1    3    3    0    0  0.48127767550E+01  0.80027624113E+01  0.13716775135E+01  0.94386718222E+01  0.51100000000E-03 0. -1.
        -11    1    3    3    0    0 -0.14997049361E+02  0.49245237574E+01  0.36376928435E+02  0.39654045776E+02  0.51100000000E-03 0.  1.
         12    1    3    3    0    0  0.10696231933E+02 -0.13714981412E+02 -0.37034178806E+02  0.40915039931E+02  0.00000000000E+00 0. -1.
</event>
<event>
 7    1  0.2090370E-015  0.9000777E+02  0.7816164E-02  0.1186339E+00
        -11   -1    0    0    0    0  0.00000000000E+00  0.00000000000E+00  0.45593999997E+02  0.45594000000E+02  0.51100000000E-03 0. -1.
         11   -1    0    0    0    0 -0.00000000000E+00 -0.00000000000E+00 -0.45593999997E+02  0.45594000000E+02  0.51100000000E-03 0.  1.
    9900012    2    1    2    0    0 -0.77138064079E+00 -0.82730784443E+00 -0.33685016363E+00  0.90007773583E+02  0.90000035394E+02 0.  0.
         12    1    1    2    0    0  0.77138064079E+00  0.82730784443E+00  0.33685016363E+00  0.11802264169E+01  0.00000000000E+00 0. -1.
         11    1    3    3    0    0  0.54327802707E+01 -0.76453262525E+01  0.83778040594E+01  0.12575918102E+02  0.51100000000E-03 0. -1.
        -11    1    3    3    0    0 -0.38949421224E+02 -0.76143356034E+01  0.29442220652E+01  0.39795778221E+02  0.51100000000E-03 0.  1.
         12    1    3    3    0    0  0.32745260313E+02  0.14432354011E+02 -0.11658876288E+02  0.37636077261E+02  0.00000000000E+00 0. -1.
</event>
<event>
 7    1  0.2090370E-015  0.9000767E+02  0.7816164E-02  0.1186339E+00
        -11   -1    0    0    0    0  0.00000000000E+00  0.00000000000E+00  0.45593999997E+02  0.45594000000E+02  0.51100000000E-03 0. -1.
         11   -1    0    0    0    0 -0.00000000000E+00 -0.00000000000E+00 -0.45593999997E+02  0.45594000000E+02  0.51100000000E-03 0.  1.
    9900012    2    1    2    0    0  0.13858995719E+00  0.27208197015E+00 -0.11401518230E+01  0.90007668710E+02  0.89999929137E+02 0.  0.
         12    1    1    2    0    0 -0.13858995719E+00 -0.27208197015E+00  0.11401518230E+01  0.11803312900E+01  0.00000000000E+00 0. -1.
         11    1    3    3    0    0 -0.21735826479E+01 -0.49996956419E+01  0.85223027557E+01  0.10116870196E+02  0.51100000000E-03 0. -1.
        -11    1    3    3    0    0 -0.23116016666E+01 -0.35299539586E+02 -0.15536425497E+02  0.38636530832E+02  0.51100000000E-03 0.  1.
         12    1    3    3    0    0  0.46237742716E+01  0.40571317198E+02  0.58739709188E+01  0.41254267682E+02  0.00000000000E+00 0. -1.
</event>
<event>
 7    1  0.2090370E-015  0.9000773E+02  0.7816164E-02  0.1186339E+00
        -11   -1    0    0    0    0  0.00000000000E+00  0.00000000000E+00  0.45593999997E+02  0.45594000000E+02  0.51100000000E-03 0. -1.
         11   -1    0    0    0    0 -0.00000000000E+00 -0.00000000000E+00 -0.45593999997E+02  0.45594000000E+02  0.51100000000E-03 0.  1.
    9900012    2    1    2    0    0  0.45816621970E+00 -0.10837460097E+01  0.92756547149E-01  0.90007734998E+02  0.89999996300E+02 0.  0.
         12    1    1    2    0    0 -0.45816621970E+00  0.10837460097E+01 -0.92756547149E-01  0.11802650022E+01  0.00000000000E+00 0. -1.
         11    1    3    3    0    0  0.35498647407E+02  0.66630490855E+01  0.11652583426E+02  0.37951717900E+02  0.51100000000E-03 0. -1.
        -11    1    3    3    0    0  0.18186883449E+01  0.97225016040E+01 -0.11389460449E+01  0.99564985357E+01  0.51100000000E-03 0.  1.
        -12    1    3    3    0    0 -0.36859169532E+02 -0.17469296699E+02 -0.10420880834E+02  0.42099518562E+02  0.00000000000E+00 0.  1.
</event>
<event>
 7    1  0.2090370E-015  0.9000770E+02  0.7816164E-02  0.1186339E+00
        -11   -1    0    0    0    0  0.00000000000E+00  0.00000000000E+00  0.45593999997E+02  0.45594000000E+02  0.51100000000E-03 0. -1.
         11   -1    0    0    0    0 -0.00000000000E+00 -0.00000000000E+00 -0.45593999997E+02  0.45594000000E+02  0.51100000000E-03 0.  1.
    9900012    2    1    2    0    0  0.26874218115E+00 -0.21195965328E+00 -0.11295788633E+01  0.90007704417E+02  0.89999965315E+02 0.  0.
         12    1    1    2    0    0 -0.26874218115E+00  0.21195965328E+00  0.11295788633E+01  0.11802955828E+01  0.00000000000E+00 0. -1.
         11    1    3    3    0    0  0.13314935571E+02 -0.26778361290E+01 -0.16252181554E+01  0.13678437407E+02  0.51100000000E-03 0. -1.
        -11    1    3    3    0    0  0.17197105194E+02 -0.39758903933E+01 -0.28770857400E+02  0.33753671908E+02  0.51100000000E-03 0.  1.
         12    1    3    3    0    0 -0.30243298584E+02  0.64417668690E+01  0.29266496692E+02  0.42575595102E+02  0.00000000000E+00 0. -1.
</event>
<event>
 7    1  0.2090370E-015  0.9000776E+02  0.7816164E-02  0.1186339E+00
        -11   -1    0    0    0    0  0.00000000000E+00  0.00000000000E+00  0.45593999997E+02  0.45594000000E+02  0.51100000000E-03 0.  1.
         11   -1    0    0    0    0 -0.00000000000E+00 -0.00000000000E+00 -0.45593999997E+02  0.45594000000E+02  0.51100000000E-03 0. -1.
    9900012    2    1    2    0    0 -0.47754962097E+00  0.10708868051E+01  0.13456610357E+00  0.90007762640E+02  0.90000024307E+02 0.  0.
         12    1    1    2    0    0  0.47754962097E+00 -0.10708868051E+01 -0.13456610357E+00  0.11802373601E+01  0.00000000000E+00 0. -1.
         11    1    3    3    0    0 -0.24282388781E+02  0.47680667716E+00 -0.27829418960E+02  0.36936950462E+02  0.51100000000E-03 0. -1.
        -11    1    3    3    0    0  0.17057543520E+01  0.11036171733E+01 -0.94221271888E+01  0.96386746909E+01  0.51100000000E-03 0.  1.
        -12    1    3    3    0    0  0.22099084808E+02 -0.50953704528E+00  0.37386112252E+02  0.43432137487E+02  0.00000000000E+00 0.  1.
</event>
<event>
 7    1  0.2090370E-015  0.9000745E+02  0.7816164E-02  0.1186340E+00
        -11   -1    0    0    0    0  0.00000000000E+00  0.00000000000E+00  0.45593999997E+02  0.45594000000E+02  0.51100000000E-03 0.  1.
         11   -1    0    0    0    0 -0.00000000000E+00 -0.00000000000E+00 -0.45593999997E+02  0.45594000000E+02  0.51100000000E-03 0. -1.
    9900012    2    1    2    0    0 -0.24817888574E+00  0.11524243693E+01 -0.63372016095E-01  0.90007453220E+02  0.89999710802E+02 0.  0.
         12    1    1    2    0    0  0.24817888574E+00 -0.11524243693E+01  0.63372016095E-01  0.11805467796E+01  0.00000000000E+00 0. -1.
         11    1    3    3    0    0  0.17520076040E+02 -0.23122650670E+02  0.28871006633E+02  0.40928536044E+02  0.51100000000E-03 0. -1.
        -11    1    3    3    0    0 -0.38542004853E+01  0.73322517613E+01  0.42469808598E+01  0.93087928302E+01  0.51100000000E-03 0.  1.
        -12    1    3    3    0    0 -0.13914054441E+02  0.16942823279E+02 -0.33181359509E+02  0.39770124346E+02  0.00000000000E+00 0.  1.
</event>
<event>
 7    1  0.2090370E-015  0.9000763E+02  0.7816164E-02  0.1186339E+00
        -11   -1    0    0    0    0  0.00000000000E+00  0.00000000000E+00  0.45593999997E+02  0.45594000000E+02  0.51100000000E-03 0. -1.
         11   -1    0    0    0    0 -0.00000000000E+00 -0.00000000000E+00 -0.45593999997E+02  0.45594000000E+02  0.51100000000E-03 0.  1.
    9900012    2    1    2    0    0 -0.10117713120E+01 -0.47904880010E+00 -0.37431722773E+00  0.90007626192E+02  0.89999886057E+02 0.  0.
         12    1    1    2    0    0  0.10117713120E+01  0.47904880010E+00  0.37431722773E+00  0.11803738084E+01  0.00000000000E+00 0. -1.
         11    1    3    3    0    0 -0.32096823197E+01 -0.58782396947E+00 -0.11198231255E+02  0.11663960782E+02  0.51100000000E-03 0. -1.
        -11    1    3    3    0    0 -0.79363950205E+00 -0.27036181400E+02 -0.22553904677E+02  0.35217376177E+02  0.51100000000E-03 0.  1.
         12    1    3    3    0    0  0.29915505097E+01  0.27144956569E+02  0.33377818704E+02  0.43126289233E+02  0.00000000000E+00 0. -1.
</event>
<event>
 7    1  0.2090370E-015  0.9000767E+02  0.7816164E-02  0.1186339E+00
        -11   -1    0    0    0    0  0.00000000000E+00  0.00000000000E+00  0.45593999997E+02  0.45594000000E+02  0.51100000000E-03 0.  1.
         11   -1    0    0    0    0 -0.00000000000E+00 -0.00000000000E+00 -0.45593999997E+02  0.45594000000E+02  0.51100000000E-03 0. -1.
    9900012    2    1    2    0    0  0.62577508306E+00  0.29009418851E+00  0.95782466195E+00  0.90007670734E+02  0.89999931188E+02 0.  0.
         12    1    1    2    0    0 -0.62577508306E+00 -0.29009418851E+00 -0.95782466195E+00  0.11803292659E+01  0.00000000000E+00 0. -1.
         11    1    3    3    0    0 -0.33000056045E+01 -0.37007786185E+02 -0.10515359516E+01  0.37169503675E+02  0.51100000000E-03 0. -1.
        -11    1    3    3    0    0 -0.31560166818E+01 -0.54265424140E+01  0.68142273162E+01  0.92650687015E+01  0.51100000000E-03 0.  1.
        -12    1    3    3    0    0  0.70817973693E+01  0.42724422787E+02 -0.48048667027E+01  0.43573098358E+02  0.00000000000E+00 0.  1.
</event>
<event>
 7    1  0.2090370E-015  0.9000817E+02  0.7816164E-02  0.1186338E+00
        -11   -1    0    0    0    0  0.00000000000E+00  0.00000000000E+00  0.45593999997E+02  0.45594000000E+02  0.51100000000E-03 0. -1.
         11   -1    0    0    0    0 -0.00000000000E+00 -0.00000000000E+00 -0.45593999997E+02  0.45594000000E+02  0.51100000000E-03 0.  1.
    9900012    2    1    2    0    0  0.95799852491E+00 -0.68840124846E+00 -0.18338824575E-01  0.90008172146E+02  0.90000439217E+02 0.  0.
         12    1    1    2    0    0 -0.95799852491E+00  0.68840124846E+00  0.18338824575E-01  0.11798278540E+01  0.00000000000E+00 0. -1.
         11    1    3    3    0    0  0.15999039276E+02  0.33757739927E+02  0.13601018289E+02  0.39756030505E+02  0.51100000000E-03 0. -1.
        -11    1    3    3    0    0  0.70341412170E+01  0.45310239547E+00 -0.13904247334E+01  0.71845476992E+01  0.51100000000E-03 0.  1.
        -12    1    3    3    0    0 -0.22075181968E+02 -0.34899243571E+02 -0.12228932380E+02  0.43067593942E+02  0.00000000000E+00 0.  1.
</event>
<event>
 7    1  0.2090370E-015  0.9000773E+02  0.7816164E-02  0.1186339E+00
        -11   -1    0    0    0    0  0.00000000000E+00  0.00000000000E+00  0.45593999997E+02  0.45594000000E+02  0.51100000000E-03 0.  1.
         11   -1    0    0    0    0 -0.00000000000E+00 -0.00000000000E+00 -0.45593999997E+02  0.45594000000E+02  0.51100000000E-03 0. -1.
    9900012    2    1    2    0    0  0.30242419655E-01  0.11798839025E+01  0.75049362849E-03  0.90007728340E+02  0.89999989554E+02 0.  0.
         12    1    1    2    0    0 -0.30242419655E-01 -0.11798839025E+01 -0.75049362849E-03  0.11802716596E+01  0.00000000000E+00 0. -1.
         11    1    3    3    0    0 -0.42440038982E+01  0.52908826407E+01  0.32887064169E+01  0.75379439082E+01  0.51100000000E-03 0. -1.
        -11    1    3    3    0    0 -0.20470141886E+00  0.36679357876E+02  0.12129736391E+02  0.38633504916E+02  0.51100000000E-03 0.  1.
         12    1    3    3    0    0  0.44789477368E+01 -0.40790356614E+02 -0.15417692314E+02  0.43836279517E+02  0.00000000000E+00 0. -1.
</event>
<event>
 7    1  0.2090370E-015  0.9000770E+02  0.7816164E-02  0.1186339E+00
        -11   -1    0    0    0    0  0.00000000000E+00  0.00000000000E+00  0.45593999997E+02  0.45594000000E+02  0.51100000000E-03 0.  1.
         11   -1    0    0    0    0 -0.00000000000E+00 -0.00000000000E+00 -0.45593999997E+02  0.45594000000E+02  0.51100000000E-03 0. -1.
    9900012    2    1    2    0    0 -0.50778386479E+00 -0.97833539588E+00 -0.42205701995E+00  0.90007696341E+02  0.89999957132E+02 0.  0.
         12    1    1    2    0    0  0.50778386479E+00  0.97833539588E+00  0.42205701995E+00  0.11803036593E+01  0.00000000000E+00 0. -1.
         11    1    3    3    0    0 -0.44411957242E+01 -0.35605325662E+01  0.88401356942E+01  0.10514257509E+02  0.51100000000E-03 0. -1.
        -11    1    3    3    0    0 -0.30578651864E+02  0.61100676089E+01  0.17427683502E+02  0.35722696266E+02  0.51100000000E-03 0.  1.
         12    1    3    3    0    0  0.34512063723E+02 -0.35278704386E+01 -0.26689876216E+02  0.43770742565E+02  0.00000000000E+00 0. -1.
</event>
<event>
 7    1  0.2090370E-015  0.9000776E+02  0.7816164E-02  0.1186339E+00
        -11   -1    0    0    0    0  0.00000000000E+00  0.00000000000E+00  0.45593999997E+02  0.45594000000E+02  0.51100000000E-03 0.  1.
         11   -1    0    0    0    0 -0.00000000000E+00 -0.00000000000E+00 -0.45593999997E+02  0.45594000000E+02  0.51100000000E-03 0. -1.
    9900012    2    1    2    0    0  0.78744613247E+00  0.27167727401E+00 -0.83611985041E+00  0.90007755806E+02  0.90000017383E+02 0.  0.
         12    1    1    2    0    0 -0.78744613247E+00 -0.27167727401E+00  0.83611985041E+00  0.11802441938E+01  0.00000000000E+00 0. -1.
         11    1    3    3    0    0  0.31357858703E+02  0.16821051131E+02 -0.96221418035E+01  0.36862564706E+02  0.51100000000E-03 0. -1.
        -11    1    3    3    0    0  0.37420295576E+01  0.74562243615E+01 -0.41483208965E+01  0.93170077525E+01  0.51100000000E-03 0.  1.
        -12    1    3    3    0    0 -0.34312442128E+02 -0.24005598219E+02  0.12934342850E+02  0.43828183348E+02  0.00000000000E+00 0.  1.
</event>
<event>
 7    1  0.2090370E-015  0.9000760E+02  0.7816164E-02  0.1186339E+00
        -11   -1    0    0    0    0  0.00000000000E+00  0.00000000000E+00  0.45593999997E+02  0.45594000000E+02  0.51100000000E-03 0.  1.
         11   -1    0    0    0    0 -0.00000000000E+00 -0.00000000000E+00 -0.45593999997E+02  0.45594000000E+02  0.51100000000E-03 0. -1.
    9900012    2    1    2    0    0  0.30881469410E-01 -0.11126119733E+01 -0.39304243374E+00  0.90007601159E+02  0.89999860695E+02 0.  0.
         12    1    1    2    0    0 -0.30881469410E-01  0.11126119733E+01  0.39304243374E+00  0.11803988407E+01  0.00000000000E+00 0. -1.
         11    1    3    3    0    0  0.25555356607E+01  0.43350701506E+01 -0.70984630266E+01  0.87012512505E+01  0.51100000000E-03 0. -1.
        -11    1    3    3    0    0  0.17655317481E+02 -0.38003742017E+02  0.92692797000E+01  0.42917527760E+02  0.51100000000E-03 0.  1.
         12    1    3    3    0    0 -0.20179971672E+02  0.32556059893E+02 -0.25638591072E+01  0.38388822149E+02  0.00000000000E+00 0. -1.
</event>
<event>
 7    1  0.2586337E-015  0.9000766E+02  0.7816164E-02  0.1186339E+00
        -11   -1    0    0    0    0  0.00000000000E+00  0.00000000000E+00  0.45593999997E+02  0.45594000000E+02  0.51100000000E-03 0. -1.
         11   -1    0    0    0    0 -0.00000000000E+00 -0.00000000000E+00 -0.45593999997E+02  0.45594000000E+02  0.51100000000E-03 0.  1.
    9900012    2    1    2    0    0 -0.75784732390E+00  0.12630738007E+00 -0.89605515772E+00  0.90007660656E+02  0.89999920977E+02 0.  0.
         12    1    1    2    0    0  0.75784732390E+00 -0.12630738007E+00  0.89605515772E+00  0.11803393437E+01  0.00000000000E+00 0. -1.
         11    1    3    3    0    0 -0.17419874605E+02 -0.24857090049E+02  0.20278680968E+02  0.36504134821E+02  0.51100000000E-03 0. -1.
        -11    1    3    3    0    0  0.14319300342E+01 -0.96582405308E+01  0.70934725007E+00  0.97895458299E+01  0.51100000000E-03 0.  1.
        -12    1    3    3    0    0  0.15230097247E+02  0.34641637960E+02 -0.21884083376E+02  0.43713980005E+02  0.00000000000E+00 0.  1.
</event>
<event>
 7    1  0.2090370E-015  0.9000771E+02  0.7816164E-02  0.1186339E+00
        -11   -1    0    0    0    0  0.00000000000E+00  0.00000000000E+00  0.45593999997E+02  0.45594000000E+02  0.51100000000E-03 0.  1.
         11   -1    0    0    0    0 -0.00000000000E+00 -0.00000000000E+00 -0.45593999997E+02  0.45594000000E+02  0.51100000000E-03 0. -1.
    9900012    2    1    2    0    0 -0.31924598902E-01  0.11467898118E+01  0.27736815812E+00  0.90007712261E+02  0.89999973263E+02 0.  0.
         12    1    1    2    0    0  0.31924598902E-01 -0.11467898118E+01 -0.27736815812E+00  0.11802877393E+01  0.00000000000E+00 0. -1.
         11    1    3    3    0    0 -0.96218196441E+01  0.88000641379E+01 -0.16170793685E+01  0.13139082466E+02  0.51100000000E-03 0. -1.
        -11    1    3    3    0    0 -0.24131027779E+02 -0.17564844751E+02 -0.19565141871E+02  0.35687883791E+02  0.51100000000E-03 0.  1.
         12    1    3    3    0    0  0.33720922824E+02  0.99115704248E+01  0.21459589397E+02  0.41180746004E+02  0.00000000000E+00 0. -1.
</event>
<event>
 7    1  0.2090370E-015  0.9000775E+02  0.7816164E-02  0.1186339E+00
        -11   -1    0    0    0    0  0.00000000000E+00  0.00000000000E+00  0.45593999997E+02  0.45594000000E+02  0.51100000000E-03 0. -1.
         11   -1    0    0    0    0 -0.00000000000E+00 -0.00000000000E+00 -0.45593999997E+02  0.45594000000E+02  0.51100000000E-03 0.  1.
    9900012    2    1    2    0    0  0.18054812057E-01  0.96900621923E+00 -0.67356572752E+00  0.90007750103E+02  0.90000011605E+02 0.  0.
         12    1    1    2    0    0 -0.18054812057E-01 -0.96900621923E+00  0.67356572752E+00  0.11802498966E+01  0.00000000000E+00 0. -1.
         11    1    3    3    0    0  0.67942333690E+01  0.66739196205E+01 -0.25370422422E+01  0.98559319079E+01  0.51100000000E-03 0. -1.
        -11    1    3    3    0    0  0.35433712860E+02  0.53655450451E+01  0.59312382632E+01  0.36325152006E+02  0.51100000000E-03 0.  1.
         12    1    3    3    0    0 -0.42209891417E+02 -0.11070458446E+02 -0.40677617486E+01  0.43826666189E+02  0.00000000000E+00 0. -1.
</event>
<event>
 7    1  0.2090370E-015  0.9000716E+02  0.7816164E-02  0.1186340E+00
        -11   -1    0    0    0    0  0.00000000000E+00  0.00000000000E+00  0.45593999997E+02  0.45594000000E+02  0.51100000000E-03 0.  1.
         11   -1    0    0    0    0 -0.00000000000E+00 -0.00000000000E+00 -0.45593999997E+02  0.45594000000E+02  0.51100000000E-03 0. -1.
    9900012    2    1    2    0    0 -0.47592727941E+00 -0.15110788933E+00  0.10700616890E+01  0.90007164538E+02  0.89999418308E+02 0.  0.
         12    1    1    2    0    0  0.47592727941E+00  0.15110788933E+00 -0.10700616890E+01  0.11808354618E+01  0.00000000000E+00 0. -1.
         11    1    3    3    0    0  0.25849844103E+02 -0.13020954250E+02 -0.32457056868E+02  0.43488161959E+02  0.51100000000E-03 0. -1.
        -11    1    3    3    0    0 -0.98587944373E+01  0.14338451943E+01  0.37989906580E+01  0.10662273213E+02  0.51100000000E-03 0.  1.
        -12    1    3    3    0    0 -0.16466976945E+02  0.11436001166E+02  0.29728127900E+02  0.35856729366E+02  0.00000000000E+00 0.  1.
</event>
<event>
 7    1  0.2090370E-015  0.9000775E+02  0.7816164E-02  0.1186339E+00
        -11   -1    0    0    0    0  0.00000000000E+00  0.00000000000E+00  0.45593999997E+02  0.45594000000E+02  0.51100000000E-03 0.  1.
         11   -1    0    0    0    0 -0.00000000000E+00 -0.00000000000E+00 -0.45593999997E+02  0.45594000000E+02  0.51100000000E-03 0. -1.
    9900012    2    1    2    0    0  0.73843223310E+00 -0.82606047114E+00  0.40662402360E+00  0.90007745298E+02  0.90000006736E+02 0.  0.
         12    1    1    2    0    0 -0.73843223310E+00  0.82606047114E+00 -0.40662402360E+00  0.11802547019E+01  0.00000000000E+00 0. -1.
         11    1    3    3    0    0 -0.83469661301E+00 -0.65448348262E+01  0.77282496234E+01  0.10161566013E+02  0.51100000000E-03 0. -1.
        -11    1    3    3    0    0  0.59722300581E+01 -0.20199016792E+02  0.28484138116E+02  0.35426175855E+02  0.51100000000E-03 0.  1.
         12    1    3    3    0    0 -0.43991012120E+01  0.25917791147E+02 -0.35805763716E+02  0.44420003430E+02  0.00000000000E+00 0. -1.
</event>
<event>
 7    1  0.2090370E-015  0.9000814E+02  0.7816164E-02  0.1186338E+00
        -11   -1    0    0    0    0  0.00000000000E+00  0.00000000000E+00  0.45593999997E+02  0.45594000000E+02  0.51100000000E-03 0.  1.
         11   -1    0    0    0    0 -0.00000000000E+00 -0.00000000000E+00 -0.45593999997E+02  0.45594000000E+02  0.51100000000E-03 0. -1.
    9900012    2    1    2    0    0 -0.17394711568E+00 -0.10614850934E+01  0.48483133615E+00  0.90008139997E+02  0.90000406644E+02 0.  0.
         12    1    1    2    0    0  0.17394711568E+00  0.10614850934E+01 -0.48483133615E+00  0.11798600031E+01  0.00000000000E+00 0. -1.
         11    1    3    3    0    0  0.32729063287E+01 -0.40144325771E+01  0.85035077670E+01  0.99567680176E+01  0.51100000000E-03 0. -1.
        -11    1    3    3    0    0 -0.35484122052E+02  0.21355737738E+02  0.29252125352E+01  0.41518036090E+02  0.51100000000E-03 0.  1.
         12    1    3    3    0    0  0.32037268608E+02 -0.18402790255E+02 -0.10943888966E+02  0.38533335889E+02  0.00000000000E+00 0. -1.
</event>
<event>
 7    1  0.2090370E-015  0.9000764E+02  0.7816164E-02  0.1186339E+00
        -11   -1    0    0    0    0  0.00000000000E+00  0.00000000000E+00  0.45593999997E+02  0.45594000000E+02  0.51100000000E-03 0.  1.
         11   -1    0    0    0    0 -0.00000000000E+00 -0.00000000000E+00 -0.45593999997E+02  0.45594000000E+02  0.51100000000E-03 0. -1.
    9900012    2    1    2    0    0  0.77168587573E+00 -0.77936305301E+00  0.43628937630E+00  0.90007638073E+02  0.89999898095E+02 0.  0.
         12    1    1    2    0    0 -0.77168587573E+00  0.77936305301E+00 -0.43628937630E+00  0.11803619271E+01  0.00000000000E+00 0. -1.
         11    1    3    3    0    0  0.65963929924E+01 -0.66022588829E+01  0.16587502512E+01  0.94791178663E+01  0.51100000000E-03 0. -1.
        -11    1    3    3    0    0 -0.36883369053E+02  0.18560990419E+02  0.14094797991E+02  0.43629767461E+02  0.51100000000E-03 0.  1.
         12    1    3    3    0    0  0.31058661936E+02 -0.12738094589E+02 -0.15317258866E+02  0.36898752746E+02  0.00000000000E+00 0. -1.
</event>
<event>
 7    1  0.2090370E-015  0.9000788E+02  0.7816164E-02  0.1186339E+00
        -11   -1    0    0    0    0  0.00000000000E+00  0.00000000000E+00  0.45593999997E+02  0.45594000000E+02  0.51100000000E-03 0. -1.
         11   -1    0    0    0    0 -0.00000000000E+00 -0.00000000000E+00 -0.45593999997E+02  0.45594000000E+02  0.51100000000E-03 0.  1.
    9900012    2    1    2    0    0 -0.55718744691E+00  0.22255072986E+00 -0.10162169987E+01  0.90007879808E+02  0.90000143022E+02 0.  0.
         12    1    1    2    0    0  0.55718744691E+00 -0.22255072986E+00  0.10162169987E+01  0.11801201917E+01  0.00000000000E+00 0. -1.
         11    1    3    3    0    0 -0.24809960876E+01  0.75303512495E+01 -0.63380134031E+01  0.10150465294E+02  0.51100000000E-03 0. -1.
        -11    1    3    3    0    0  0.60190419777E+01  0.26733191997E+02  0.27660515870E+02  0.38935800482E+02  0.51100000000E-03 0.  1.
         12    1    3    3    0    0 -0.40952333369E+01 -0.34040992517E+02 -0.22338719466E+02  0.40921614032E+02  0.00000000000E+00 0. -1.
</event>
<event>
 7    1  0.2090370E-015  0.9000773E+02  0.7816164E-02  0.1186339E+00
        -11   -1    0    0    0    0  0.00000000000E+00  0.00000000000E+00  0.45593999997E+02  0.45594000000E+02  0.51100000000E-03 0.  1.
         11   -1    0    0    0    0 -0.00000000000E+00 -0.00000000000E+00 -0.45593999997E+02  0.45594000000E+02  0.51100000000E-03 0. -1.
    9900012    2    1    2    0    0  0.31019460048E+00  0.11282499320E+01  0.15452116561E+00  0.90007726561E+02  0.89999987752E+02 0.  0.
         12    1    1    2    0    0 -0.31019460048E+00 -0.11282499320E+01 -0.15452116561E+00  0.11802734386E+01  0.00000000000E+00 0. -1.
         11    1    3    3    0    0  0.58207056094E+00 -0.43231754815E+01 -0.14760974867E+02  0.15392044428E+02  0.51100000000E-03 0. -1.
        -11    1    3    3    0    0 -0.12596159324E+02  0.22593606620E+02 -0.20755394088E+02  0.33165051994E+02  0.51100000000E-03 0.  1.
         12    1    3    3    0    0  0.12324283363E+02 -0.17142181206E+02  0.35670890121E+02  0.41450630139E+02  0.00000000000E+00 0. -1.
</event>
<event>
 7    1  0.2090370E-015  0.9000786E+02  0.7816164E-02  0.1186339E+00
        -11   -1    0    0    0    0  0.00000000000E+00  0.00000000000E+00  0.45593999997E+02  0.45594000000E+02  0.51100000000E-03 0. -1.
         11   -1    0    0    0    0 -0.00000000000E+00 -0.00000000000E+00 -0.45593999997E+02  0.45594000000E+02  0.51100000000E-03 0.  1.
    9900012    2    1    2    0    0 -0.39620319176E+00 -0.32329341560E+00 -0.10635994764E+01  0.90007856175E+02  0.90000119076E+02 0.  0.
         12    1    1    2    0    0  0.39620319176E+00  0.32329341560E+00  0.10635994764E+01  0.11801438251E+01  0.00000000000E+00 0. -1.
         11    1    3    3    0    0 -0.41353699554E+01 -0.78176951200E+01 -0.41781262779E+01  0.97813281875E+01  0.51100000000E-03 0. -1.
        -11    1    3    3    0    0  0.14899262457E+02  0.26954391781E+02 -0.28164689975E+02  0.41734602187E+02  0.51100000000E-03 0.  1.
         12    1    3    3    0    0 -0.11160095694E+02 -0.19459990076E+02  0.31279216777E+02  0.38491925800E+02  0.00000000000E+00 0. -1.
</event>
<event>
 7    1  0.2090370E-015  0.9000768E+02  0.7816164E-02  0.1186339E+00
        -11   -1    0    0    0    0  0.00000000000E+00  0.00000000000E+00  0.45593999997E+02  0.45594000000E+02  0.51100000000E-03 0. -1.
         11   -1    0    0    0    0 -0.00000000000E+00 -0.00000000000E+00 -0.45593999997E+02  0.45594000000E+02  0.51100000000E-03 0.  1.
    9900012    2    1    2    0    0 -0.79532569259E+00  0.87161912091E+00 -0.29908681920E-01  0.90007679121E+02  0.89999939685E+02 0.  0.
         12    1    1    2    0    0  0.79532569259E+00 -0.87161912091E+00  0.29908681920E-01  0.11803208795E+01  0.00000000000E+00 0. -1.
         11    1    3    3    0    0  0.64461787188E+01  0.63136289571E+01  0.31193031916E+01  0.95469986564E+01  0.51100000000E-03 0. -1.
        -11    1    3    3    0    0 -0.71060315989E+01  0.33015845411E+02  0.16146590548E+02  0.37433328998E+02  0.51100000000E-03 0.  1.
         12    1    3    3    0    0 -0.13547281255E+00 -0.38457855247E+02 -0.19295802421E+02  0.43027351466E+02  0.00000000000E+00 0. -1.
</event>
<event>
 7    1  0.2090370E-015  0.9000786E+02  0.7816164E-02  0.1186339E+00
        -11   -1    0    0    0    0  0.00000000000E+00  0.00000000000E+00  0.45593999997E+02  0.45594000000E+02  0.51100000000E-03 0.  1.
         11   -1    0    0    0    0 -0.00000000000E+00 -0.00000000000E+00 -0.45593999997E+02  0.45594000000E+02  0.51100000000E-03 0. -1.
    9900012    2    1    2    0    0 -0.24931182132E+00 -0.64419844657E+00  0.95685503601E+00  0.90007864591E+02  0.90000127604E+02 0.  0.
         12    1    1    2    0    0  0.24931182132E+00  0.64419844657E+00 -0.95685503601E+00  0.11801354087E+01  0.00000000000E+00 0. -1.
         11    1    3    3    0    0  0.33912884045E+02 -0.19898969217E+01 -0.10571520082E+02  0.35578089200E+02  0.51100000000E-03 0. -1.
        -11    1    3    3    0    0  0.94192448036E+01 -0.94289275098E+00  0.32599191503E+01  0.10011907537E+02  0.51100000000E-03 0.  1.
        -12    1    3    3    0    0 -0.43581440670E+02  0.22885912261E+01  0.82684559680E+01  0.44417867854E+02  0.00000000000E+00 0.  1.
</event>
<event>
 7    1  0.2090370E-015  0.9000777E+02  0.7816164E-02  0.1186339E+00
        -11   -1    0    0    0    0  0.00000000000E+00  0.00000000000E+00  0.45593999997E+02  0.45594000000E+02  0.51100000000E-03 0. -1.
         11   -1    0    0    0    0 -0.00000000000E+00 -0.00000000000E+00 -0.45593999997E+02  0.45594000000E+02  0.51100000000E-03 0.  1.
    9900012    2    1    2    0    0  0.93614696033E+00 -0.44633690356E+00 -0.56333402597E+00  0.90007774179E+02  0.90000035999E+02 0.  0.
         12    1    1    2    0    0 -0.93614696033E+00  0.44633690356E+00  0.56333402597E+00  0.11802258206E+01  0.00000000000E+00 0. -1.
         11    1    3    3    0    0 -0.92500208027E+01 -0.21523626874E+01  0.24686961918E+01  0.98127473797E+01  0.51100000000E-03 0. -1.
        -11    1    3    3    0    0  0.12013675421E+02  0.38871393019E+02  0.78292614547E+01  0.41432003663E+02  0.51100000000E-03 0.  1.
         12    1    3    3    0    0 -0.18275076577E+01 -0.37165367235E+02 -0.10861291672E+02  0.38763023137E+02  0.00000000000E+00 0. -1.
</event>
<event>
 7    1  0.2090370E-015  0.9000771E+02  0.7816164E-02  0.1186339E+00
        -11   -1    0    0    0    0  0.00000000000E+00  0.00000000000E+00  0.45593999997E+02  0.45594000000E+02  0.51100000000E-03 0.  1.
         11   -1    0    0    0    0 -0.00000000000E+00 -0.00000000000E+00 -0.45593999997E+02  0.45594000000E+02  0.51100000000E-03 0. -1.
    9900012    2    1    2    0    0  0.33589414713E+00  0.11202265457E+01  0.15922311255E+00  0.90007710039E+02  0.89999971012E+02 0.  0.
         12    1    1    2    0    0 -0.33589414713E+00 -0.11202265457E+01 -0.15922311255E+00  0.11802899607E+01  0.00000000000E+00 0. -1.
         11    1    3    3    0    0 -0.40262029776E+01 -0.14381443038E+02 -0.32232405140E+02  0.35524134833E+02  0.51100000000E-03 0. -1.
        -11    1    3    3    0    0 -0.70899803189E+00 -0.24306988321E+01 -0.88617043223E+01  0.92163321760E+01  0.51100000000E-03 0.  1.
        -12    1    3    3    0    0  0.50710951566E+01  0.17932368416E+02  0.41253332575E+02  0.45267243031E+02  0.00000000000E+00 0.  1.
</event>
<event>
 7    1  0.2090370E-015  0.9000751E+02  0.7816164E-02  0.1186339E+00
        -11   -1    0    0    0    0  0.00000000000E+00  0.00000000000E+00  0.45593999997E+02  0.45594000000E+02  0.51100000000E-03 0.  1.
         11   -1    0    0    0    0 -0.00000000000E+00 -0.00000000000E+00 -0.45593999997E+02  0.45594000000E+02  0.51100000000E-03 0. -1.
    9900012    2    1    2    0    0 -0.41244420486E+00  0.30703600629E+00  0.10626244972E+01  0.90007511900E+02  0.89999770257E+02 0.  0.
         12    1    1    2    0    0  0.41244420486E+00 -0.30703600629E+00 -0.10626244972E+01  0.11804880996E+01  0.00000000000E+00 0. -1.
         11    1    3    3    0    0 -0.10262373920E+02  0.25831994777E+01  0.25931499082E+01  0.10895580055E+02  0.51100000000E-03 0. -1.
        -11    1    3    3    0    0 -0.72769654107E+01 -0.12848081995E+02  0.34675057656E+02  0.37688022769E+02  0.51100000000E-03 0.  1.
         12    1    3    3    0    0  0.17126895126E+02  0.10571918523E+02 -0.36205583067E+02  0.41423909076E+02  0.00000000000E+00 0. -1.
</event>
<event>
 7    1  0.2090370E-015  0.9000780E+02  0.7816164E-02  0.1186339E+00
        -11   -1    0    0    0    0  0.00000000000E+00  0.00000000000E+00  0.45593999997E+02  0.45594000000E+02  0.51100000000E-03 0.  1.
         11   -1    0    0    0    0 -0.00000000000E+00 -0.00000000000E+00 -0.45593999997E+02  0.45594000000E+02  0.51100000000E-03 0. -1.
    9900012    2    1    2    0    0 -0.55368858098E+00 -0.69359203674E+00  0.77796468895E+00  0.90007800858E+02  0.90000063029E+02 0.  0.
         12    1    1    2    0    0  0.55368858098E+00  0.69359203674E+00 -0.77796468895E+00  0.11801991423E+01  0.00000000000E+00 0. -1.
         11    1    3    3    0    0  0.70831538067E+01 -0.50612241374E+01 -0.64253333126E+01  0.10819979947E+02  0.51100000000E-03 0. -1.
        -11    1    3    3    0    0  0.24593629783E+02 -0.24440776376E+02  0.93321645185E+01  0.35906649393E+02  0.51100000000E-03 0.  1.
         12    1    3    3    0    0 -0.32230472171E+02  0.28808408476E+02 -0.21288665170E+01  0.43281171518E+02  0.00000000000E+00 0. -1.
</event>
<event>
 7    1  0.2090370E-015  0.9000775E+02  0.7816164E-02  0.1186339E+00
        -11   -1    0    0    0    0  0.00000000000E+00  0.00000000000E+00  0.45593999997E+02  0.45594000000E+02  0.51100000000E-03 0.  1.
         11   -1    0    0    0    0 -0.00000000000E+00 -0.00000000000E+00 -0.45593999997E+02  0.45594000000E+02  0.51100000000E-03 0. -1.
    9900012    2    1    2    0    0 -0.53632364527E+00  0.84967725753E+00  0.61919501169E+00  0.90007747079E+02  0.90000008541E+02 0.  0.
         12    1    1    2    0    0  0.53632364527E+00 -0.84967725753E+00 -0.61919501169E+00  0.11802529208E+01  0.00000000000E+00 0. -1.
         11    1    3    3    0    0  0.64700925084E+01 -0.63210221488E+01  0.20186058565E+01  0.92678038357E+01  0.51100000000E-03 0. -1.
        -11    1    3    3    0    0  0.31940482416E+02 -0.57582189088E+01  0.15978277030E+02  0.36175362321E+02  0.51100000000E-03 0.  1.
         12    1    3    3    0    0 -0.38946898569E+02  0.12928918315E+02 -0.17377687874E+02  0.44564580923E+02  0.00000000000E+00 0. -1.
</event>
<event>
 7    1  0.2090370E-015  0.9000773E+02  0.7816164E-02  0.1186339E+00
        -11   -1    0    0    0    0  0.00000000000E+00  0.00000000000E+00  0.45593999997E+02  0.45594000000E+02  0.51100000000E-03 0. -1.
         11   -1    0    0    0    0 -0.00000000000E+00 -0.00000000000E+00 -0.45593999997E+02  0.45594000000E+02  0.51100000000E-03 0.  1.
    9900012    2    1    2    0    0 -0.39280331357E+00 -0.68549815400E+00 -0.87682647804E+00  0.90007734422E+02  0.89999995716E+02 0.  0.
         12    1    1    2    0    0  0.39280331357E+00  0.68549815400E+00  0.87682647804E+00  0.11802655781E+01  0.00000000000E+00 0. -1.
         11    1    3    3    0    0  0.90121671683E+00  0.22780893190E+01  0.85504602150E+01  0.88945068815E+01  0.51100000000E-03 0. -1.
        -11    1    3    3    0    0  0.17363147128E+02 -0.19118002155E+02  0.26838874322E+02  0.37246503993E+02  0.51100000000E-03 0.  1.
         12    1    3    3    0    0 -0.18657167158E+02  0.16154414682E+02 -0.36266161015E+02  0.43866723548E+02  0.00000000000E+00 0. -1.
</event>
<event>
 7    1  0.2090370E-015  0.9000777E+02  0.7816164E-02  0.1186339E+00
        -11   -1    0    0    0    0  0.00000000000E+00  0.00000000000E+00  0.45593999997E+02  0.45594000000E+02  0.51100000000E-03 0.  1.
         11   -1    0    0    0    0 -0.00000000000E+00 -0.00000000000E+00 -0.45593999997E+02  0.45594000000E+02  0.51100000000E-03 0. -1.
    9900012    2    1    2    0    0  0.71668201359E+00  0.31974972373E+00  0.88151337602E+00  0.90007771706E+02  0.90000033492E+02 0.  0.
         12    1    1    2    0    0 -0.71668201359E+00 -0.31974972373E+00 -0.88151337602E+00  0.11802282942E+01  0.00000000000E+00 0. -1.
         11    1    3    3    0    0 -0.23402649813E-01 -0.11334766829E+01  0.11703297047E+02  0.11758081438E+02  0.51100000000E-03 0. -1.
        -11    1    3    3    0    0 -0.16146683833E+02  0.55973860722E+01  0.29637948560E+02  0.34211900339E+02  0.51100000000E-03 0.  1.
         12    1    3    3    0    0  0.16886768497E+02 -0.41441596656E+01 -0.40459732231E+02  0.44037789929E+02  0.00000000000E+00 0. -1.
</event>
<event>
 7    1  0.2090370E-015  0.9000832E+02  0.7816164E-02  0.1186338E+00
        -11   -1    0    0    0    0  0.00000000000E+00  0.00000000000E+00  0.45593999997E+02  0.45594000000E+02  0.51100000000E-03 0. -1.
         11   -1    0    0    0    0 -0.00000000000E+00 -0.00000000000E+00 -0.45593999997E+02  0.45594000000E+02  0.51100000000E-03 0.  1.
    9900012    2    1    2    0    0  0.18583002309E+00  0.76065239069E+00 -0.88233249498E+00  0.90008323990E+02  0.90000593065E+02 0.  0.
         12    1    1    2    0    0 -0.18583002309E+00 -0.76065239069E+00  0.88233249498E+00  0.11796760100E+01  0.00000000000E+00 0. -1.
         11    1    3    3    0    0  0.76799376973E+01 -0.33771674650E+02  0.11623492442E+02  0.36532355913E+02  0.51100000000E-03 0. -1.
        -11    1    3    3    0    0 -0.56609832513E+01 -0.49589743061E+01  0.61898794138E+01  0.97443709370E+01  0.51100000000E-03 0.  1.
        -12    1    3    3    0    0 -0.18331244229E+01  0.39491301347E+02 -0.18695704351E+02  0.43731597140E+02  0.00000000000E+00 0.  1.
</event>
<event>
 7    1  0.2090370E-015  0.9000779E+02  0.7816164E-02  0.1186339E+00
        -11   -1    0    0    0    0  0.00000000000E+00  0.00000000000E+00  0.45593999997E+02  0.45594000000E+02  0.51100000000E-03 0. -1.
         11   -1    0    0    0    0 -0.00000000000E+00 -0.00000000000E+00 -0.45593999997E+02  0.45594000000E+02  0.51100000000E-03 0.  1.
    9900012    2    1    2    0    0  0.53159232733E+00  0.37100764631E+00 -0.98623138613E+00  0.90007792636E+02  0.90000054698E+02 0.  0.
         12    1    1    2    0    0 -0.53159232733E+00 -0.37100764631E+00  0.98623138613E+00  0.11802073644E+01  0.00000000000E+00 0. -1.
         11    1    3    3    0    0 -0.34026533241E+02  0.18423909530E+02  0.27304041610E+01  0.38790469370E+02  0.51100000000E-03 0. -1.
        -11    1    3    3    0    0  0.10737581300E+01  0.80339640383E+01 -0.33461754975E+01  0.87689466534E+01  0.51100000000E-03 0.  1.
        -12    1    3    3    0    0  0.33484367438E+02 -0.26086865922E+02 -0.37046004969E+00  0.42448376612E+02  0.00000000000E+00 0.  1.
</event>
<event>
 7    1  0.2090370E-015  0.9000776E+02  0.7816164E-02  0.1186339E+00
        -11   -1    0    0    0    0  0.00000000000E+00  0.00000000000E+00  0.45593999997E+02  0.45594000000E+02  0.51100000000E-03 0.  1.
         11   -1    0    0    0    0 -0.00000000000E+00 -0.00000000000E+00 -0.45593999997E+02  0.45594000000E+02  0.51100000000E-03 0. -1.
    9900012    2    1    2    0    0 -0.18170068613E+00 -0.25673422046E-01  0.11658891471E+01  0.90007757751E+02  0.90000019353E+02 0.  0.
         12    1    1    2    0    0  0.18170068613E+00  0.25673422046E-01 -0.11658891471E+01  0.11802422494E+01  0.00000000000E+00 0. -1.
         11    1    3    3    0    0 -0.25814075614E+02 -0.27135080031E+02 -0.56701890709E+01  0.37879151422E+02  0.51100000000E-03 0. -1.
        -11    1    3    3    0    0 -0.54839614765E+01  0.11104226206E+01 -0.72902928837E+01  0.91899533439E+01  0.51100000000E-03 0.  1.
        -12    1    3    3    0    0  0.31116336404E+02  0.25998983988E+02  0.14126371102E+02  0.42938652985E+02  0.00000000000E+00 0.  1.
</event>
<event>
 7    1  0.2090370E-015  0.9000762E+02  0.7816164E-02  0.1186339E+00
        -11   -1    0    0    0    0  0.00000000000E+00  0.00000000000E+00  0.45593999997E+02  0.45594000000E+02  0.51100000000E-03 0.  1.
         11   -1    0    0    0    0 -0.00000000000E+00 -0.00000000000E+00 -0.45593999997E+02  0.45594000000E+02  0.51100000000E-03 0. -1.
    9900012    2    1    2    0    0  0.38234924879E+00 -0.29253914606E-01  0.11163562643E+01  0.90007619532E+02  0.89999879310E+02 0.  0.
         12    1    1    2    0    0 -0.38234924879E+00  0.29253914606E-01 -0.11163562643E+01  0.11803804676E+01  0.00000000000E+00 0. -1.
         11    1    3    3    0    0 -0.43184579529E+01 -0.26107090847E+02 -0.24598194810E+02  0.36128942134E+02  0.51100000000E-03 0. -1.
        -11    1    3    3    0    0 -0.16567816263E+01  0.63653109796E+01 -0.10365439238E+02  0.12276173675E+02  0.51100000000E-03 0.  1.
        -12    1    3    3    0    0  0.63575888280E+01  0.19712525953E+02  0.36079990312E+02  0.41602503724E+02  0.00000000000E+00 0.  1.
</event>
<event>
 7    1  0.2090370E-015  0.9000784E+02  0.7816164E-02  0.1186339E+00
        -11   -1    0    0    0    0  0.00000000000E+00  0.00000000000E+00  0.45593999997E+02  0.45594000000E+02  0.51100000000E-03 0.  1.
         11   -1    0    0    0    0 -0.00000000000E+00 -0.00000000000E+00 -0.45593999997E+02  0.45594000000E+02  0.51100000000E-03 0. -1.
    9900012    2    1    2    0    0  0.47942703245E-02  0.11684583651E+01 -0.16573330453E+00  0.90007836679E+02  0.90000099323E+02 0.  0.
         12    1    1    2    0    0 -0.47942703245E-02 -0.11684583651E+01  0.16573330453E+00  0.11801633210E+01  0.00000000000E+00 0. -1.
         11    1    3    3    0    0 -0.21757819123E+02 -0.18033824250E+02  0.36703308178E+01  0.28497242650E+02  0.51100000000E-03 0. -1.
        -11    1    3    3    0    0  0.16805658464E+01  0.17153699271E+01  0.23339876520E+02  0.23463090841E+02  0.51100000000E-03 0.  1.
         12    1    3    3    0    0  0.20082047547E+02  0.17486912688E+02 -0.27175940643E+02  0.38047503188E+02  0.00000000000E+00 0. -1.
</event>
<event>
 7    1  0.2090370E-015  0.9000766E+02  0.7816164E-02  0.1186339E+00
        -11   -1    0    0    0    0  0.00000000000E+00  0.00000000000E+00  0.45593999997E+02  0.45594000000E+02  0.51100000000E-03 0. -1.
         11   -1    0    0    0    0 -0.00000000000E+00 -0.00000000000E+00 -0.45593999997E+02  0.45594000000E+02  0.51100000000E-03 0.  1.
    9900012    2    1    2    0    0  0.97589957338E-01  0.56105964602E+00 -0.10338761453E+01  0.90007656148E+02  0.89999916409E+02 0.  0.
         12    1    1    2    0    0 -0.97589957338E-01 -0.56105964602E+00  0.10338761453E+01  0.11803438524E+01  0.00000000000E+00 0. -1.
         11    1    3    3    0    0  0.94983096906E+01  0.18080302739E+01 -0.44368691728E+01  0.10638264368E+02  0.51100000000E-03 0. -1.
        -11    1    3    3    0    0 -0.41278988793E+01 -0.31972002594E+02 -0.22105979205E+02  0.39088653288E+02  0.51100000000E-03 0.  1.
         12    1    3    3    0    0 -0.52728208539E+01  0.30725031966E+02  0.25508972233E+02  0.40280738491E+02  0.00000000000E+00 0. -1.
</event>
<event>
 7    1  0.2090370E-015  0.9000771E+02  0.7816164E-02  0.1186339E+00
        -11   -1    0    0    0    0  0.00000000000E+00  0.00000000000E+00  0.45593999997E+02  0.45594000000E+02  0.51100000000E-03 0.  1.
         11   -1    0    0    0    0 -0.00000000000E+00 -0.00000000000E+00 -0.45593999997E+02  0.45594000000E+02  0.51100000000E-03 0. -1.
    9900012    2    1    2    0    0  0.93661381834E+00 -0.48768425965E+00 -0.52726649836E+00  0.90007707095E+02  0.89999968028E+02 0.  0.
         12    1    1    2    0    0 -0.93661381834E+00  0.48768425965E+00  0.52726649836E+00  0.11802929052E+01  0.00000000000E+00 0. -1.
         11    1    3    3    0    0 -0.83644284842E+01 -0.89884062715E+00 -0.32746359900E+01  0.90274481150E+01  0.51100000000E-03 0. -1.
        -11    1    3    3    0    0  0.26091480156E+02 -0.10253624281E+02 -0.31006910206E+02  0.41801084058E+02  0.51100000000E-03 0.  1.
         12    1    3    3    0    0 -0.16790437854E+02  0.10664780649E+02  0.33754279698E+02  0.39179174922E+02  0.00000000000E+00 0. -1.
</event>
<event>
 7    1  0.2090370E-015  0.9000743E+02  0.7816164E-02  0.1186340E+00
        -11   -1    0    0    0    0  0.00000000000E+00  0.00000000000E+00  0.45593999997E+02  0.45594000000E+02  0.51100000000E-03 0.  1.
         11   -1    0    0    0    0 -0.00000000000E+00 -0.00000000000E+00 -0.45593999997E+02  0.45594000000E+02  0.51100000000E-03 0. -1.
    9900012    2    1    2    0    0 -0.75795989513E+00 -0.37602334779E+00  0.82331028175E+00  0.90007433788E+02  0.89999691114E+02 0.  0.
         12    1    1    2    0    0  0.75795989513E+00  0.37602334779E+00 -0.82331028175E+00  0.11805662119E+01  0.00000000000E+00 0. -1.
         11    1    3    3    0    0 -0.89330764501E+01 -0.19889273930E+01  0.26741555417E+01  0.95345055016E+01  0.51100000000E-03 0. -1.
        -11    1    3    3    0    0 -0.28725974920E+02  0.14156926786E+02  0.17996857740E+02  0.36735365792E+02  0.51100000000E-03 0.  1.
         12    1    3    3    0    0  0.36901091475E+02 -0.12544022741E+02 -0.19847703000E+02  0.43737562494E+02  0.00000000000E+00 0. -1.
</event>
<event>
 7    1  0.2090370E-015  0.9000777E+02  0.7816164E-02  0.1186339E+00
        -11   -1    0    0    0    0  0.00000000000E+00  0.00000000000E+00  0.45593999997E+02  0.45594000000E+02  0.51100000000E-03 0.  1.
         11   -1    0    0    0    0 -0.00000000000E+00 -0.00000000000E+00 -0.45593999997E+02  0.45594000000E+02  0.51100000000E-03 0. -1.
    9900012    2    1    2    0    0 -0.60352861399E+00 -0.97222200165E+00  0.28892538088E+00  0.90007771088E+02  0.90000032867E+02 0.  0.
         12    1    1    2    0    0  0.60352861399E+00  0.97222200165E+00 -0.28892538088E+00  0.11802289117E+01  0.00000000000E+00 0. -1.
         11    1    3    3    0    0  0.55286042429E+01  0.31221019382E+01  0.37836192219E+01  0.73911271174E+01  0.51100000000E-03 0. -1.
        -11    1    3    3    0    0 -0.89261744215E+01  0.34537211991E+02 -0.19562098025E+02  0.40683796299E+02  0.51100000000E-03 0.  1.
         12    1    3    3    0    0  0.27940415646E+01 -0.38631535931E+02  0.16067404184E+02  0.41932847672E+02  0.00000000000E+00 0. -1.
</event>
<event>
 7    1  0.2090370E-015  0.9000770E+02  0.7816164E-02  0.1186339E+00
        -11   -1    0    0    0    0  0.00000000000E+00  0.00000000000E+00  0.45593999997E+02  0.45594000000E+02  0.51100000000E-03 0.  1.
         11   -1    0    0    0    0 -0.00000000000E+00 -0.00000000000E+00 -0.45593999997E+02  0.45594000000E+02  0.51100000000E-03 0. -1.
    9900012    2    1    2    0    0  0.10190190770E+01  0.52960253038E+00  0.27245794472E+00  0.90007698322E+02  0.89999959140E+02 0.  0.
         12    1    1    2    0    0 -0.10190190770E+01 -0.52960253038E+00 -0.27245794472E+00  0.11803016780E+01  0.00000000000E+00 0. -1.
         11    1    3    3    0    0 -0.32963351839E+01 -0.23747954912E+02 -0.26439295265E+02  0.35691280763E+02  0.51100000000E-03 0. -1.
        -11    1    3    3    0    0 -0.54112923663E+01 -0.44623904194E+00 -0.85728657828E+01  0.10147671770E+02  0.51100000000E-03 0.  1.
        -12    1    3    3    0    0  0.97266466272E+01  0.24723796484E+02  0.35284618992E+02  0.44168745789E+02  0.00000000000E+00 0.  1.
</event>
<event>
 7    1  0.2090370E-015  0.9000774E+02  0.7816164E-02  0.1186339E+00
        -11   -1    0    0    0    0  0.00000000000E+00  0.00000000000E+00  0.45593999997E+02  0.45594000000E+02  0.51100000000E-03 0. -1.
         11   -1    0    0    0    0 -0.00000000000E+00 -0.00000000000E+00 -0.45593999997E+02  0.45594000000E+02  0.51100000000E-03 0.  1.
    9900012    2    1    2    0    0 -0.51429006673E+00 -0.10036653956E+01 -0.34811905677E+00  0.90007735040E+02  0.89999996342E+02 0.  0.
         12    1    1    2    0    0  0.51429006673E+00  0.10036653956E+01  0.34811905677E+00  0.11802649604E+01  0.00000000000E+00 0. -1.
         11    1    3    3    0    0 -0.17760311170E+02 -0.18315328460E+02  0.29525981871E+02  0.39021321289E+02  0.51100000000E-03 0. -1.
        -11    1    3    3    0    0 -0.52304054759E+01  0.88189519397E+01  0.26114105255E+01  0.10580667273E+02  0.51100000000E-03 0.  1.
        -12    1    3    3    0    0  0.22476426580E+02  0.84927111244E+01 -0.32485511453E+02  0.40405746477E+02  0.00000000000E+00 0.  1.
</event>
<event>
 7    1  0.2090370E-015  0.9000723E+02  0.7816164E-02  0.1186340E+00
        -11   -1    0    0    0    0  0.00000000000E+00  0.00000000000E+00  0.45593999997E+02  0.45594000000E+02  0.51100000000E-03 0. -1.
         11   -1    0    0    0    0 -0.00000000000E+00 -0.00000000000E+00 -0.45593999997E+02  0.45594000000E+02  0.51100000000E-03 0.  1.
    9900012    2    1    2    0    0 -0.63683870240E+00  0.58353917300E+00 -0.80506761762E+00  0.90007231027E+02  0.89999485675E+02 0.  0.
         12    1    1    2    0    0  0.63683870240E+00 -0.58353917300E+00  0.80506761762E+00  0.11807689733E+01  0.00000000000E+00 0. -1.
         11    1    3    3    0    0  0.59709406855E+01  0.88879175582E+00 -0.77057455715E+01  0.97887996470E+01  0.51100000000E-03 0. -1.
        -11    1    3    3    0    0 -0.18005814732E+02 -0.21193356269E+02 -0.27026159215E+02  0.38778615193E+02  0.51100000000E-03 0.  1.
         12    1    3    3    0    0  0.11398035344E+02  0.20888103687E+02  0.33926837169E+02  0.41439816187E+02  0.00000000000E+00 0. -1.
</event>
<event>
 7    1  0.2090370E-015  0.9000772E+02  0.7816164E-02  0.1186339E+00
        -11   -1    0    0    0    0  0.00000000000E+00  0.00000000000E+00  0.45593999997E+02  0.45594000000E+02  0.51100000000E-03 0. -1.
         11   -1    0    0    0    0 -0.00000000000E+00 -0.00000000000E+00 -0.45593999997E+02  0.45594000000E+02  0.51100000000E-03 0.  1.
    9900012    2    1    2    0    0  0.10686890814E+01  0.13292574508E+00 -0.48300576049E+00  0.90007720300E+02  0.89999981408E+02 0.  0.
         12    1    1    2    0    0 -0.10686890814E+01 -0.13292574508E+00  0.48300576049E+00  0.11802797004E+01  0.00000000000E+00 0. -1.
         11    1    3    3    0    0 -0.76214362879E+00 -0.26104507307E+01  0.33109575124E+02  0.33221066827E+02  0.51100000000E-03 0. -1.
        -11    1    3    3    0    0  0.54632666839E+01 -0.24299143386E+01  0.10586113197E+02  0.12158024487E+02  0.51100000000E-03 0.  1.
        -12    1    3    3    0    0 -0.36324339737E+01  0.51732908144E+01 -0.44178694081E+02  0.44628628986E+02  0.00000000000E+00 0.  1.
</event>
<event>
 7    1  0.2090370E-015  0.9000780E+02  0.7816164E-02  0.1186339E+00
        -11   -1    0    0    0    0  0.00000000000E+00  0.00000000000E+00  0.45593999997E+02  0.45594000000E+02  0.51100000000E-03 0.  1.
         11   -1    0    0    0    0 -0.00000000000E+00 -0.00000000000E+00 -0.45593999997E+02  0.45594000000E+02  0.51100000000E-03 0. -1.
    9900012    2    1    2    0    0 -0.11464703049E+01  0.12269369396E+00  0.25182678612E+00  0.90007803138E+02  0.90000065340E+02 0.  0.
         12    1    1    2    0    0  0.11464703049E+01 -0.12269369396E+00 -0.25182678612E+00  0.11801968619E+01  0.00000000000E+00 0. -1.
         11    1    3    3    0    0 -0.27762660136E+01 -0.79922706368E+01 -0.37623063435E+01  0.92595352040E+01  0.51100000000E-03 0. -1.
        -11    1    3    3    0    0 -0.31887930817E+02 -0.10739459358E+02 -0.16153122845E+02  0.37324248110E+02  0.51100000000E-03 0.  1.
         12    1    3    3    0    0  0.33517726526E+02  0.18854423689E+02  0.20167255975E+02  0.43424019824E+02  0.00000000000E+00 0. -1.
</event>
<event>
 7    1  0.2090370E-015  0.9000774E+02  0.7816164E-02  0.1186339E+00
        -11   -1    0    0    0    0  0.00000000000E+00  0.00000000000E+00  0.45593999997E+02  0.45594000000E+02  0.51100000000E-03 0. -1.
         11   -1    0    0    0    0 -0.00000000000E+00 -0.00000000000E+00 -0.45593999997E+02  0.45594000000E+02  0.51100000000E-03 0.  1.
    9900012    2    1    2    0    0  0.60153200896E+00  0.53808117277E+00 -0.86118199046E+00  0.90007743025E+02  0.90000004433E+02 0.  0.
         12    1    1    2    0    0 -0.60153200896E+00 -0.53808117277E+00  0.86118199046E+00  0.11802569750E+01  0.00000000000E+00 0. -1.
         11    1    3    3    0    0  0.10550169506E+02 -0.36462546286E+01 -0.16227078573E+01  0.11279824044E+02  0.51100000000E-03 0. -1.
        -11    1    3    3    0    0  0.99329778660E+01  0.25910304222E+02 -0.26665451391E+02  0.38484467156E+02  0.51100000000E-03 0.  1.
         12    1    3    3    0    0 -0.19881615363E+02 -0.21725968420E+02  0.27426977258E+02  0.40243451825E+02  0.00000000000E+00 0. -1.
</event>
<event>
 7    1  0.2090370E-015  0.9000784E+02  0.7816164E-02  0.1186339E+00
        -11   -1    0    0    0    0  0.00000000000E+00  0.00000000000E+00  0.45593999997E+02  0.45594000000E+02  0.51100000000E-03 0. -1.
         11   -1    0    0    0    0 -0.00000000000E+00 -0.00000000000E+00 -0.45593999997E+02  0.45594000000E+02  0.51100000000E-03 0.  1.
    9900012    2    1    2    0    0 -0.10302846302E+01  0.35307747921E+00  0.45455685742E+00  0.90007842357E+02  0.90000105076E+02 0.  0.
         12    1    1    2    0    0  0.10302846302E+01 -0.35307747921E+00 -0.45455685742E+00  0.11801576430E+01  0.00000000000E+00 0. -1.
         11    1    3    3    0    0 -0.44112297308E+01 -0.39586965061E+02 -0.44398209284E+01  0.40078657171E+02  0.51100000000E-03 0. -1.
        -11    1    3    3    0    0 -0.66171621499E+01  0.25168554726E+01 -0.64386496595E+01  0.95696189103E+01  0.51100000000E-03 0.  1.
        -12    1    3    3    0    0  0.99981072505E+01  0.37423187068E+02  0.11333027445E+02  0.40359566276E+02  0.00000000000E+00 0.  1.
</event>
<event>
 7    1  0.2090370E-015  0.9000774E+02  0.7816164E-02  0.1186339E+00
        -11   -1    0    0    0    0  0.00000000000E+00  0.00000000000E+00  0.45593999997E+02  0.45594000000E+02  0.51100000000E-03 0. -1.
         11   -1    0    0    0    0 -0.00000000000E+00 -0.00000000000E+00 -0.45593999997E+02  0.45594000000E+02  0.51100000000E-03 0.  1.
    9900012    2    1    2    0    0 -0.27089376586E+00  0.40237103211E+00 -0.10759772774E+01  0.90007740291E+02  0.90000001663E+02 0.  0.
         12    1    1    2    0    0  0.27089376586E+00 -0.40237103211E+00  0.10759772774E+01  0.11802597093E+01  0.00000000000E+00 0. -1.
         11    1    3    3    0    0 -0.30536275033E+02  0.24581295853E+02  0.45751976255E+01  0.39466905532E+02  0.51100000000E-03 0. -1.
        -11    1    3    3    0    0 -0.66473853648E+01 -0.58802013377E+01  0.47877164351E+00  0.88878412737E+01  0.51100000000E-03 0.  1.
        -12    1    3    3    0    0  0.36912766632E+02 -0.18298723483E+02 -0.61299465464E+01  0.41652993485E+02  0.00000000000E+00 0.  1.
</event>
<event>
 7    1  0.2090370E-015  0.9000798E+02  0.7816164E-02  0.1186339E+00
        -11   -1    0    0    0    0  0.00000000000E+00  0.00000000000E+00  0.45593999997E+02  0.45594000000E+02  0.51100000000E-03 0. -1.
         11   -1    0    0    0    0 -0.00000000000E+00 -0.00000000000E+00 -0.45593999997E+02  0.45594000000E+02  0.51100000000E-03 0.  1.
    9900012    2    1    2    0    0  0.11385535111E+01  0.21330635169E+00 -0.22502171677E+00  0.90007983699E+02  0.90000248284E+02 0.  0.
         12    1    1    2    0    0 -0.11385535111E+01 -0.21330635169E+00  0.22502171677E+00  0.11800163008E+01  0.00000000000E+00 0. -1.
         11    1    3    3    0    0 -0.21110825179E+02 -0.15294209048E+02  0.19398478300E+02  0.32494318437E+02  0.51100000000E-03 0. -1.
        -11    1    3    3    0    0 -0.38514529485E+01 -0.26527663849E+00  0.12581558549E+02  0.13160534841E+02  0.51100000000E-03 0.  1.
        -12    1    3    3    0    0  0.26100831638E+02  0.15772792038E+02 -0.32205058566E+02  0.44353130421E+02  0.00000000000E+00 0.  1.
</event>
<event>
 7    1  0.2090370E-015  0.9000833E+02  0.7816164E-02  0.1186338E+00
        -11   -1    0    0    0    0  0.00000000000E+00  0.00000000000E+00  0.45593999997E+02  0.45594000000E+02  0.51100000000E-03 0. -1.
         11   -1    0    0    0    0 -0.00000000000E+00 -0.00000000000E+00 -0.45593999997E+02  0.45594000000E+02  0.51100000000E-03 0.  1.
    9900012    2    1    2    0    0 -0.60898666606E+00 -0.80386736335E+00 -0.61201365192E+00  0.90008327076E+02  0.90000596192E+02 0.  0.
         12    1    1    2    0    0  0.60898666606E+00  0.80386736335E+00  0.61201365192E+00  0.11796729239E+01  0.00000000000E+00 0. -1.
         11    1    3    3    0    0  0.13924885121E+01  0.36481863842E+01  0.74431611879E+01  0.84052921948E+01  0.51100000000E-03 0. -1.
        -11    1    3    3    0    0  0.39427774368E+02 -0.20763000295E+01 -0.69606944347E+01  0.40091291831E+02  0.51100000000E-03 0.  1.
         12    1    3    3    0    0 -0.41429249546E+02 -0.23757537180E+01 -0.10944804051E+01  0.41511743050E+02  0.00000000000E+00 0. -1.
</event>
<event>
 7    1  0.2090370E-015  0.9000774E+02  0.7816164E-02  0.1186339E+00
        -11   -1    0    0    0    0  0.00000000000E+00  0.00000000000E+00  0.45593999997E+02  0.45594000000E+02  0.51100000000E-03 0. -1.
         11   -1    0    0    0    0 -0.00000000000E+00 -0.00000000000E+00 -0.45593999997E+02  0.45594000000E+02  0.51100000000E-03 0.  1.
    9900012    2    1    2    0    0 -0.22165799392E+00  0.94096007832E+00 -0.67711223617E+00  0.90007737692E+02  0.89999999030E+02 0.  0.
         12    1    1    2    0    0  0.22165799392E+00 -0.94096007832E+00  0.67711223617E+00  0.11802623080E+01  0.00000000000E+00 0. -1.
         11    1    3    3    0    0 -0.39511248403E+02 -0.36988201351E+00  0.10795153930E+02  0.40961090216E+02  0.51100000000E-03 0. -1.
        -11    1    3    3    0    0 -0.15725691330E+01  0.17905083022E+01 -0.76392373994E+01  0.80023022915E+01  0.51100000000E-03 0.  1.
        -12    1    3    3    0    0  0.40862159542E+02 -0.47966621039E+00 -0.38330287665E+01  0.41044345185E+02  0.00000000000E+00 0.  1.
</event>
<event>
 7    1  0.2090370E-015  0.9000782E+02  0.7816164E-02  0.1186339E+00
        -11   -1    0    0    0    0  0.00000000000E+00  0.00000000000E+00  0.45593999997E+02  0.45594000000E+02  0.51100000000E-03 0.  1.
         11   -1    0    0    0    0 -0.00000000000E+00 -0.00000000000E+00 -0.45593999997E+02  0.45594000000E+02  0.51100000000E-03 0. -1.
    9900012    2    1    2    0    0  0.65077590630E+00 -0.98370866946E+00 -0.40297719124E-01  0.90007823770E+02  0.90000086244E+02 0.  0.
         12    1    1    2    0    0 -0.65077590630E+00  0.98370866946E+00  0.40297719124E-01  0.11801762295E+01  0.00000000000E+00 0. -1.
         11    1    3    3    0    0  0.47683525366E+01  0.70873761332E+01  0.48702049429E+01  0.98329539211E+01  0.51100000000E-03 0. -1.
        -11    1    3    3    0    0  0.12867706989E+02 -0.10757084003E+02  0.33846567989E+02  0.37774103620E+02  0.51100000000E-03 0.  1.
         12    1    3    3    0    0 -0.16985283620E+02  0.26859992004E+01 -0.38757070651E+02  0.42400766229E+02  0.00000000000E+00 0. -1.
</event>
<event>
 7    1  0.2090370E-015  0.9000789E+02  0.7816164E-02  0.1186339E+00
        -11   -1    0    0    0    0  0.00000000000E+00  0.00000000000E+00  0.45593999997E+02  0.45594000000E+02  0.51100000000E-03 0. -1.
         11   -1    0    0    0    0 -0.00000000000E+00 -0.00000000000E+00 -0.45593999997E+02  0.45594000000E+02  0.51100000000E-03 0.  1.
    9900012    2    1    2    0    0  0.93225508132E-01 -0.11763698723E+01  0.11571824507E-01  0.90007885184E+02  0.90000148468E+02 0.  0.
         12    1    1    2    0    0 -0.93225508132E-01  0.11763698723E+01 -0.11571824507E-01  0.11801148160E+01  0.00000000000E+00 0. -1.
         11    1    3    3    0    0  0.11541176348E+02  0.18219941747E+02  0.34157514850E+02  0.40396792567E+02  0.51100000000E-03 0. -1.
        -11    1    3    3    0    0  0.14683851199E+01  0.67039748309E+01 -0.68768489504E+01  0.97154765782E+01  0.51100000000E-03 0.  1.
        -12    1    3    3    0    0 -0.12916335960E+02 -0.26100286450E+02 -0.27269094075E+02  0.39895616038E+02  0.00000000000E+00 0.  1.
</event>
<event>
 7    1  0.2090370E-015  0.9000772E+02  0.7816164E-02  0.1186339E+00
        -11   -1    0    0    0    0  0.00000000000E+00  0.00000000000E+00  0.45593999997E+02  0.45594000000E+02  0.51100000000E-03 0.  1.
         11   -1    0    0    0    0 -0.00000000000E+00 -0.00000000000E+00 -0.45593999997E+02  0.45594000000E+02  0.51100000000E-03 0. -1.
    9900012    2    1    2    0    0 -0.34435399229E+00  0.94620993451E+00  0.61576052312E+00  0.90007722942E+02  0.89999984085E+02 0.  0.
         12    1    1    2    0    0  0.34435399229E+00 -0.94620993451E+00 -0.61576052312E+00  0.11802770582E+01  0.00000000000E+00 0. -1.
         11    1    3    3    0    0 -0.13228622197E+02 -0.20607661122E+02 -0.26941254645E+02  0.36407462755E+02  0.51100000000E-03 0. -1.
        -11    1    3    3    0    0  0.18394595155E+01  0.16443466466E+01 -0.96606721090E+01  0.99707609069E+01  0.51100000000E-03 0.  1.
        -12    1    3    3    0    0  0.11044808689E+02  0.19909524410E+02  0.37217687277E+02  0.43629499280E+02  0.00000000000E+00 0.  1.
</event>
<event>
 7    1  0.2090370E-015  0.9000775E+02  0.7816164E-02  0.1186339E+00
        -11   -1    0    0    0    0  0.00000000000E+00  0.00000000000E+00  0.45593999997E+02  0.45594000000E+02  0.51100000000E-03 0.  1.
         11   -1    0    0    0    0 -0.00000000000E+00 -0.00000000000E+00 -0.45593999997E+02  0.45594000000E+02  0.51100000000E-03 0. -1.
    9900012    2    1    2    0    0 -0.11056472996E+01 -0.41006930258E+00 -0.48755040885E-01  0.90007750095E+02  0.90000011596E+02 0.  0.
         12    1    1    2    0    0  0.11056472996E+01  0.41006930258E+00  0.48755040885E-01  0.11802499049E+01  0.00000000000E+00 0. -1.
         11    1    3    3    0    0 -0.24162161468E+02 -0.89571524583E+01 -0.32995244647E+02  0.41865580093E+02  0.51100000000E-03 0. -1.
        -11    1    3    3    0    0 -0.39083125132E+01 -0.31132656173E+01  0.87771689472E+01  0.10099803191E+02  0.51100000000E-03 0.  1.
        -12    1    3    3    0    0  0.26964826682E+02  0.11660348773E+02  0.24169320659E+02  0.38042366811E+02  0.00000000000E+00 0.  1.
</event>
<event>
 7    1  0.2090370E-015  0.9000769E+02  0.7816164E-02  0.1186339E+00
        -11   -1    0    0    0    0  0.00000000000E+00  0.00000000000E+00  0.45593999997E+02  0.45594000000E+02  0.51100000000E-03 0. -1.
         11   -1    0    0    0    0 -0.00000000000E+00 -0.00000000000E+00 -0.45593999997E+02  0.45594000000E+02  0.51100000000E-03 0.  1.
    9900012    2    1    2    0    0  0.55604184781E+00  0.60166525384E+00 -0.84967456716E+00  0.90007690513E+02  0.89999951228E+02 0.  0.
         12    1    1    2    0    0 -0.55604184781E+00 -0.60166525384E+00  0.84967456716E+00  0.11803094866E+01  0.00000000000E+00 0. -1.
         11    1    3    3    0    0  0.26656022739E+02 -0.12675538048E+02 -0.27857555468E+02  0.40586404250E+02  0.51100000000E-03 0. -1.
        -11    1    3    3    0    0 -0.33427692387E+01  0.50830059650E+01 -0.59703538054E+01  0.85238594924E+01  0.51100000000E-03 0.  1.
        -12    1    3    3    0    0 -0.22757211652E+02  0.81941973368E+01  0.32978234706E+02  0.40897426771E+02  0.00000000000E+00 0.  1.
</event>
<event>
 7    1  0.2090370E-015  0.9000773E+02  0.7816164E-02  0.1186339E+00
        -11   -1    0    0    0    0  0.00000000000E+00  0.00000000000E+00  0.45593999997E+02  0.45594000000E+02  0.51100000000E-03 0.  1.
         11   -1    0    0    0    0 -0.00000000000E+00 -0.00000000000E+00 -0.45593999997E+02  0.45594000000E+02  0.51100000000E-03 0. -1.
    9900012    2    1    2    0    0  0.73291096457E+00 -0.18834289946E+00  0.90576205623E+00  0.90007730356E+02  0.89999991597E+02 0.  0.
         12    1    1    2    0    0 -0.73291096457E+00  0.18834289946E+00 -0.90576205623E+00  0.11802696439E+01  0.00000000000E+00 0. -1.
         11    1    3    3    0    0 -0.21701011913E+01 -0.36398112477E+01  0.12224395593E+02  0.12938060634E+02  0.51100000000E-03 0. -1.
        -11    1    3    3    0    0 -0.17145297548E+02  0.20270562723E+01  0.28009732987E+02  0.32903120330E+02  0.51100000000E-03 0.  1.
         12    1    3    3    0    0  0.20048309704E+02  0.14244120760E+01 -0.39328366524E+02  0.44166549392E+02  0.00000000000E+00 0. -1.
</event>
<event>
 7    1  0.2090370E-015  0.9000772E+02  0.7816164E-02  0.1186339E+00
        -11   -1    0    0    0    0  0.00000000000E+00  0.00000000000E+00  0.45593999997E+02  0.45594000000E+02  0.51100000000E-03 0. -1.
         11   -1    0    0    0    0 -0.00000000000E+00 -0.00000000000E+00 -0.45593999997E+02  0.45594000000E+02  0.51100000000E-03 0.  1.
    9900012    2    1    2    0    0 -0.62444899664E-01  0.89513855361E+00 -0.76673552197E+00  0.90007722170E+02  0.89999983303E+02 0.  0.
         12    1    1    2    0    0  0.62444899664E-01 -0.89513855361E+00  0.76673552197E+00  0.11802778301E+01  0.00000000000E+00 0. -1.
         11    1    3    3    0    0  0.15261503698E+02  0.26867249158E+02  0.17848701900E+02  0.35683872159E+02  0.51100000000E-03 0. -1.
        -11    1    3    3    0    0 -0.18534585123E+01  0.56949987028E+01  0.85790424803E+01  0.10462709440E+02  0.51100000000E-03 0.  1.
        -12    1    3    3    0    0 -0.13470490086E+02 -0.31667109307E+02 -0.27194479903E+02  0.43861140571E+02  0.00000000000E+00 0.  1.
</event>
<event>
 7    1  0.3092566E-015  0.9000774E+02  0.7816164E-02  0.1186339E+00
        -11   -1    0    0    0    0  0.00000000000E+00  0.00000000000E+00  0.45593999997E+02  0.45594000000E+02  0.51100000000E-03 0.  1.
         11   -1    0    0    0    0 -0.00000000000E+00 -0.00000000000E+00 -0.45593999997E+02  0.45594000000E+02  0.51100000000E-03 0. -1.
    9900012    2    1    2    0    0  0.11572897349E+01 -0.22480936445E+00  0.56129751002E-01  0.90007741838E+02  0.90000003230E+02 0.  0.
         12    1    1    2    0    0 -0.11572897349E+01  0.22480936445E+00 -0.56129751002E-01  0.11802581623E+01  0.00000000000E+00 0. -1.
         11    1    3    3    0    0 -0.19400623683E+02  0.27875295208E+02 -0.14922693130E+02  0.37095863014E+02  0.51100000000E-03 0. -1.
        -11    1    3    3    0    0  0.40207864431E+01  0.53886926212E+01 -0.68934959587E+01  0.96293830841E+01  0.51100000000E-03 0.  1.
        -12    1    3    3    0    0  0.16537126974E+02 -0.33488797193E+02  0.21872318840E+02  0.43282495740E+02  0.00000000000E+00 0.  1.
</event>
<event>
 7    1  0.2090370E-015  0.9000779E+02  0.7816164E-02  0.1186339E+00
        -11   -1    0    0    0    0  0.00000000000E+00  0.00000000000E+00  0.45593999997E+02  0.45594000000E+02  0.51100000000E-03 0. -1.
         11   -1    0    0    0    0 -0.00000000000E+00 -0.00000000000E+00 -0.45593999997E+02  0.45594000000E+02  0.51100000000E-03 0.  1.
    9900012    2    1    2    0    0 -0.32598127486E+00 -0.25638390983E+00 -0.11049476889E+01  0.90007785657E+02  0.90000047627E+02 0.  0.
         12    1    1    2    0    0  0.32598127486E+00  0.25638390983E+00  0.11049476889E+01  0.11802143432E+01  0.00000000000E+00 0. -1.
         11    1    3    3    0    0 -0.40904892855E+01  0.49254397520E+01  0.30392843129E+02  0.31059893320E+02  0.51100000000E-03 0. -1.
        -11    1    3    3    0    0  0.14636685844E+02 -0.11680804076E+02  0.57629945286E+01  0.19593005450E+02  0.51100000000E-03 0.  1.
        -12    1    3    3    0    0 -0.10872177833E+02  0.64989804143E+01 -0.37260785346E+02  0.39354886887E+02  0.00000000000E+00 0.  1.
</event>
<event>
 7    1  0.2090370E-015  0.9000769E+02  0.7816164E-02  0.1186339E+00
        -11   -1    0    0    0    0  0.00000000000E+00  0.00000000000E+00  0.45593999997E+02  0.45594000000E+02  0.51100000000E-03 0.  1.
         11   -1    0    0    0    0 -0.00000000000E+00 -0.00000000000E+00 -0.45593999997E+02  0.45594000000E+02  0.51100000000E-03 0. -1.
    9900012    2    1    2    0    0 -0.73904997069E+00 -0.86644074645E+00  0.31019917076E+00  0.90007687350E+02  0.89999948023E+02 0.  0.
         12    1    1    2    0    0  0.73904997069E+00  0.86644074645E+00 -0.31019917076E+00  0.11803126500E+01  0.00000000000E+00 0. -1.
         11    1    3    3    0    0 -0.11921031524E+01  0.21772174929E+02 -0.44463151173E+01  0.22253503757E+02  0.51100000000E-03 0. -1.
        -11    1    3    3    0    0 -0.18450109340E+01  0.16631226451E+01  0.31469862913E+02  0.31567741673E+02  0.51100000000E-03 0.  1.
         12    1    3    3    0    0  0.22980641157E+01 -0.24301738321E+02 -0.26713348625E+02  0.36186441920E+02  0.00000000000E+00 0. -1.
</event>
<event>
 7    1  0.2090370E-015  0.9000775E+02  0.7816164E-02  0.1186339E+00
        -11   -1    0    0    0    0  0.00000000000E+00  0.00000000000E+00  0.45593999997E+02  0.45594000000E+02  0.51100000000E-03 0.  1.
         11   -1    0    0    0    0 -0.00000000000E+00 -0.00000000000E+00 -0.45593999997E+02  0.45594000000E+02  0.51100000000E-03 0. -1.
    9900012    2    1    2    0    0 -0.59729305852E+00 -0.65107609560E+00  0.78251527701E+00  0.90007750349E+02  0.90000011854E+02 0.  0.
         12    1    1    2    0    0  0.59729305852E+00  0.65107609560E+00 -0.78251527701E+00  0.11802496510E+01  0.00000000000E+00 0. -1.
         11    1    3    3    0    0 -0.60868126444E+01  0.61224387296E-01 -0.82459178682E+01  0.10249302335E+02  0.51100000000E-03 0. -1.
        -11    1    3    3    0    0 -0.18958136110E+02 -0.30379179314E+02  0.18299278909E+02  0.40214040700E+02  0.51100000000E-03 0.  1.
         12    1    3    3    0    0  0.24447655696E+02  0.29666878831E+02 -0.92708457642E+01  0.39544407314E+02  0.00000000000E+00 0. -1.
</event>
<event>
 7    1  0.2090370E-015  0.9000775E+02  0.7816164E-02  0.1186339E+00
        -11   -1    0    0    0    0  0.00000000000E+00  0.00000000000E+00  0.45593999997E+02  0.45594000000E+02  0.51100000000E-03 0.  1.
         11   -1    0    0    0    0 -0.00000000000E+00 -0.00000000000E+00 -0.45593999997E+02  0.45594000000E+02  0.51100000000E-03 0. -1.
    9900012    2    1    2    0    0 -0.68490846500E+00 -0.85685997929E+00  0.43553571206E+00  0.90007745796E+02  0.90000007241E+02 0.  0.
         12    1    1    2    0    0  0.68490846500E+00  0.85685997929E+00 -0.43553571206E+00  0.11802542040E+01  0.00000000000E+00 0. -1.
         11    1    3    3    0    0 -0.49174171176E+01 -0.22616465037E+02  0.29600760953E+02  0.37575131818E+02  0.51100000000E-03 0. -1.
        -11    1    3    3    0    0 -0.68272130566E+01 -0.57528762104E+01  0.22771443450E+01  0.92136751322E+01  0.51100000000E-03 0.  1.
        -12    1    3    3    0    0  0.11059721709E+02  0.27512481268E+02 -0.31442369585E+02  0.43218938846E+02  0.00000000000E+00 0.  1.
</event>
<event>
 7    1  0.2090370E-015  0.9000783E+02  0.7816164E-02  0.1186339E+00
        -11   -1    0    0    0    0  0.00000000000E+00  0.00000000000E+00  0.45593999997E+02  0.45594000000E+02  0.51100000000E-03 0. -1.
         11   -1    0    0    0    0 -0.00000000000E+00 -0.00000000000E+00 -0.45593999997E+02  0.45594000000E+02  0.51100000000E-03 0.  1.
    9900012    2    1    2    0    0  0.11644680919E+01  0.10483872380E+00 -0.16070884452E+00  0.90007828645E+02  0.90000091183E+02 0.  0.
         12    1    1    2    0    0 -0.11644680919E+01 -0.10483872380E+00  0.16070884452E+00  0.11801713553E+01  0.00000000000E+00 0. -1.
         11    1    3    3    0    0  0.26338055276E+01  0.87096347588E+01 -0.37147777572E+01  0.98282370359E+01  0.51100000000E-03 0. -1.
        -11    1    3    3    0    0  0.64555936634E+01  0.34111934608E+02  0.10300545226E+02  0.36213257302E+02  0.51100000000E-03 0.  1.
         12    1    3    3    0    0 -0.79249310991E+01 -0.42716730643E+02 -0.67464763130E+01  0.43966334307E+02  0.00000000000E+00 0. -1.
</event>
<event>
 7    1  0.2090370E-015  0.9000780E+02  0.7816164E-02  0.1186339E+00
        -11   -1    0    0    0    0  0.00000000000E+00  0.00000000000E+00  0.45593999997E+02  0.45594000000E+02  0.51100000000E-03 0.  1.
         11   -1    0    0    0    0 -0.00000000000E+00 -0.00000000000E+00 -0.45593999997E+02  0.45594000000E+02  0.51100000000E-03 0. -1.
    9900012    2    1    2    0    0 -0.94808867144E+00 -0.60491601817E+00  0.35787605377E+00  0.90007800530E+02  0.90000062697E+02 0.  0.
         12    1    1    2    0    0  0.94808867144E+00  0.60491601817E+00 -0.35787605377E+00  0.11801994695E+01  0.00000000000E+00 0. -1.
         11    1    3    3    0    0 -0.45190764099E+01 -0.44914054044E+01 -0.64134261370E+01  0.90402881138E+01  0.51100000000E-03 0. -1.
        -11    1    3    3    0    0 -0.27781945680E+02 -0.25361507640E+02  0.39722533367E+00  0.37619148898E+02  0.51100000000E-03 0.  1.
         12    1    3    3    0    0  0.31352933418E+02  0.29247997026E+02  0.63740768571E+01  0.43348363519E+02  0.00000000000E+00 0. -1.
</event>
<event>
 7    1  0.2090370E-015  0.9000791E+02  0.7816164E-02  0.1186339E+00
        -11   -1    0    0    0    0  0.00000000000E+00  0.00000000000E+00  0.45593999997E+02  0.45594000000E+02  0.51100000000E-03 0. -1.
         11   -1    0    0    0    0 -0.00000000000E+00 -0.00000000000E+00 -0.45593999997E+02  0.45594000000E+02  0.51100000000E-03 0.  1.
    9900012    2    1    2    0    0 -0.39539288740E+00 -0.10294005279E+01  0.42026185573E+00  0.90007906356E+02  0.90000169919E+02 0.  0.
         12    1    1    2    0    0  0.39539288740E+00  0.10294005279E+01 -0.42026185573E+00  0.11800936444E+01  0.00000000000E+00 0. -1.
         11    1    3    3    0    0 -0.54197117986E+01 -0.75067738778E+01  0.39911560175E+01  0.10082373562E+02  0.51100000000E-03 0. -1.
        -11    1    3    3    0    0 -0.19542924152E+02 -0.23661714548E+02 -0.21131719427E+02  0.37260598304E+02  0.51100000000E-03 0.  1.
         12    1    3    3    0    0  0.24567243063E+02  0.30139087898E+02  0.17560825265E+02  0.42664934490E+02  0.00000000000E+00 0. -1.
</event>
<event>
 7    1  0.2090370E-015  0.9000786E+02  0.7816164E-02  0.1186339E+00
        -11   -1    0    0    0    0  0.00000000000E+00  0.00000000000E+00  0.45593999997E+02  0.45594000000E+02  0.51100000000E-03 0.  1.
         11   -1    0    0    0    0 -0.00000000000E+00 -0.00000000000E+00 -0.45593999997E+02  0.45594000000E+02  0.51100000000E-03 0. -1.
    9900012    2    1    2    0    0  0.11498408428E+01  0.23019782039E+00 -0.13270616126E+00  0.90007857667E+02  0.90000120588E+02 0.  0.
         12    1    1    2    0    0 -0.11498408428E+01 -0.23019782039E+00  0.13270616126E+00  0.11801423328E+01  0.00000000000E+00 0. -1.
         11    1    3    3    0    0 -0.82444173659E+01  0.43188896920E+01 -0.74623810048E+01  0.11929390445E+02  0.51100000000E-03 0. -1.
        -11    1    3    3    0    0 -0.33237440659E+02  0.52943511636E+01  0.72396683106E+01  0.34426304090E+02  0.51100000000E-03 0.  1.
         12    1    3    3    0    0  0.42631698867E+02 -0.93830430352E+01  0.90006532912E-01  0.43652163132E+02  0.00000000000E+00 0. -1.
</event>
<event>
 7    1  0.2090370E-015  0.9000768E+02  0.7816164E-02  0.1186339E+00
        -11   -1    0    0    0    0  0.00000000000E+00  0.00000000000E+00  0.45593999997E+02  0.45594000000E+02  0.51100000000E-03 0. -1.
         11   -1    0    0    0    0 -0.00000000000E+00 -0.00000000000E+00 -0.45593999997E+02  0.45594000000E+02  0.51100000000E-03 0.  1.
    9900012    2    1    2    0    0  0.20683492085E+00 -0.11036806362E+01 -0.36369244129E+00  0.90007676391E+02  0.89999936919E+02 0.  0.
         12    1    1    2    0    0 -0.20683492085E+00  0.11036806362E+01  0.36369244129E+00  0.11803236094E+01  0.00000000000E+00 0. -1.
         11    1    3    3    0    0  0.24513881682E+01  0.96765579995E+01  0.10943538644E+01  0.10042046072E+02  0.51100000000E-03 0. -1.
        -11    1    3    3    0    0  0.13040138017E+02  0.31887660949E+02 -0.32749213293E+01  0.34606259987E+02  0.51100000000E-03 0.  1.
         12    1    3    3    0    0 -0.15284691265E+02 -0.42667899585E+02  0.18168750236E+01  0.45359370332E+02  0.00000000000E+00 0. -1.
</event>
<event>
 7    1  0.2090370E-015  0.9000773E+02  0.7816164E-02  0.1186339E+00
        -11   -1    0    0    0    0  0.00000000000E+00  0.00000000000E+00  0.45593999997E+02  0.45594000000E+02  0.51100000000E-03 0.  1.
         11   -1    0    0    0    0 -0.00000000000E+00 -0.00000000000E+00 -0.45593999997E+02  0.45594000000E+02  0.51100000000E-03 0. -1.
    9900012    2    1    2    0    0 -0.15129340188E+00  0.94010522460E+00  0.69738421944E+00  0.90007732117E+02  0.89999993381E+02 0.  0.
         12    1    1    2    0    0  0.15129340188E+00 -0.94010522460E+00 -0.69738421944E+00  0.11802678833E+01  0.00000000000E+00 0. -1.
         11    1    3    3    0    0  0.40109604076E+02  0.79252406689E+01  0.14228472410E+02  0.43290174476E+02  0.51100000000E-03 0. -1.
        -11    1    3    3    0    0 -0.70774490430E+01 -0.45670297278E+01  0.37566614420E+01  0.92228277086E+01  0.51100000000E-03 0.  1.
        -12    1    3    3    0    0 -0.33183448435E+02 -0.24181057165E+01 -0.17287749633E+02  0.37494729932E+02  0.00000000000E+00 0.  1.
</event>
<event>
 7    1  0.2090370E-015  0.9000770E+02  0.7816164E-02  0.1186339E+00
        -11   -1    0    0    0    0  0.00000000000E+00  0.00000000000E+00  0.45593999997E+02  0.45594000000E+02  0.51100000000E-03 0.  1.
         11   -1    0    0    0    0 -0.00000000000E+00 -0.00000000000E+00 -0.45593999997E+02  0.45594000000E+02  0.51100000000E-03 0. -1.
    9900012    2    1    2    0    0  0.57305940122E+00 -0.48417605224E+00  0.91119883047E+00  0.90007700531E+02  0.89999961378E+02 0.  0.
         12    1    1    2    0    0 -0.57305940122E+00  0.48417605224E+00 -0.91119883047E+00  0.11802994686E+01  0.00000000000E+00 0. -1.
         11    1    3    3    0    0  0.24463254351E+02 -0.27122602182E+02  0.68209397406E+01  0.37156581944E+02  0.51100000000E-03 0. -1.
        -11    1    3    3    0    0  0.43524942679E-01 -0.89550594612E+01  0.21472585901E+01  0.92090012536E+01  0.51100000000E-03 0.  1.
        -12    1    3    3    0    0 -0.23933719893E+02  0.35593485591E+02 -0.80569995003E+01  0.43642117334E+02  0.00000000000E+00 0.  1.
</event>
<event>
 7    1  0.2090370E-015  0.9000774E+02  0.7816164E-02  0.1186339E+00
        -11   -1    0    0    0    0  0.00000000000E+00  0.00000000000E+00  0.45593999997E+02  0.45594000000E+02  0.51100000000E-03 0.  1.
         11   -1    0    0    0    0 -0.00000000000E+00 -0.00000000000E+00 -0.45593999997E+02  0.45594000000E+02  0.51100000000E-03 0. -1.
    9900012    2    1    2    0    0  0.53810036487E+00 -0.42395693167E+00  0.96110102346E+00  0.90007742969E+02  0.90000004376E+02 0.  0.
         12    1    1    2    0    0 -0.53810036487E+00  0.42395693167E+00 -0.96110102346E+00  0.11802570313E+01  0.00000000000E+00 0. -1.
         11    1    3    3    0    0 -0.23815410987E+02  0.26480412978E+02 -0.24633378876E+02  0.43303457449E+02  0.51100000000E-03 0.  1.
        -11    1    3    3    0    0  0.45997022717E+01 -0.11487319230E+02  0.15138870646E+02  0.19552523335E+02  0.51100000000E-03 0. -1.
        -12    1    3    3    0    0  0.19753809080E+02 -0.15417050679E+02  0.10455609254E+02  0.27151762184E+02  0.00000000000E+00 0.  1.
</event>
<event>
 7    1  0.2090370E-015  0.9000776E+02  0.7816164E-02  0.1186339E+00
        -11   -1    0    0    0    0  0.00000000000E+00  0.00000000000E+00  0.45593999997E+02  0.45594000000E+02  0.51100000000E-03 0. -1.
         11   -1    0    0    0    0 -0.00000000000E+00 -0.00000000000E+00 -0.45593999997E+02  0.45594000000E+02  0.51100000000E-03 0.  1.
    9900012    2    1    2    0    0 -0.61776000620E+00  0.64656007730E+00 -0.77026095209E+00  0.90007758799E+02  0.90000020415E+02 0.  0.
         12    1    1    2    0    0  0.61776000620E+00 -0.64656007730E+00  0.77026095209E+00  0.11802412012E+01  0.00000000000E+00 0. -1.
         11    1    3    3    0    0 -0.18506765323E+02  0.29925682414E+02 -0.10278523110E+02  0.36656443748E+02  0.51100000000E-03 0. -1.
        -11    1    3    3    0    0 -0.84346686851E+01  0.45561498585E+01  0.25627382891E+01  0.99231932945E+01  0.51100000000E-03 0.  1.
        -12    1    3    3    0    0  0.26323674002E+02 -0.33835272195E+02  0.69455238684E+01  0.43428121756E+02  0.00000000000E+00 0.  1.
</event>
<event>
 7    1  0.2090370E-015  0.9000775E+02  0.7816164E-02  0.1186339E+00
        -11   -1    0    0    0    0  0.00000000000E+00  0.00000000000E+00  0.45593999997E+02  0.45594000000E+02  0.51100000000E-03 0.  1.
         11   -1    0    0    0    0 -0.00000000000E+00 -0.00000000000E+00 -0.45593999997E+02  0.45594000000E+02  0.51100000000E-03 0. -1.
    9900012    2    1    2    0    0 -0.27440086436E+00 -0.10063935555E+01  0.55214734917E+00  0.90007749807E+02  0.90000011304E+02 0.  0.
         12    1    1    2    0    0  0.27440086436E+00  0.10063935555E+01 -0.55214734917E+00  0.11802501930E+01  0.00000000000E+00 0. -1.
         11    1    3    3    0    0  0.14664621506E+02 -0.24527511368E+01 -0.34126799252E+02  0.37225066011E+02  0.51100000000E-03 0. -1.
        -11    1    3    3    0    0  0.95458726174E+01  0.29223872920E+01 -0.38489944595E+00  0.99906045541E+01  0.51100000000E-03 0.  1.
        -12    1    3    3    0    0 -0.24484894988E+02 -0.14760297106E+01  0.35063846047E+02  0.42792079242E+02  0.00000000000E+00 0.  1.
</event>
<event>
 7    1  0.2090370E-015  0.9000779E+02  0.7816164E-02  0.1186339E+00
        -11   -1    0    0    0    0  0.00000000000E+00  0.00000000000E+00  0.45593999997E+02  0.45594000000E+02  0.51100000000E-03 0.  1.
         11   -1    0    0    0    0 -0.00000000000E+00 -0.00000000000E+00 -0.45593999997E+02  0.45594000000E+02  0.51100000000E-03 0. -1.
    9900012    2    1    2    0    0 -0.86872939089E+00 -0.78902463838E+00  0.12504296016E+00  0.90007793926E+02  0.90000056006E+02 0.  0.
         12    1    1    2    0    0  0.86872939089E+00  0.78902463838E+00 -0.12504296016E+00  0.11802060737E+01  0.00000000000E+00 0. -1.
         11    1    3    3    0    0  0.10263203723E+01  0.41847672869E+02 -0.30823802647E+01  0.41973588438E+02  0.51100000000E-03 0. -1.
        -11    1    3    3    0    0  0.60919014994E+01 -0.43390607346E+01  0.47882732380E+01  0.88806684884E+01  0.51100000000E-03 0.  1.
        -12    1    3    3    0    0 -0.79869512626E+01 -0.38297636772E+02 -0.15808500131E+01  0.39153537000E+02  0.00000000000E+00 0.  1.
</event>
<event>
 7    1  0.2090370E-015  0.9000782E+02  0.7816164E-02  0.1186339E+00
        -11   -1    0    0    0    0  0.00000000000E+00  0.00000000000E+00  0.45593999997E+02  0.45594000000E+02  0.51100000000E-03 0. -1.
         11   -1    0    0    0    0 -0.00000000000E+00 -0.00000000000E+00 -0.45593999997E+02  0.45594000000E+02  0.51100000000E-03 0.  1.
    9900012    2    1    2    0    0 -0.45030218871E+00 -0.28339444292E+00 -0.10534413199E+01  0.90007820740E+02  0.90000083174E+02 0.  0.
         12    1    1    2    0    0  0.45030218871E+00  0.28339444292E+00  0.10534413199E+01  0.11801792601E+01  0.00000000000E+00 0. -1.
         11    1    3    3    0    0 -0.36648520925E+02  0.31331667945E+01 -0.13869903329E+02  0.39310368082E+02  0.51100000000E-03 0. -1.
        -11    1    3    3    0    0 -0.47819159805E+01  0.39834070420E+01  0.57224615789E+01  0.84546329837E+01  0.51100000000E-03 0.  1.
        -12    1    3    3    0    0  0.40980134716E+02 -0.73999682794E+01  0.70940004304E+01  0.42242819674E+02  0.00000000000E+00 0.  1.
</event>
<event>
 7    1  0.2090370E-015  0.9000770E+02  0.7816164E-02  0.1186339E+00
        -11   -1    0    0    0    0  0.00000000000E+00  0.00000000000E+00  0.45593999997E+02  0.45594000000E+02  0.51100000000E-03 0.  1.
         11   -1    0    0    0    0 -0.00000000000E+00 -0.00000000000E+00 -0.45593999997E+02  0.45594000000E+02  0.51100000000E-03 0. -1.
    9900012    2    1    2    0    0 -0.39954121993E+00  0.76169479464E-01  0.11080028332E+01  0.90007701201E+02  0.89999962057E+02 0.  0.
         12    1    1    2    0    0  0.39954121993E+00 -0.76169479464E-01 -0.11080028332E+01  0.11802987987E+01  0.00000000000E+00 0. -1.
         11    1    3    3    0    0 -0.48115502777E+00 -0.90147598194E+01  0.19586588925E+01  0.92376268425E+01  0.51100000000E-03 0. -1.
        -11    1    3    3    0    0  0.16196673407E+02 -0.27890866961E+02  0.17226163709E+02  0.36564646938E+02  0.51100000000E-03 0.  1.
         12    1    3    3    0    0 -0.16115059599E+02  0.36981796260E+02 -0.18076819769E+02  0.44205427421E+02  0.00000000000E+00 0. -1.
</event>
<event>
 7    1  0.2090370E-015  0.9000779E+02  0.7816164E-02  0.1186339E+00
        -11   -1    0    0    0    0  0.00000000000E+00  0.00000000000E+00  0.45593999997E+02  0.45594000000E+02  0.51100000000E-03 0.  1.
         11   -1    0    0    0    0 -0.00000000000E+00 -0.00000000000E+00 -0.45593999997E+02  0.45594000000E+02  0.51100000000E-03 0. -1.
    9900012    2    1    2    0    0 -0.37477507492E+00 -0.11186202522E+01  0.33667011832E-01  0.90007787692E+02  0.90000049689E+02 0.  0.
         12    1    1    2    0    0  0.37477507492E+00  0.11186202522E+01 -0.33667011832E-01  0.11802123085E+01  0.00000000000E+00 0. -1.
         11    1    3    3    0    0 -0.23648986501E+02  0.14416933101E+01 -0.25215515725E+02  0.34600220746E+02  0.51100000000E-03 0. -1.
        -11    1    3    3    0    0 -0.12036084403E+02  0.46993590519E+00  0.26856876042E+00  0.12048248709E+02  0.51100000000E-03 0.  1.
        -12    1    3    3    0    0  0.35310295828E+02 -0.30302494675E+01  0.24980613977E+02  0.43359318237E+02  0.00000000000E+00 0.  1.
</event>
<event>
 7    1  0.2090370E-015  0.9000742E+02  0.7816164E-02  0.1186340E+00
        -11   -1    0    0    0    0  0.00000000000E+00  0.00000000000E+00  0.45593999997E+02  0.45594000000E+02  0.51100000000E-03 0. -1.
         11   -1    0    0    0    0 -0.00000000000E+00 -0.00000000000E+00 -0.45593999997E+02  0.45594000000E+02  0.51100000000E-03 0.  1.
    9900012    2    1    2    0    0 -0.10146389400E+01 -0.13831852690E+00 -0.58748245904E+00  0.90007423940E+02  0.89999681136E+02 0.  0.
         12    1    1    2    0    0  0.10146389400E+01  0.13831852690E+00  0.58748245904E+00  0.11805760599E+01  0.00000000000E+00 0. -1.
         11    1    3    3    0    0  0.11362899252E+01 -0.65314909628E+01  0.58648861671E+01  0.88514642294E+01  0.51100000000E-03 0. -1.
        -11    1    3    3    0    0  0.59495906982E+00 -0.26042809064E+02  0.24845667332E+02  0.35998459212E+02  0.51100000000E-03 0.  1.
         12    1    3    3    0    0 -0.27458879351E+01  0.32435981500E+02 -0.31298035958E+02  0.45157500498E+02  0.00000000000E+00 0. -1.
</event>
<event>
 7    1  0.2090370E-015  0.9000779E+02  0.7816164E-02  0.1186339E+00
        -11   -1    0    0    0    0  0.00000000000E+00  0.00000000000E+00  0.45593999997E+02  0.45594000000E+02  0.51100000000E-03 0. -1.
         11   -1    0    0    0    0 -0.00000000000E+00 -0.00000000000E+00 -0.45593999997E+02  0.45594000000E+02  0.51100000000E-03 0.  1.
    9900012    2    1    2    0    0 -0.70273800382E+00  0.85413069557E+00 -0.41172515001E+00  0.90007789194E+02  0.90000051211E+02 0.  0.
         12    1    1    2    0    0  0.70273800382E+00 -0.85413069557E+00  0.41172515001E+00  0.11802108059E+01  0.00000000000E+00 0. -1.
         11    1    3    3    0    0 -0.75268296732E+01 -0.52465967759E+00 -0.28714357307E+01  0.80730153055E+01  0.51100000000E-03 0. -1.
        -11    1    3    3    0    0 -0.28691570694E+02 -0.24369874668E+02 -0.28245533630E+01  0.37750167181E+02  0.51100000000E-03 0.  1.
         12    1    3    3    0    0  0.35515662363E+02  0.25748665041E+02  0.52842639437E+01  0.44184606708E+02  0.00000000000E+00 0. -1.
</event>
<event>
 7    1  0.2090370E-015  0.9000750E+02  0.7816164E-02  0.1186340E+00
        -11   -1    0    0    0    0  0.00000000000E+00  0.00000000000E+00  0.45593999997E+02  0.45594000000E+02  0.51100000000E-03 0.  1.
         11   -1    0    0    0    0 -0.00000000000E+00 -0.00000000000E+00 -0.45593999997E+02  0.45594000000E+02  0.51100000000E-03 0. -1.
    9900012    2    1    2    0    0  0.94205876266E+00  0.44457307697E+00 -0.55539167284E+00  0.90007500172E+02  0.89999758374E+02 0.  0.
         12    1    1    2    0    0 -0.94205876266E+00 -0.44457307697E+00  0.55539167284E+00  0.11804998278E+01  0.00000000000E+00 0. -1.
         11    1    3    3    0    0  0.31367889324E+02  0.18685992757E+02 -0.16561675389E+02  0.40092392020E+02  0.51100000000E-03 0. -1.
        -11    1    3    3    0    0  0.54747568288E+01 -0.75990999042E+01  0.47745836396E+00  0.93780194305E+01  0.51100000000E-03 0.  1.
        -12    1    3    3    0    0 -0.35900587390E+02 -0.10642319775E+02  0.15528825352E+02  0.40537088721E+02  0.00000000000E+00 0.  1.
</event>
<event>
 7    1  0.2090370E-015  0.9000806E+02  0.7816164E-02  0.1186338E+00
        -11   -1    0    0    0    0  0.00000000000E+00  0.00000000000E+00  0.45593999997E+02  0.45594000000E+02  0.51100000000E-03 0. -1.
         11   -1    0    0    0    0 -0.00000000000E+00 -0.00000000000E+00 -0.45593999997E+02  0.45594000000E+02  0.51100000000E-03 0.  1.
    9900012    2    1    2    0    0 -0.88400569725E+00  0.59273688912E+00  0.50936640965E+00  0.90008060497E+02  0.90000326095E+02 0.  0.
         12    1    1    2    0    0  0.88400569725E+00 -0.59273688912E+00 -0.50936640965E+00  0.11799395034E+01  0.00000000000E+00 0. -1.
         11    1    3    3    0    0 -0.31624811895E+00  0.35321995474E+00  0.78636153471E+01  0.78778946298E+01  0.51100000000E-03 0. -1.
        -11    1    3    3    0    0  0.37016221468E+02  0.32135142753E+01 -0.20211123186E+02  0.42296770875E+02  0.51100000000E-03 0.  1.
         12    1    3    3    0    0 -0.37583979046E+02 -0.29739973409E+01  0.12856874248E+02  0.39833394992E+02  0.00000000000E+00 0. -1.
</event>
<event>
 7    1  0.2090370E-015  0.9000765E+02  0.7816164E-02  0.1186339E+00
        -11   -1    0    0    0    0  0.00000000000E+00  0.00000000000E+00  0.45593999997E+02  0.45594000000E+02  0.51100000000E-03 0.  1.
         11   -1    0    0    0    0 -0.00000000000E+00 -0.00000000000E+00 -0.45593999997E+02  0.45594000000E+02  0.51100000000E-03 0. -1.
    9900012    2    1    2    0    0 -0.42760072516E+00  0.51724700139E+00 -0.97100156561E+00  0.90007647984E+02  0.89999908138E+02 0.  0.
         12    1    1    2    0    0  0.42760072516E+00 -0.51724700139E+00  0.97100156561E+00  0.11803520157E+01  0.00000000000E+00 0. -1.
         11    1    3    3    0    0  0.20473974197E+02 -0.17289863077E+02 -0.18221280950E+02  0.32405833802E+02  0.51100000000E-03 0. -1.
        -11    1    3    3    0    0  0.10723248190E+02 -0.16995916486E+00 -0.79487844215E+01  0.13349161468E+02  0.51100000000E-03 0.  1.
        -12    1    3    3    0    0 -0.31624823113E+02  0.17977069243E+02  0.25199063806E+02  0.44252652714E+02  0.00000000000E+00 0.  1.
</event>
<event>
 7    1  0.2090370E-015  0.9000772E+02  0.7816164E-02  0.1186339E+00
        -11   -1    0    0    0    0  0.00000000000E+00  0.00000000000E+00  0.45593999997E+02  0.45594000000E+02  0.51100000000E-03 0.  1.
         11   -1    0    0    0    0 -0.00000000000E+00 -0.00000000000E+00 -0.45593999997E+02  0.45594000000E+02  0.51100000000E-03 0. -1.
    9900012    2    1    2    0    0  0.92630215749E+00 -0.18996187645E-01  0.73121317582E+00  0.90007716453E+02  0.89999977510E+02 0.  0.
         12    1    1    2    0    0 -0.92630215749E+00  0.18996187645E-01 -0.73121317582E+00  0.11802835467E+01  0.00000000000E+00 0. -1.
         11    1    3    3    0    0  0.63269510598E+01 -0.97922981710E+01 -0.34087443500E+02  0.36026007519E+02  0.51100000000E-03 0. -1.
        -11    1    3    3    0    0 -0.36000582496E+01 -0.53377492881E+01 -0.69818270563E+01  0.94972572971E+01  0.51100000000E-03 0.  1.
        -12    1    3    3    0    0 -0.18005906527E+01  0.15111051271E+02  0.41800483732E+02  0.44484451637E+02  0.00000000000E+00 0.  1.
</event>
<event>
 7    1  0.2090370E-015  0.9000781E+02  0.7816164E-02  0.1186339E+00
        -11   -1    0    0    0    0  0.00000000000E+00  0.00000000000E+00  0.45593999997E+02  0.45594000000E+02  0.51100000000E-03 0.  1.
         11   -1    0    0    0    0 -0.00000000000E+00 -0.00000000000E+00 -0.45593999997E+02  0.45594000000E+02  0.51100000000E-03 0. -1.
    9900012    2    1    2    0    0  0.17878196176E+00  0.26669365913E+00  0.11356780463E+01  0.90007808015E+02  0.90000070280E+02 0.  0.
         12    1    1    2    0    0 -0.17878196176E+00 -0.26669365913E+00 -0.11356780463E+01  0.11801919854E+01  0.00000000000E+00 0. -1.
         11    1    3    3    0    0 -0.15559154286E+01  0.41992734524E+01  0.23788022300E+02  0.24205883077E+02  0.51100000000E-03 0.  1.
        -11    1    3    3    0    0 -0.15799281368E+02  0.18622890002E+02 -0.27549928288E+02  0.36816136037E+02  0.51100000000E-03 0. -1.
         12    1    3    3    0    0  0.17533978758E+02 -0.22555469795E+02  0.48975840343E+01  0.28985788900E+02  0.00000000000E+00 0. -1.
</event>
<event>
 7    1  0.2090370E-015  0.9000769E+02  0.7816164E-02  0.1186339E+00
        -11   -1    0    0    0    0  0.00000000000E+00  0.00000000000E+00  0.45593999997E+02  0.45594000000E+02  0.51100000000E-03 0. -1.
         11   -1    0    0    0    0 -0.00000000000E+00 -0.00000000000E+00 -0.45593999997E+02  0.45594000000E+02  0.51100000000E-03 0.  1.
    9900012    2    1    2    0    0  0.29681562712E+00 -0.96484606482E+00 -0.61164777023E+00  0.90007686296E+02  0.89999946955E+02 0.  0.
         12    1    1    2    0    0 -0.29681562712E+00  0.96484606482E+00  0.61164777023E+00  0.11803137041E+01  0.00000000000E+00 0. -1.
         11    1    3    3    0    0  0.99628243408E+01 -0.17020798649E+02  0.20359997156E+01  0.19827020719E+02  0.51100000000E-03 0. -1.
        -11    1    3    3    0    0  0.48808064447E+01  0.29527056454E+02  0.23013249479E+02  0.37752867258E+02  0.51100000000E-03 0.  1.
        -12    1    3    3    0    0 -0.14546815158E+02 -0.13471103869E+02 -0.25660896965E+02  0.32427798318E+02  0.00000000000E+00 0.  1.
</event>
<event>
 7    1  0.2090370E-015  0.9000768E+02  0.7816164E-02  0.1186339E+00
        -11   -1    0    0    0    0  0.00000000000E+00  0.00000000000E+00  0.45593999997E+02  0.45594000000E+02  0.51100000000E-03 0.  1.
         11   -1    0    0    0    0 -0.00000000000E+00 -0.00000000000E+00 -0.45593999997E+02  0.45594000000E+02  0.51100000000E-03 0. -1.
    9900012    2    1    2    0    0 -0.42889388729E+00  0.79755799056E+00 -0.75703410718E+00  0.90007682520E+02  0.89999943129E+02 0.  0.
         12    1    1    2    0    0  0.42889388729E+00 -0.79755799056E+00  0.75703410718E+00  0.11803174803E+01  0.00000000000E+00 0. -1.
         11    1    3    3    0    0 -0.76894259302E+01  0.84768839544E+00 -0.45877074756E+01  0.89940484152E+01  0.51100000000E-03 0. -1.
        -11    1    3    3    0    0 -0.94768690074E+01  0.37942555840E+02  0.53345959816E+01  0.39470324351E+02  0.51100000000E-03 0.  1.
         12    1    3    3    0    0  0.16737401050E+02 -0.37992686245E+02 -0.15039226131E+01  0.41543309753E+02  0.00000000000E+00 0. -1.
</event>
<event>
 7    1  0.2090370E-015  0.9000784E+02  0.7816164E-02  0.1186339E+00
        -11   -1    0    0    0    0  0.00000000000E+00  0.00000000000E+00  0.45593999997E+02  0.45594000000E+02  0.51100000000E-03 0. -1.
         11   -1    0    0    0    0 -0.00000000000E+00 -0.00000000000E+00 -0.45593999997E+02  0.45594000000E+02  0.51100000000E-03 0.  1.
    9900012    2    1    2    0    0 -0.57699296801E+00  0.23640237883E+00 -0.10019868044E+01  0.90007837076E+02  0.90000099726E+02 0.  0.
         12    1    1    2    0    0  0.57699296801E+00 -0.23640237883E+00  0.10019868044E+01  0.11801629235E+01  0.00000000000E+00 0. -1.
         11    1    3    3    0    0 -0.49364250961E+01 -0.57703759612E+01  0.48880747352E+01  0.90309914373E+01  0.51100000000E-03 0. -1.
        -11    1    3    3    0    0 -0.11443222513E+02 -0.53950178949E+01 -0.39857290953E+02  0.41816948740E+02  0.51100000000E-03 0.  1.
         12    1    3    3    0    0  0.15802654641E+02  0.11401796235E+02  0.33967229414E+02  0.39159896899E+02  0.00000000000E+00 0. -1.
</event>
<event>
 7    1  0.2090370E-015  0.9000773E+02  0.7816164E-02  0.1186339E+00
        -11   -1    0    0    0    0  0.00000000000E+00  0.00000000000E+00  0.45593999997E+02  0.45594000000E+02  0.51100000000E-03 0.  1.
         11   -1    0    0    0    0 -0.00000000000E+00 -0.00000000000E+00 -0.45593999997E+02  0.45594000000E+02  0.51100000000E-03 0. -1.
    9900012    2    1    2    0    0 -0.85986096610E+00  0.60352263406E+00 -0.53799368718E+00  0.90007729837E+02  0.89999991071E+02 0.  0.
         12    1    1    2    0    0  0.85986096610E+00 -0.60352263406E+00  0.53799368718E+00  0.11802701633E+01  0.00000000000E+00 0. -1.
         11    1    3    3    0    0  0.21606674741E+02  0.32210770049E+02  0.13342554805E+02  0.41017141167E+02  0.51100000000E-03 0. -1.
        -11    1    3    3    0    0  0.24438637152E+01 -0.22725405198E+01 -0.97259171202E+01  0.10282527625E+02  0.51100000000E-03 0.  1.
        -12    1    3    3    0    0 -0.24910399422E+02 -0.29334706896E+02 -0.41546313719E+01  0.38708061045E+02  0.00000000000E+00 0.  1.
</event>
<event>
 7    1  0.2090370E-015  0.9000776E+02  0.7816164E-02  0.1186339E+00
        -11   -1    0    0    0    0  0.00000000000E+00  0.00000000000E+00  0.45593999997E+02  0.45594000000E+02  0.51100000000E-03 0. -1.
         11   -1    0    0    0    0 -0.00000000000E+00 -0.00000000000E+00 -0.45593999997E+02  0.45594000000E+02  0.51100000000E-03 0.  1.
    9900012    2    1    2    0    0  0.70722072286E-01 -0.86150064350E+00  0.80361037517E+00  0.90007756548E+02  0.90000018135E+02 0.  0.
         12    1    1    2    0    0 -0.70722072286E-01  0.86150064350E+00 -0.80361037517E+00  0.11802434517E+01  0.00000000000E+00 0. -1.
         11    1    3    3    0    0 -0.95346582065E+01  0.23647575411E+01 -0.40170625344E+01  0.10613132290E+02  0.51100000000E-03 0. -1.
        -11    1    3    3    0    0  0.24288690695E+02 -0.20059505273E+02 -0.26334751749E+02  0.41059023337E+02  0.51100000000E-03 0.  1.
         12    1    3    3    0    0 -0.14683310416E+02  0.16833247088E+02  0.31155424659E+02  0.38335600921E+02  0.00000000000E+00 0. -1.
</event>
<event>
 7    1  0.2090370E-015  0.9000772E+02  0.7816164E-02  0.1186339E+00
        -11   -1    0    0    0    0  0.00000000000E+00  0.00000000000E+00  0.45593999997E+02  0.45594000000E+02  0.51100000000E-03 0. -1.
         11   -1    0    0    0    0 -0.00000000000E+00 -0.00000000000E+00 -0.45593999997E+02  0.45594000000E+02  0.51100000000E-03 0.  1.
    9900012    2    1    2    0    0 -0.16126324643E+00 -0.89945819070E+00 -0.74701066844E+00  0.90007722147E+02  0.89999983279E+02 0.  0.
         12    1    1    2    0    0  0.16126324643E+00  0.89945819070E+00  0.74701066844E+00  0.11802778530E+01  0.00000000000E+00 0. -1.
         11    1    3    3    0    0  0.35589466539E+01 -0.31972743718E+02 -0.18384634872E+02  0.37052897886E+02  0.51100000000E-03 0. -1.
        -11    1    3    3    0    0 -0.10981333006E+01 -0.92477153876E+01  0.14417376418E+01  0.94236269198E+01  0.51100000000E-03 0.  1.
        -12    1    3    3    0    0 -0.26220765997E+01  0.40321000915E+02  0.16195886561E+02  0.43531197341E+02  0.00000000000E+00 0.  1.
</event>
<event>
 7    1  0.2090370E-015  0.9000774E+02  0.7816164E-02  0.1186339E+00
        -11   -1    0    0    0    0  0.00000000000E+00  0.00000000000E+00  0.45593999997E+02  0.45594000000E+02  0.51100000000E-03 0. -1.
         11   -1    0    0    0    0 -0.00000000000E+00 -0.00000000000E+00 -0.45593999997E+02  0.45594000000E+02  0.51100000000E-03 0.  1.
    9900012    2    1    2    0    0  0.11351751730E+01 -0.73441557208E-01 -0.31463844835E+00  0.90007739991E+02  0.90000001359E+02 0.  0.
         12    1    1    2    0    0 -0.11351751730E+01  0.73441557208E-01  0.31463844835E+00  0.11802600090E+01  0.00000000000E+00 0. -1.
         11    1    3    3    0    0 -0.44423240645E+01  0.62238686393E+01  0.24421487372E+01  0.80271336509E+01  0.51100000000E-03 0. -1.
        -11    1    3    3    0    0 -0.71666956592E+01  0.35811698631E+02 -0.88141274112E+01  0.37570309126E+02  0.51100000000E-03 0.  1.
         12    1    3    3    0    0  0.12744194897E+02 -0.42109008828E+02  0.60573402257E+01  0.44410297214E+02  0.00000000000E+00 0. -1.
</event>
<event>
 7    1  0.2090370E-015  0.9000801E+02  0.7816164E-02  0.1186338E+00
        -11   -1    0    0    0    0  0.00000000000E+00  0.00000000000E+00  0.45593999997E+02  0.45594000000E+02  0.51100000000E-03 0. -1.
         11   -1    0    0    0    0 -0.00000000000E+00 -0.00000000000E+00 -0.45593999997E+02  0.45594000000E+02  0.51100000000E-03 0.  1.
    9900012    2    1    2    0    0  0.48835549455E+00  0.67097879993E+00 -0.83884817493E+00  0.90008012754E+02  0.90000277722E+02 0.  0.
         12    1    1    2    0    0 -0.48835549455E+00 -0.67097879993E+00  0.83884817493E+00  0.11799872455E+01  0.00000000000E+00 0. -1.
         11    1    3    3    0    0 -0.31874802287E+01 -0.15055720453E+01  0.91083977940E+01  0.97667644605E+01  0.51100000000E-03 0. -1.
        -11    1    3    3    0    0  0.22298375037E+01  0.24491629326E+02  0.27333217680E+02  0.36768422203E+02  0.51100000000E-03 0.  1.
         12    1    3    3    0    0  0.14459982196E+01 -0.22315078481E+02 -0.37280463648E+02  0.43472826091E+02  0.00000000000E+00 0. -1.
</event>
<event>
 7    1  0.2090370E-015  0.9000772E+02  0.7816164E-02  0.1186339E+00
        -11   -1    0    0    0    0  0.00000000000E+00  0.00000000000E+00  0.45593999997E+02  0.45594000000E+02  0.51100000000E-03 0.  1.
         11   -1    0    0    0    0 -0.00000000000E+00 -0.00000000000E+00 -0.45593999997E+02  0.45594000000E+02  0.51100000000E-03 0. -1.
    9900012    2    1    2    0    0 -0.21992679259E+00  0.15372170428E-01  0.11595084042E+01  0.90007718747E+02  0.89999979834E+02 0.  0.
         12    1    1    2    0    0  0.21992679259E+00 -0.15372170428E-01 -0.11595084042E+01  0.11802812534E+01  0.00000000000E+00 0. -1.
         11    1    3    3    0    0 -0.34827405252E+02 -0.13409612750E+02  0.12312818791E+02  0.39298490779E+02  0.51100000000E-03 0. -1.
        -11    1    3    3    0    0  0.31076465990E+01 -0.35509796154E+00  0.99074248331E+01  0.10389447966E+02  0.51100000000E-03 0.  1.
        -12    1    3    3    0    0  0.31499831860E+02  0.13780082881E+02 -0.21060735220E+02  0.40319780002E+02  0.00000000000E+00 0.  1.
</event>
<event>
 7    1  0.2090370E-015  0.9000773E+02  0.7816164E-02  0.1186339E+00
        -11   -1    0    0    0    0  0.00000000000E+00  0.00000000000E+00  0.45593999997E+02  0.45594000000E+02  0.51100000000E-03 0.  1.
         11   -1    0    0    0    0 -0.00000000000E+00 -0.00000000000E+00 -0.45593999997E+02  0.45594000000E+02  0.51100000000E-03 0. -1.
    9900012    2    1    2    0    0 -0.67331795597E+00 -0.96424670324E+00 -0.99507610636E-01  0.90007732853E+02  0.89999994126E+02 0.  0.
         12    1    1    2    0    0  0.67331795597E+00  0.96424670324E+00  0.99507610636E-01  0.11802671474E+01  0.00000000000E+00 0. -1.
         11    1    3    3    0    0 -0.41852071243E+02  0.40844637069E+01  0.56978157217E+00  0.42054766227E+02  0.51100000000E-03 0. -1.
        -11    1    3    3    0    0  0.30452244181E+01  0.30473066192E+00 -0.81676764572E+01  0.87222239999E+01  0.51100000000E-03 0.  1.
        -12    1    3    3    0    0  0.38133528869E+02 -0.53534410721E+01  0.74983872744E+01  0.39230742626E+02  0.00000000000E+00 0.  1.
</event>
<event>
 7    1  0.2090370E-015  0.9000778E+02  0.7816164E-02  0.1186339E+00
        -11   -1    0    0    0    0  0.00000000000E+00  0.00000000000E+00  0.45593999997E+02  0.45594000000E+02  0.51100000000E-03 0.  1.
         11   -1    0    0    0    0 -0.00000000000E+00 -0.00000000000E+00 -0.45593999997E+02  0.45594000000E+02  0.51100000000E-03 0. -1.
    9900012    2    1    2    0    0 -0.85743749800E+00 -0.56658963642E+00  0.58026007784E+00  0.90007777717E+02  0.90000039583E+02 0.  0.
         12    1    1    2    0    0  0.85743749800E+00  0.56658963642E+00 -0.58026007784E+00  0.11802222829E+01  0.00000000000E+00 0. -1.
         11    1    3    3    0    0 -0.14737543236E+02  0.92406911980E+01 -0.30523110513E+02  0.35131834994E+02  0.51100000000E-03 0. -1.
        -11    1    3    3    0    0 -0.90492017002E+01 -0.82481239179E+01 -0.40326332648E+01  0.12891149324E+02  0.51100000000E-03 0.  1.
        -12    1    3    3    0    0  0.22929307438E+02 -0.15591569165E+01  0.35136003855E+02  0.41984793399E+02  0.00000000000E+00 0.  1.
</event>
<event>
 7    1  0.2090370E-015  0.9000778E+02  0.7816164E-02  0.1186339E+00
        -11   -1    0    0    0    0  0.00000000000E+00  0.00000000000E+00  0.45593999997E+02  0.45594000000E+02  0.51100000000E-03 0.  1.
         11   -1    0    0    0    0 -0.00000000000E+00 -0.00000000000E+00 -0.45593999997E+02  0.45594000000E+02  0.51100000000E-03 0. -1.
    9900012    2    1    2    0    0 -0.10969426066E+01 -0.42925791990E+00  0.73347138131E-01  0.90007777459E+02  0.90000039321E+02 0.  0.
         12    1    1    2    0    0  0.10969426066E+01  0.42925791990E+00 -0.73347138131E-01  0.11802225411E+01  0.00000000000E+00 0. -1.
         11    1    3    3    0    0  0.51596432160E+01  0.35547548442E+02  0.27614861064E+01  0.36026045080E+02  0.51100000000E-03 0. -1.
        -11    1    3    3    0    0 -0.49711223390E+01  0.59761176984E+01  0.74877906554E+01  0.10793194579E+02  0.51100000000E-03 0.  1.
        -12    1    3    3    0    0 -0.12854634836E+01 -0.41952924060E+02 -0.10175929624E+02  0.43188537800E+02  0.00000000000E+00 0.  1.
</event>
<event>
 7    1  0.2090370E-015  0.9000776E+02  0.7816164E-02  0.1186339E+00
        -11   -1    0    0    0    0  0.00000000000E+00  0.00000000000E+00  0.45593999997E+02  0.45594000000E+02  0.51100000000E-03 0.  1.
         11   -1    0    0    0    0 -0.00000000000E+00 -0.00000000000E+00 -0.45593999997E+02  0.45594000000E+02  0.51100000000E-03 0. -1.
    9900012    2    1    2    0    0 -0.10967427340E+01 -0.31838155330E+00 -0.29790680928E+00  0.90007762776E+02  0.90000024445E+02 0.  0.
         12    1    1    2    0    0  0.10967427340E+01  0.31838155330E+00  0.29790680928E+00  0.11802372241E+01  0.00000000000E+00 0. -1.
         11    1    3    3    0    0  0.41490762608E+01 -0.39559296581E+01 -0.96775490710E+01  0.11248074038E+02  0.51100000000E-03 0. -1.
        -11    1    3    3    0    0  0.29379358435E+02 -0.11534630772E+02 -0.13765414051E+02  0.34433719424E+02  0.51100000000E-03 0.  1.
         12    1    3    3    0    0 -0.34625177430E+02  0.15172178877E+02  0.23145056313E+02  0.44325969314E+02  0.00000000000E+00 0. -1.
</event>
<event>
 7    1  0.2090370E-015  0.9000775E+02  0.7816164E-02  0.1186339E+00
        -11   -1    0    0    0    0  0.00000000000E+00  0.00000000000E+00  0.45593999997E+02  0.45594000000E+02  0.51100000000E-03 0.  1.
         11   -1    0    0    0    0 -0.00000000000E+00 -0.00000000000E+00 -0.45593999997E+02  0.45594000000E+02  0.51100000000E-03 0. -1.
    9900012    2    1    2    0    0  0.53513470381E-01  0.11786311818E+01  0.30923657078E-01  0.90007749422E+02  0.90000010914E+02 0.  0.
         12    1    1    2    0    0 -0.53513470381E-01 -0.11786311818E+01 -0.30923657078E-01  0.11802505779E+01  0.00000000000E+00 0. -1.
         11    1    3    3    0    0 -0.23656575273E+02 -0.13272087019E+01  0.21129710563E+02  0.31746806222E+02  0.51100000000E-03 0. -1.
        -11    1    3    3    0    0 -0.11831771083E+02  0.33647547080E+01  0.58772401790E+01  0.13632840261E+02  0.51100000000E-03 0.  1.
        -12    1    3    3    0    0  0.35541859826E+02 -0.85891482433E+00 -0.26976027085E+02  0.44628102938E+02  0.00000000000E+00 0.  1.
</event>
<event>
 7    1  0.2090370E-015  0.9000777E+02  0.7816164E-02  0.1186339E+00
        -11   -1    0    0    0    0  0.00000000000E+00  0.00000000000E+00  0.45593999997E+02  0.45594000000E+02  0.51100000000E-03 0. -1.
         11   -1    0    0    0    0 -0.00000000000E+00 -0.00000000000E+00 -0.45593999997E+02  0.45594000000E+02  0.51100000000E-03 0.  1.
    9900012    2    1    2    0    0 -0.66201240198E+00  0.23522512044E+00 -0.94834098884E+00  0.90007770400E+02  0.90000032169E+02 0.  0.
         12    1    1    2    0    0  0.66201240198E+00 -0.23522512044E+00  0.94834098884E+00  0.11802296000E+01  0.00000000000E+00 0. -1.
         11    1    3    3    0    0 -0.22063477404E+02  0.24961828048E+02  0.15335671442E+02  0.36675232971E+02  0.51100000000E-03 0. -1.
        -11    1    3    3    0    0 -0.28397622430E+01  0.27361545638E+00  0.95538830866E+01  0.99707470787E+01  0.51100000000E-03 0.  1.
        -12    1    3    3    0    0  0.24241227245E+02 -0.25000218384E+02 -0.25837895517E+02  0.43361790350E+02  0.00000000000E+00 0.  1.
</event>
<event>
 7    1  0.2090370E-015  0.9000775E+02  0.7816164E-02  0.1186339E+00
        -11   -1    0    0    0    0  0.00000000000E+00  0.00000000000E+00  0.45593999997E+02  0.45594000000E+02  0.51100000000E-03 0. -1.
         11   -1    0    0    0    0 -0.00000000000E+00 -0.00000000000E+00 -0.45593999997E+02  0.45594000000E+02  0.51100000000E-03 0.  1.
    9900012    2    1    2    0    0 -0.54826589805E+00  0.64259261247E+00 -0.82430493239E+00  0.90007746052E+02  0.90000007500E+02 0.  0.
         12    1    1    2    0    0  0.54826589805E+00 -0.64259261247E+00  0.82430493239E+00  0.11802539481E+01  0.00000000000E+00 0. -1.
         11    1    3    3    0    0 -0.25731703797E+02 -0.93286321003E+01 -0.41792029154E+01  0.27687717393E+02  0.51100000000E-03 0. -1.
        -11    1    3    3    0    0 -0.14794491252E+02  0.81182193475E+01  0.12822797484E+02  0.21194494388E+02  0.51100000000E-03 0.  1.
        -12    1    3    3    0    0  0.39977929151E+02  0.18530053653E+01 -0.94678995011E+01  0.41125534271E+02  0.00000000000E+00 0.  1.
</event>
<event>
 7    1  0.2090370E-015  0.9000762E+02  0.7816164E-02  0.1186339E+00
        -11   -1    0    0    0    0  0.00000000000E+00  0.00000000000E+00  0.45593999997E+02  0.45594000000E+02  0.51100000000E-03 0.  1.
         11   -1    0    0    0    0 -0.00000000000E+00 -0.00000000000E+00 -0.45593999997E+02  0.45594000000E+02  0.51100000000E-03 0. -1.
    9900012    2    1    2    0    0 -0.10470821073E+01  0.76520533365E-01  0.53950410807E+00  0.90007618276E+02  0.89999878037E+02 0.  0.
         12    1    1    2    0    0  0.10470821073E+01 -0.76520533365E-01 -0.53950410807E+00  0.11803817239E+01  0.00000000000E+00 0. -1.
         11    1    3    3    0    0  0.74806676035E+01 -0.28997700670E+01 -0.50526857970E+01  0.94814918794E+01  0.51100000000E-03 0. -1.
        -11    1    3    3    0    0  0.22034415985E+02  0.25161659868E+02  0.21269286483E+02  0.39635932723E+02  0.51100000000E-03 0.  1.
         12    1    3    3    0    0 -0.30562165696E+02 -0.22185369267E+02 -0.15677096578E+02  0.40890193673E+02  0.00000000000E+00 0. -1.
</event>
<event>
 7    1  0.2090370E-015  0.9000773E+02  0.7816164E-02  0.1186339E+00
        -11   -1    0    0    0    0  0.00000000000E+00  0.00000000000E+00  0.45593999997E+02  0.45594000000E+02  0.51100000000E-03 0. -1.
         11   -1    0    0    0    0 -0.00000000000E+00 -0.00000000000E+00 -0.45593999997E+02  0.45594000000E+02  0.51100000000E-03 0.  1.
    9900012    2    1    2    0    0  0.59777216295E+00  0.25129968250E+00 -0.98617621074E+00  0.90007734518E+02  0.89999995814E+02 0.  0.
         12    1    1    2    0    0 -0.59777216295E+00 -0.25129968250E+00  0.98617621074E+00  0.11802654819E+01  0.00000000000E+00 0. -1.
         11    1    3    3    0    0  0.24173079740E+02 -0.19446406601E+02  0.10505877103E+02  0.32754754888E+02  0.51100000000E-03 0. -1.
        -11    1    3    3    0    0  0.27755997485E+01 -0.13437932956E+02 -0.36229103515E+01  0.14191810166E+02  0.51100000000E-03 0.  1.
        -12    1    3    3    0    0 -0.26350907325E+02  0.33135639240E+02 -0.78691429618E+01  0.43061169465E+02  0.00000000000E+00 0.  1.
</event>
<event>
 7    1  0.2090370E-015  0.9000767E+02  0.7816164E-02  0.1186339E+00
        -11   -1    0    0    0    0  0.00000000000E+00  0.00000000000E+00  0.45593999997E+02  0.45594000000E+02  0.51100000000E-03 0.  1.
         11   -1    0    0    0    0 -0.00000000000E+00 -0.00000000000E+00 -0.45593999997E+02  0.45594000000E+02  0.51100000000E-03 0. -1.
    9900012    2    1    2    0    0 -0.47978496451E+00  0.73871602569E+00  0.78567349022E+00  0.90007670465E+02  0.89999930915E+02 0.  0.
         12    1    1    2    0    0  0.47978496451E+00 -0.73871602569E+00 -0.78567349022E+00  0.11803295353E+01  0.00000000000E+00 0. -1.
         11    1    3    3    0    0 -0.24952475040E+01 -0.45108734534E+01 -0.61952981817E+01  0.80595259935E+01  0.51100000000E-03 0. -1.
        -11    1    3    3    0    0  0.43619220615E+01  0.36766530450E+02  0.25835333476E+02  0.45147187969E+02  0.51100000000E-03 0.  1.
         12    1    3    3    0    0 -0.23464595219E+01 -0.31516940971E+02 -0.18854361804E+02  0.36800956502E+02  0.00000000000E+00 0. -1.
</event>
<event>
 7    1  0.2090370E-015  0.9000775E+02  0.7816164E-02  0.1186339E+00
        -11   -1    0    0    0    0  0.00000000000E+00  0.00000000000E+00  0.45593999997E+02  0.45594000000E+02  0.51100000000E-03 0. -1.
         11   -1    0    0    0    0 -0.00000000000E+00 -0.00000000000E+00 -0.45593999997E+02  0.45594000000E+02  0.51100000000E-03 0.  1.
    9900012    2    1    2    0    0 -0.97434918334E+00 -0.66171440501E+00 -0.75920204772E-01  0.90007751652E+02  0.90000013174E+02 0.  0.
         12    1    1    2    0    0  0.97434918334E+00  0.66171440501E+00  0.75920204772E-01  0.11802483477E+01  0.00000000000E+00 0. -1.
         11    1    3    3    0    0  0.67991567852E+01 -0.18652528395E+02 -0.26623832935E+01  0.20030817097E+02  0.51100000000E-03 0. -1.
        -11    1    3    3    0    0  0.20152539017E+01 -0.25294489389E+02 -0.14456821090E+01  0.25415791130E+02  0.51100000000E-03 0.  1.
        -12    1    3    3    0    0 -0.97887598703E+01  0.43285303379E+02  0.40321451978E+01  0.44561143425E+02  0.00000000000E+00 0.  1.
</event>
<event>
 7    1  0.2090370E-015  0.9000772E+02  0.7816164E-02  0.1186339E+00
        -11   -1    0    0    0    0  0.00000000000E+00  0.00000000000E+00  0.45593999997E+02  0.45594000000E+02  0.51100000000E-03 0. -1.
         11   -1    0    0    0    0 -0.00000000000E+00 -0.00000000000E+00 -0.45593999997E+02  0.45594000000E+02  0.51100000000E-03 0.  1.
    9900012    2    1    2    0    0  0.75092508335E+00  0.91001084311E+00  0.32305861086E-01  0.90007723810E+02  0.89999984965E+02 0.  0.
         12    1    1    2    0    0 -0.75092508335E+00 -0.91001084311E+00 -0.32305861086E-01  0.11802761897E+01  0.00000000000E+00 0. -1.
         11    1    3    3    0    0  0.15044220337E+01  0.52181666380E+01 -0.77893271890E+01  0.94955867136E+01  0.51100000000E-03 0. -1.
        -11    1    3    3    0    0  0.60051790725E+01  0.36144790571E+02 -0.62137484342E+01  0.37163405804E+02  0.51100000000E-03 0.  1.
         12    1    3    3    0    0 -0.67586760229E+01 -0.40452946366E+02  0.14035381484E+02  0.43348731292E+02  0.00000000000E+00 0. -1.
</event>
<event>
 7    1  0.2090370E-015  0.9000778E+02  0.7816164E-02  0.1186339E+00
        -11   -1    0    0    0    0  0.00000000000E+00  0.00000000000E+00  0.45593999997E+02  0.45594000000E+02  0.51100000000E-03 0.  1.
         11   -1    0    0    0    0 -0.00000000000E+00 -0.00000000000E+00 -0.45593999997E+02  0.45594000000E+02  0.51100000000E-03 0. -1.
    9900012    2    1    2    0    0 -0.87099175926E+00  0.75259724218E+00  0.26054667153E+00  0.90007782299E+02  0.90000044225E+02 0.  0.
         12    1    1    2    0    0  0.87099175926E+00 -0.75259724218E+00 -0.26054667153E+00  0.11802177010E+01  0.00000000000E+00 0. -1.
         11    1    3    3    0    0 -0.59175014080E+01  0.66204769686E+00 -0.70416064917E+01  0.92216783891E+01  0.51100000000E-03 0. -1.
        -11    1    3    3    0    0 -0.19671193567E+02 -0.27791759818E+01  0.37027359685E+02  0.42020293205E+02  0.51100000000E-03 0.  1.
         12    1    3    3    0    0  0.24717703216E+02  0.28697255271E+01 -0.29725206522E+02  0.38765810705E+02  0.00000000000E+00 0. -1.
</event>
<event>
 7    1  0.2090370E-015  0.9000773E+02  0.7816164E-02  0.1186339E+00
        -11   -1    0    0    0    0  0.00000000000E+00  0.00000000000E+00  0.45593999997E+02  0.45594000000E+02  0.51100000000E-03 0. -1.
         11   -1    0    0    0    0 -0.00000000000E+00 -0.00000000000E+00 -0.45593999997E+02  0.45594000000E+02  0.51100000000E-03 0.  1.
    9900012    2    1    2    0    0  0.21992520108E+00  0.77503103744E+00 -0.86255254165E+00  0.90007730077E+02  0.89999991314E+02 0.  0.
         12    1    1    2    0    0 -0.21992520108E+00 -0.77503103744E+00  0.86255254165E+00  0.11802699226E+01  0.00000000000E+00 0. -1.
         11    1    3    3    0    0  0.32283754038E+01  0.50748958862E+01 -0.59444884347E+01  0.84565902712E+01  0.51100000000E-03 0. -1.
        -11    1    3    3    0    0  0.31204321454E+02 -0.26221765694E+02  0.26312895525E+01  0.40843779924E+02  0.51100000000E-03 0.  1.
         12    1    3    3    0    0 -0.34212771657E+02  0.21921900845E+02  0.24506463406E+01  0.40707359882E+02  0.00000000000E+00 0. -1.
</event>
<event>
 7    1  0.2090370E-015  0.9000775E+02  0.7816164E-02  0.1186339E+00
        -11   -1    0    0    0    0  0.00000000000E+00  0.00000000000E+00  0.45593999997E+02  0.45594000000E+02  0.51100000000E-03 0.  1.
         11   -1    0    0    0    0 -0.00000000000E+00 -0.00000000000E+00 -0.45593999997E+02  0.45594000000E+02  0.51100000000E-03 0. -1.
    9900012    2    1    2    0    0 -0.10375409065E+01 -0.35497608673E+00  0.43645415720E+00  0.90007749439E+02  0.90000010932E+02 0.  0.
         12    1    1    2    0    0  0.10375409065E+01  0.35497608673E+00 -0.43645415720E+00  0.11802505607E+01  0.00000000000E+00 0. -1.
         11    1    3    3    0    0 -0.12564549302E+02  0.23885270440E+01 -0.34705753109E+02  0.36987325663E+02  0.51100000000E-03 0. -1.
        -11    1    3    3    0    0 -0.12998761395E+00  0.54266936561E+01 -0.68158786454E+01  0.87133290301E+01  0.51100000000E-03 0.  1.
        -12    1    3    3    0    0  0.11656996010E+02 -0.81701967868E+01  0.41958085911E+02  0.44307094746E+02  0.00000000000E+00 0.  1.
</event>
<event>
 7    1  0.2090370E-015  0.9000764E+02  0.7816164E-02  0.1186339E+00
        -11   -1    0    0    0    0  0.00000000000E+00  0.00000000000E+00  0.45593999997E+02  0.45594000000E+02  0.51100000000E-03 0. -1.
         11   -1    0    0    0    0 -0.00000000000E+00 -0.00000000000E+00 -0.45593999997E+02  0.45594000000E+02  0.51100000000E-03 0.  1.
    9900012    2    1    2    0    0  0.62488588678E+00  0.42423269896E+00  0.90708027789E+00  0.90007639722E+02  0.89999899767E+02 0.  0.
         12    1    1    2    0    0 -0.62488588678E+00 -0.42423269896E+00 -0.90708027789E+00  0.11803602776E+01  0.00000000000E+00 0. -1.
         11    1    3    3    0    0 -0.59033685336E+01 -0.57740385093E+01 -0.11453471780E+02  0.14119890114E+02  0.51100000000E-03 0. -1.
        -11    1    3    3    0    0  0.38130192498E+02 -0.96699512041E+01  0.39191439165E+01  0.39532002549E+02  0.51100000000E-03 0.  1.
         12    1    3    3    0    0 -0.31601938078E+02  0.15868222412E+02  0.84414081415E+01  0.36355747059E+02  0.00000000000E+00 0. -1.
</event>
<event>
 7    1  0.2090370E-015  0.9000775E+02  0.7816164E-02  0.1186339E+00
        -11   -1    0    0    0    0  0.00000000000E+00  0.00000000000E+00  0.45593999997E+02  0.45594000000E+02  0.51100000000E-03 0.  1.
         11   -1    0    0    0    0 -0.00000000000E+00 -0.00000000000E+00 -0.45593999997E+02  0.45594000000E+02  0.51100000000E-03 0. -1.
    9900012    2    1    2    0    0 -0.49881561834E+00  0.88282499768E+00  0.60397392501E+00  0.90007753628E+02  0.90000015175E+02 0.  0.
         12    1    1    2    0    0  0.49881561834E+00 -0.88282499768E+00 -0.60397392501E+00  0.11802463725E+01  0.00000000000E+00 0. -1.
         11    1    3    3    0    0 -0.40758922342E+01 -0.88051321419E+01  0.35151418018E+00  0.97091097440E+01  0.51100000000E-03 0. -1.
        -11    1    3    3    0    0 -0.19589529682E+02  0.20415937588E+02  0.29905784912E+02  0.41169359386E+02  0.51100000000E-03 0.  1.
         12    1    3    3    0    0  0.23166606297E+02 -0.10727980448E+02 -0.29653325167E+02  0.39129284498E+02  0.00000000000E+00 0. -1.
</event>
<event>
 7    1  0.2090370E-015  0.9000778E+02  0.7816164E-02  0.1186339E+00
        -11   -1    0    0    0    0  0.00000000000E+00  0.00000000000E+00  0.45593999997E+02  0.45594000000E+02  0.51100000000E-03 0.  1.
         11   -1    0    0    0    0 -0.00000000000E+00 -0.00000000000E+00 -0.45593999997E+02  0.45594000000E+02  0.51100000000E-03 0. -1.
    9900012    2    1    2    0    0 -0.32922298239E+00 -0.13379580034E+00  0.11254516624E+01  0.90007775219E+02  0.90000037052E+02 0.  0.
         12    1    1    2    0    0  0.32922298239E+00  0.13379580034E+00 -0.11254516624E+01  0.11802247806E+01  0.00000000000E+00 0. -1.
         11    1    3    3    0    0 -0.17253811244E+01 -0.62534480219E+01 -0.36312755716E+02  0.36887650781E+02  0.51100000000E-03 0. -1.
        -11    1    3    3    0    0  0.48247396374E+01 -0.33034235808E+01 -0.60954103019E+01  0.84465819674E+01  0.51100000000E-03 0.  1.
        -12    1    3    3    0    0 -0.34285814954E+01  0.94230758023E+01  0.43533617680E+02  0.44673542471E+02  0.00000000000E+00 0.  1.
</event>
<event>
 7    1  0.2090370E-015  0.9000772E+02  0.7816164E-02  0.1186339E+00
        -11   -1    0    0    0    0  0.00000000000E+00  0.00000000000E+00  0.45593999997E+02  0.45594000000E+02  0.51100000000E-03 0. -1.
         11   -1    0    0    0    0 -0.00000000000E+00 -0.00000000000E+00 -0.45593999997E+02  0.45594000000E+02  0.51100000000E-03 0.  1.
    9900012    2    1    2    0    0  0.29303035258E+00  0.10781029170E+00 -0.11382272471E+01  0.90007724137E+02  0.89999985296E+02 0.  0.
         12    1    1    2    0    0 -0.29303035258E+00 -0.10781029170E+00  0.11382272471E+01  0.11802758629E+01  0.00000000000E+00 0. -1.
         11    1    3    3    0    0 -0.67221917798E+01 -0.21404214729E+01 -0.78989809853E+01  0.10590711368E+02  0.51100000000E-03 0. -1.
        -11    1    3    3    0    0  0.11275732836E+02 -0.32369851523E+02 -0.15938451696E+02  0.37801900499E+02  0.51100000000E-03 0.  1.
         12    1    3    3    0    0 -0.42605107032E+01  0.34618083287E+02  0.22699205434E+02  0.41615112271E+02  0.00000000000E+00 0. -1.
</event>
<event>
 7    1  0.2090370E-015  0.9000774E+02  0.7816164E-02  0.1186339E+00
        -11   -1    0    0    0    0  0.00000000000E+00  0.00000000000E+00  0.45593999997E+02  0.45594000000E+02  0.51100000000E-03 0.  1.
         11   -1    0    0    0    0 -0.00000000000E+00 -0.00000000000E+00 -0.45593999997E+02  0.45594000000E+02  0.51100000000E-03 0. -1.
    9900012    2    1    2    0    0  0.10222750802E+01 -0.56887985670E+00  0.15602418236E+00  0.90007739784E+02  0.90000001150E+02 0.  0.
         12    1    1    2    0    0 -0.10222750802E+01  0.56887985670E+00 -0.15602418236E+00  0.11802602156E+01  0.00000000000E+00 0. -1.
         11    1    3    3    0    0 -0.54029863152E+01  0.48557751499E+01  0.62236542798E+01  0.95658081877E+01  0.51100000000E-03 0. -1.
        -11    1    3    3    0    0  0.27411177907E+02 -0.71431421648E+01  0.28361425913E+02  0.40084506162E+02  0.51100000000E-03 0.  1.
         12    1    3    3    0    0 -0.20985916511E+02  0.17184871583E+01 -0.34429056010E+02  0.40357425434E+02  0.00000000000E+00 0. -1.
</event>
<event>
 7    1  0.2090370E-015  0.9000766E+02  0.7816164E-02  0.1186339E+00
        -11   -1    0    0    0    0  0.00000000000E+00  0.00000000000E+00  0.45593999997E+02  0.45594000000E+02  0.51100000000E-03 0. -1.
         11   -1    0    0    0    0 -0.00000000000E+00 -0.00000000000E+00 -0.45593999997E+02  0.45594000000E+02  0.51100000000E-03 0.  1.
    9900012    2    1    2    0    0  0.98769107470E+00 -0.61706391387E+00  0.19206637362E+00  0.90007664868E+02  0.89999925244E+02 0.  0.
         12    1    1    2    0    0 -0.98769107470E+00  0.61706391387E+00 -0.19206637362E+00  0.11803351324E+01  0.00000000000E+00 0. -1.
         11    1    3    3    0    0 -0.20267339459E+02 -0.22386942692E+02  0.14038080249E+02  0.33301770961E+02  0.51100000000E-03 0. -1.
        -11    1    3    3    0    0  0.81776007510E+01 -0.13999248327E+02 -0.90006826705E-01  0.16212964234E+02  0.51100000000E-03 0.  1.
        -12    1    3    3    0    0  0.13077429783E+02  0.35769127104E+02 -0.13756007049E+02  0.40492929672E+02  0.00000000000E+00 0.  1.
</event>
<event>
 7    1  0.2090370E-015  0.9000772E+02  0.7816164E-02  0.1186339E+00
        -11   -1    0    0    0    0  0.00000000000E+00  0.00000000000E+00  0.45593999997E+02  0.45594000000E+02  0.51100000000E-03 0.  1.
         11   -1    0    0    0    0 -0.00000000000E+00 -0.00000000000E+00 -0.45593999997E+02  0.45594000000E+02  0.51100000000E-03 0. -1.
    9900012    2    1    2    0    0  0.10139984994E+01 -0.58665974070E+00 -0.14388626566E+00  0.90007717887E+02  0.89999978963E+02 0.  0.
         12    1    1    2    0    0 -0.10139984994E+01  0.58665974070E+00  0.14388626566E+00  0.11802821127E+01  0.00000000000E+00 0. -1.
         11    1    3    3    0    0 -0.81687819149E+00 -0.32807046966E+02 -0.25288684070E+02  0.41430510048E+02  0.51100000000E-03 0. -1.
        -11    1    3    3    0    0 -0.87764145427E+01  0.13159385150E+01  0.58989595783E+01  0.10656212778E+02  0.51100000000E-03 0.  1.
        -12    1    3    3    0    0  0.10607291234E+02  0.30904448710E+02  0.19245838226E+02  0.37920995061E+02  0.00000000000E+00 0.  1.
</event>
<event>
 7    1  0.2090370E-015  0.9000774E+02  0.7816164E-02  0.1186339E+00
        -11   -1    0    0    0    0  0.00000000000E+00  0.00000000000E+00  0.45593999997E+02  0.45594000000E+02  0.51100000000E-03 0. -1.
         11   -1    0    0    0    0 -0.00000000000E+00 -0.00000000000E+00 -0.45593999997E+02  0.45594000000E+02  0.51100000000E-03 0.  1.
    9900012    2    1    2    0    0  0.56355192800E+00 -0.10359463357E+01 -0.47198448684E-01  0.90007744401E+02  0.90000005827E+02 0.  0.
         12    1    1    2    0    0 -0.56355192800E+00  0.10359463357E+01  0.47198448684E-01  0.11802555993E+01  0.00000000000E+00 0. -1.
         11    1    3    3    0    0  0.69164213436E+01  0.55521939867E+01  0.49792090697E+01  0.10171345314E+02  0.51100000000E-03 0. -1.
        -11    1    3    3    0    0  0.76292164679E+01  0.33573079948E+01 -0.40011329417E+02  0.40870318605E+02  0.51100000000E-03 0.  1.
         12    1    3    3    0    0 -0.13982085883E+02 -0.99454483172E+01  0.34984921899E+02  0.38966080482E+02  0.00000000000E+00 0. -1.
</event>
<event>
 7    1  0.2090370E-015  0.9000782E+02  0.7816164E-02  0.1186339E+00
        -11   -1    0    0    0    0  0.00000000000E+00  0.00000000000E+00  0.45593999997E+02  0.45594000000E+02  0.51100000000E-03 0.  1.
         11   -1    0    0    0    0 -0.00000000000E+00 -0.00000000000E+00 -0.45593999997E+02  0.45594000000E+02  0.51100000000E-03 0. -1.
    9900012    2    1    2    0    0 -0.54369606414E+00  0.88157801450E+00  0.56572394518E+00  0.90007818324E+02  0.90000080726E+02 0.  0.
         12    1    1    2    0    0  0.54369606414E+00 -0.88157801450E+00 -0.56572394518E+00  0.11801816758E+01  0.00000000000E+00 0. -1.
         11    1    3    3    0    0  0.63696015480E+01  0.13527175194E+01  0.62383830375E+01  0.90177098951E+01  0.51100000000E-03 0. -1.
        -11    1    3    3    0    0  0.11613473001E+02  0.36898878854E+02  0.12784193922E+01  0.38704448998E+02  0.51100000000E-03 0.  1.
         12    1    3    3    0    0 -0.18526770613E+02 -0.37370018359E+02 -0.69510784846E+01  0.42285659432E+02  0.00000000000E+00 0. -1.
</event>
<event>
 7    1  0.2090370E-015  0.9000781E+02  0.7816164E-02  0.1186339E+00
        -11   -1    0    0    0    0  0.00000000000E+00  0.00000000000E+00  0.45593999997E+02  0.45594000000E+02  0.51100000000E-03 0.  1.
         11   -1    0    0    0    0 -0.00000000000E+00 -0.00000000000E+00 -0.45593999997E+02  0.45594000000E+02  0.51100000000E-03 0. -1.
    9900012    2    1    2    0    0  0.81876215823E+00 -0.33918400355E+00 -0.77937599700E+00  0.90007811793E+02  0.90000074108E+02 0.  0.
         12    1    1    2    0    0 -0.81876215823E+00  0.33918400355E+00  0.77937599700E+00  0.11801882073E+01  0.00000000000E+00 0. -1.
         11    1    3    3    0    0  0.10813563384E+01 -0.62290850903E-01 -0.16589149367E+01  0.19812144530E+01  0.51100000000E-03 0. -1.
        -11    1    3    3    0    0 -0.38555620955E+02  0.18861086783E+02 -0.95367897004E+01  0.43968475751E+02  0.51100000000E-03 0.  1.
         12    1    3    3    0    0  0.38293026774E+02 -0.19137979936E+02  0.10416328640E+02  0.44058121588E+02  0.00000000000E+00 0. -1.
</event>
<event>
 7    1  0.2090370E-015  0.9000773E+02  0.7816164E-02  0.1186339E+00
        -11   -1    0    0    0    0  0.00000000000E+00  0.00000000000E+00  0.45593999997E+02  0.45594000000E+02  0.51100000000E-03 0. -1.
         11   -1    0    0    0    0 -0.00000000000E+00 -0.00000000000E+00 -0.45593999997E+02  0.45594000000E+02  0.51100000000E-03 0.  1.
    9900012    2    1    2    0    0  0.33592686702E+00  0.10373916716E+01  0.45167012157E+00  0.90007731285E+02  0.89999992538E+02 0.  0.
         12    1    1    2    0    0 -0.33592686702E+00 -0.10373916716E+01 -0.45167012157E+00  0.11802687148E+01  0.00000000000E+00 0. -1.
         11    1    3    3    0    0  0.87754908834E+01  0.35641676111E+02  0.25648267621E+00  0.36707003418E+02  0.51100000000E-03 0. -1.
        -11    1    3    3    0    0  0.80452857518E+01  0.43189987012E+01  0.55608979463E+01  0.10691302953E+02  0.51100000000E-03 0.  1.
        -12    1    3    3    0    0 -0.16484849768E+02 -0.38923283141E+02 -0.53657105009E+01  0.42609424914E+02  0.00000000000E+00 0.  1.
</event>
<event>
 7    1  0.2090370E-015  0.9000782E+02  0.7816164E-02  0.1186339E+00
        -11   -1    0    0    0    0  0.00000000000E+00  0.00000000000E+00  0.45593999997E+02  0.45594000000E+02  0.51100000000E-03 0.  1.
         11   -1    0    0    0    0 -0.00000000000E+00 -0.00000000000E+00 -0.45593999997E+02  0.45594000000E+02  0.51100000000E-03 0. -1.
    9900012    2    1    2    0    0 -0.49849811233E+00  0.52468830513E+00  0.93221716654E+00  0.90007819068E+02  0.90000081480E+02 0.  0.
         12    1    1    2    0    0  0.49849811233E+00 -0.52468830513E+00 -0.93221716654E+00  0.11801809315E+01  0.00000000000E+00 0. -1.
         11    1    3    3    0    0 -0.11024255805E+02  0.31222594177E+02 -0.13101553890E+02  0.35609483537E+02  0.51100000000E-03 0. -1.
        -11    1    3    3    0    0  0.18701441212E+02  0.20353929420E+01  0.46234799396E+01  0.19371713782E+02  0.51100000000E-03 0.  1.
        -12    1    3    3    0    0 -0.81756835192E+01 -0.32733298814E+02  0.94102911175E+01  0.35026621749E+02  0.00000000000E+00 0.  1.
</event>
<event>
 7    1  0.2090370E-015  0.9000812E+02  0.7816164E-02  0.1186338E+00
        -11   -1    0    0    0    0  0.00000000000E+00  0.00000000000E+00  0.45593999997E+02  0.45594000000E+02  0.51100000000E-03 0. -1.
         11   -1    0    0    0    0 -0.00000000000E+00 -0.00000000000E+00 -0.45593999997E+02  0.45594000000E+02  0.51100000000E-03 0.  1.
    9900012    2    1    2    0    0  0.86920649306E+00 -0.36266360747E+00 -0.71068885123E+00  0.90008117183E+02  0.90000383528E+02 0.  0.
         12    1    1    2    0    0 -0.86920649306E+00  0.36266360747E+00  0.71068885123E+00  0.11798828175E+01  0.00000000000E+00 0. -1.
         11    1    3    3    0    0  0.36756680988E+02  0.10387296937E+02 -0.46828581703E+01  0.38482186734E+02  0.51100000000E-03 0. -1.
        -11    1    3    3    0    0  0.38653803518E+01  0.49056262735E+01 -0.48408371179E+01  0.79019009524E+01  0.51100000000E-03 0.  1.
        -12    1    3    3    0    0 -0.39752854847E+02 -0.15655586818E+02  0.88130064369E+01  0.43624029497E+02  0.00000000000E+00 0.  1.
</event>
<event>
 7    1  0.2090370E-015  0.9000770E+02  0.7816164E-02  0.1186339E+00
        -11   -1    0    0    0    0  0.00000000000E+00  0.00000000000E+00  0.45593999997E+02  0.45594000000E+02  0.51100000000E-03 0.  1.
         11   -1    0    0    0    0 -0.00000000000E+00 -0.00000000000E+00 -0.45593999997E+02  0.45594000000E+02  0.51100000000E-03 0. -1.
    9900012    2    1    2    0    0  0.54615728645E+00 -0.94287447046E+00  0.45364935311E+00  0.90007704366E+02  0.89999965263E+02 0.  0.
         12    1    1    2    0    0 -0.54615728645E+00  0.94287447046E+00 -0.45364935311E+00  0.11802956342E+01  0.00000000000E+00 0. -1.
         11    1    3    3    0    0 -0.13336199931E+02  0.20916861526E+02 -0.24053492681E+02  0.34553434491E+02  0.51100000000E-03 0. -1.
        -11    1    3    3    0    0  0.15537850416E+01  0.10275832397E+01 -0.11162269547E+02  0.11316644245E+02  0.51100000000E-03 0.  1.
        -12    1    3    3    0    0  0.12328572176E+02 -0.22887319236E+02  0.35669411581E+02  0.44137625630E+02  0.00000000000E+00 0.  1.
</event>
<event>
 7    1  0.2090370E-015  0.9000776E+02  0.7816164E-02  0.1186339E+00
        -11   -1    0    0    0    0  0.00000000000E+00  0.00000000000E+00  0.45593999997E+02  0.45594000000E+02  0.51100000000E-03 0.  1.
         11   -1    0    0    0    0 -0.00000000000E+00 -0.00000000000E+00 -0.45593999997E+02  0.45594000000E+02  0.51100000000E-03 0. -1.
    9900012    2    1    2    0    0  0.43856509518E-01 -0.25504991344E-02  0.11794265586E+01  0.90007755574E+02  0.90000017147E+02 0.  0.
         12    1    1    2    0    0 -0.43856509518E-01  0.25504991344E-02 -0.11794265586E+01  0.11802444263E+01  0.00000000000E+00 0. -1.
         11    1    3    3    0    0  0.18000464508E+02  0.28809830784E+02  0.13759625727E+02  0.36651744470E+02  0.51100000000E-03 0. -1.
        -11    1    3    3    0    0  0.55343430621E+01  0.70083488096E+01 -0.33414631816E+01  0.95347408262E+01  0.51100000000E-03 0.  1.
        -12    1    3    3    0    0 -0.23490951061E+02 -0.35820730093E+02 -0.92387359865E+01  0.43821270277E+02  0.00000000000E+00 0.  1.
</event>
<event>
 7    1  0.2090370E-015  0.9000793E+02  0.7816164E-02  0.1186339E+00
        -11   -1    0    0    0    0  0.00000000000E+00  0.00000000000E+00  0.45593999997E+02  0.45594000000E+02  0.51100000000E-03 0.  1.
         11   -1    0    0    0    0 -0.00000000000E+00 -0.00000000000E+00 -0.45593999997E+02  0.45594000000E+02  0.51100000000E-03 0. -1.
    9900012    2    1    2    0    0  0.24000803099E-01  0.10715362016E+01  0.49377024570E+00  0.90007925881E+02  0.90000189703E+02 0.  0.
         12    1    1    2    0    0 -0.24000803099E-01 -0.10715362016E+01 -0.49377024570E+00  0.11800741187E+01  0.00000000000E+00 0. -1.
         11    1    3    3    0    0  0.13963543875E+02 -0.20072838659E+02 -0.24783165828E+02  0.34815294313E+02  0.51100000000E-03 0. -1.
        -11    1    3    3    0    0  0.36051254513E+01 -0.30398284299E+01 -0.87316770825E+01  0.99236924246E+01  0.51100000000E-03 0.  1.
        -12    1    3    3    0    0 -0.17544668523E+02  0.24184203291E+02  0.34008613156E+02  0.45268939144E+02  0.00000000000E+00 0.  1.
</event>
<event>
 7    1  0.2090370E-015  0.9000774E+02  0.7816164E-02  0.1186339E+00
        -11   -1    0    0    0    0  0.00000000000E+00  0.00000000000E+00  0.45593999997E+02  0.45594000000E+02  0.51100000000E-03 0.  1.
         11   -1    0    0    0    0 -0.00000000000E+00 -0.00000000000E+00 -0.45593999997E+02  0.45594000000E+02  0.51100000000E-03 0. -1.
    9900012    2    1    2    0    0  0.11417294553E+01 -0.87876547511E-01  0.28592054715E+00  0.90007737743E+02  0.89999999081E+02 0.  0.
         12    1    1    2    0    0 -0.11417294553E+01  0.87876547511E-01 -0.28592054715E+00  0.11802622573E+01  0.00000000000E+00 0. -1.
         11    1    3    3    0    0  0.85643501367E+01 -0.15241001304E+01  0.43385510126E+01  0.97208024165E+01  0.51100000000E-03 0. -1.
        -11    1    3    3    0    0  0.30734502102E+02  0.20931767394E+02  0.56632267525E+00  0.37189638709E+02  0.51100000000E-03 0.  1.
         12    1    3    3    0    0 -0.38157122783E+02 -0.19495543811E+02 -0.46189531407E+01  0.43097296617E+02  0.00000000000E+00 0. -1.
</event>
<event>
 7    1  0.2090370E-015  0.9000769E+02  0.7816164E-02  0.1186339E+00
        -11   -1    0    0    0    0  0.00000000000E+00  0.00000000000E+00  0.45593999997E+02  0.45594000000E+02  0.51100000000E-03 0. -1.
         11   -1    0    0    0    0 -0.00000000000E+00 -0.00000000000E+00 -0.45593999997E+02  0.45594000000E+02  0.51100000000E-03 0.  1.
    9900012    2    1    2    0    0  0.17840023144E+00 -0.60764733390E+00 -0.99602827757E+00  0.90007688916E+02  0.89999949610E+02 0.  0.
         12    1    1    2    0    0 -0.17840023144E+00  0.60764733390E+00  0.99602827757E+00  0.11803110839E+01  0.00000000000E+00 0. -1.
         11    1    3    3    0    0  0.39432095378E+01 -0.69700597303E+01 -0.67389730568E+01  0.10466345696E+02  0.51100000000E-03 0. -1.
        -11    1    3    3    0    0  0.11962057865E+01 -0.10085958378E+02 -0.34404506938E+02  0.35872378826E+02  0.51100000000E-03 0.  1.
         12    1    3    3    0    0 -0.49610150929E+01  0.16448370775E+02  0.40147451717E+02  0.43668964395E+02  0.00000000000E+00 0. -1.
</event>
<event>
 7    1  0.2090370E-015  0.9000708E+02  0.7816164E-02  0.1186340E+00
        -11   -1    0    0    0    0  0.00000000000E+00  0.00000000000E+00  0.45593999997E+02  0.45594000000E+02  0.51100000000E-03 0. -1.
         11   -1    0    0    0    0 -0.00000000000E+00 -0.00000000000E+00 -0.45593999997E+02  0.45594000000E+02  0.51100000000E-03 0.  1.
    9900012    2    1    2    0    0  0.40967542591E+00 -0.54084396353E+00 -0.96655839503E+00  0.90007076091E+02  0.89999328693E+02 0.  0.
         12    1    1    2    0    0 -0.40967542591E+00  0.54084396353E+00  0.96655839503E+00  0.11809239088E+01  0.00000000000E+00 0. -1.
         11    1    3    3    0    0  0.76343716344E+01 -0.54913600979E+00 -0.92940432075E+01  0.12040117110E+02  0.51100000000E-03 0. -1.
        -11    1    3    3    0    0  0.34670746656E+02  0.18484880652E+01 -0.20021130111E+01  0.34777665801E+02  0.51100000000E-03 0.  1.
         12    1    3    3    0    0 -0.41895442865E+02 -0.18401960189E+01  0.10329597824E+02  0.43189293180E+02  0.00000000000E+00 0. -1.
</event>
<event>
 7    1  0.2471641E-015  0.9000759E+02  0.7816164E-02  0.1186339E+00
        -11   -1    0    0    0    0  0.00000000000E+00  0.00000000000E+00  0.45593999997E+02  0.45594000000E+02  0.51100000000E-03 0.  1.
         11   -1    0    0    0    0 -0.00000000000E+00 -0.00000000000E+00 -0.45593999997E+02  0.45594000000E+02  0.51100000000E-03 0. -1.
    9900012    2    1    2    0    0  0.98055620527E+00  0.40833333056E+00 -0.51491734530E+00  0.90007590557E+02  0.89999849952E+02 0.  0.
         12    1    1    2    0    0 -0.98055620527E+00 -0.40833333056E+00  0.51491734530E+00  0.11804094430E+01  0.00000000000E+00 0. -1.
         11    1    3    3    0    0  0.38343664214E+02 -0.12694073638E+02  0.25830552788E+01  0.40472808968E+02  0.51100000000E-03 0. -1.
        -11    1    3    3    0    0 -0.36939754649E+01 -0.85974078556E+01 -0.11961979830E+01  0.94335447445E+01  0.51100000000E-03 0.  1.
        -12    1    3    3    0    0 -0.33669132544E+02  0.21699814825E+02 -0.19017746410E+01  0.40101236845E+02  0.00000000000E+00 0.  1.
</event>
<event>
 7    1  0.2090370E-015  0.9000778E+02  0.7816164E-02  0.1186339E+00
        -11   -1    0    0    0    0  0.00000000000E+00  0.00000000000E+00  0.45593999997E+02  0.45594000000E+02  0.51100000000E-03 0.  1.
         11   -1    0    0    0    0 -0.00000000000E+00 -0.00000000000E+00 -0.45593999997E+02  0.45594000000E+02  0.51100000000E-03 0. -1.
    9900012    2    1    2    0    0  0.79791564574E+00 -0.28491718899E+00  0.82162948833E+00  0.90007778750E+02  0.90000040630E+02 0.  0.
         12    1    1    2    0    0 -0.79791564574E+00  0.28491718899E+00 -0.82162948833E+00  0.11802212498E+01  0.00000000000E+00 0. -1.
         11    1    3    3    0    0 -0.31308734050E+02  0.11861066945E+02  0.16653359792E+02  0.37393263157E+02  0.51100000000E-03 0. -1.
        -11    1    3    3    0    0 -0.44192181862E+01  0.72586369650E+01 -0.49978723196E+01  0.98588045904E+01  0.51100000000E-03 0.  1.
        -12    1    3    3    0    0  0.36525867882E+02 -0.19404621099E+02 -0.10833857984E+02  0.42755711003E+02  0.00000000000E+00 0.  1.
</event>
<event>
 7    1  0.2794400E-015  0.9000788E+02  0.7816164E-02  0.1186339E+00
        -11   -1    0    0    0    0  0.00000000000E+00  0.00000000000E+00  0.45593999997E+02  0.45594000000E+02  0.51100000000E-03 0.  1.
         11   -1    0    0    0    0 -0.00000000000E+00 -0.00000000000E+00 -0.45593999997E+02  0.45594000000E+02  0.51100000000E-03 0. -1.
    9900012    2    1    2    0    0  0.10873311441E+01  0.44370788799E+00  0.11627234032E+00  0.90007879259E+02  0.90000142465E+02 0.  0.
         12    1    1    2    0    0 -0.10873311441E+01 -0.44370788799E+00 -0.11627234032E+00  0.11801207412E+01  0.00000000000E+00 0. -1.
         11    1    3    3    0    0 -0.29974847758E+02  0.14227179794E+00  0.22976874582E+02  0.37768353223E+02  0.51100000000E-03 0. -1.
        -11    1    3    3    0    0  0.33636855601E+01  0.64402963172E+00  0.92312087327E+01  0.98460331932E+01  0.51100000000E-03 0.  1.
        -12    1    3    3    0    0  0.27698493342E+02 -0.34259354167E+00 -0.32091810975E+02  0.42393492842E+02  0.00000000000E+00 0.  1.
</event>
<event>
 7    1  0.2090370E-015  0.9000776E+02  0.7816164E-02  0.1186339E+00
        -11   -1    0    0    0    0  0.00000000000E+00  0.00000000000E+00  0.45593999997E+02  0.45594000000E+02  0.51100000000E-03 0. -1.
         11   -1    0    0    0    0 -0.00000000000E+00 -0.00000000000E+00 -0.45593999997E+02  0.45594000000E+02  0.51100000000E-03 0.  1.
    9900012    2    1    2    0    0 -0.74497104918E+00  0.89477564706E+00  0.19331718049E+00  0.90007755595E+02  0.90000017169E+02 0.  0.
         12    1    1    2    0    0  0.74497104918E+00 -0.89477564706E+00 -0.19331718049E+00  0.11802444048E+01  0.00000000000E+00 0. -1.
         11    1    3    3    0    0  0.14822956445E+02  0.37012911417E+00 -0.18337547580E+01  0.14940538481E+02  0.51100000000E-03 0. -1.
        -11    1    3    3    0    0  0.26713984587E+02 -0.50749627285E+01  0.14249775403E+02  0.30699321141E+02  0.51100000000E-03 0.  1.
         12    1    3    3    0    0 -0.42281912081E+02  0.55996092614E+01 -0.12222703465E+02  0.44367895973E+02  0.00000000000E+00 0. -1.
</event>
<event>
 7    1  0.2090370E-015  0.9000716E+02  0.7816164E-02  0.1186340E+00
        -11   -1    0    0    0    0  0.00000000000E+00  0.00000000000E+00  0.45593999997E+02  0.45594000000E+02  0.51100000000E-03 0.  1.
         11   -1    0    0    0    0 -0.00000000000E+00 -0.00000000000E+00 -0.45593999997E+02  0.45594000000E+02  0.51100000000E-03 0. -1.
    9900012    2    1    2    0    0  0.91436589895E-01  0.88621984517E+00  0.77501331332E+00  0.90007156276E+02  0.89999409937E+02 0.  0.
         12    1    1    2    0    0 -0.91436589895E-01 -0.88621984517E+00 -0.77501331332E+00  0.11808437237E+01  0.00000000000E+00 0. -1.
         11    1    3    3    0    0  0.76843875444E+01 -0.48103906664E+01  0.26432411829E+01  0.94433253946E+01  0.51100000000E-03 0. -1.
        -11    1    3    3    0    0 -0.12774595951E+02 -0.38033305318E+01  0.37467032515E+02  0.39767249723E+02  0.51100000000E-03 0.  1.
         12    1    3    3    0    0  0.51816449964E+01  0.94999410433E+01 -0.39335260384E+02  0.40796581158E+02  0.00000000000E+00 0. -1.
</event>
<event>
 7    1  0.2090370E-015  0.9000776E+02  0.7816164E-02  0.1186339E+00
        -11   -1    0    0    0    0  0.00000000000E+00  0.00000000000E+00  0.45593999997E+02  0.45594000000E+02  0.51100000000E-03 0. -1.
         11   -1    0    0    0    0 -0.00000000000E+00 -0.00000000000E+00 -0.45593999997E+02  0.45594000000E+02  0.51100000000E-03 0.  1.
    9900012    2    1    2    0    0 -0.55947316653E+00  0.48768325895E+00  0.91766735398E+00  0.90007763347E+02  0.90000025023E+02 0.  0.
         12    1    1    2    0    0  0.55947316653E+00 -0.48768325895E+00 -0.91766735398E+00  0.11802366533E+01  0.00000000000E+00 0. -1.
         11    1    3    3    0    0 -0.65943971854E+01  0.22658899748E+01 -0.59619302312E+01  0.91741454076E+01  0.51100000000E-03 0. -1.
        -11    1    3    3    0    0 -0.26853411750E+02 -0.15959239530E+02 -0.19076104407E+02  0.36601923565E+02  0.51100000000E-03 0.  1.
         12    1    3    3    0    0  0.32888335769E+02  0.14181032814E+02  0.25955701992E+02  0.44231694375E+02  0.00000000000E+00 0. -1.
</event>
<event>
 7    1  0.2090370E-015  0.9000770E+02  0.7816164E-02  0.1186339E+00
        -11   -1    0    0    0    0  0.00000000000E+00  0.00000000000E+00  0.45593999997E+02  0.45594000000E+02  0.51100000000E-03 0.  1.
         11   -1    0    0    0    0 -0.00000000000E+00 -0.00000000000E+00 -0.45593999997E+02  0.45594000000E+02  0.51100000000E-03 0. -1.
    9900012    2    1    2    0    0  0.53655602947E+00  0.29977596964E+00 -0.10076429774E+01  0.90007702421E+02  0.89999963293E+02 0.  0.
         12    1    1    2    0    0 -0.53655602947E+00 -0.29977596964E+00  0.10076429774E+01  0.11802975789E+01  0.00000000000E+00 0. -1.
         11    1    3    3    0    0  0.34493000623E+01 -0.18655845431E+00 -0.88197521211E+01  0.94720907257E+01  0.51100000000E-03 0. -1.
        -11    1    3    3    0    0  0.19570720524E+01 -0.28391045031E+02  0.31804013893E+02  0.42677592117E+02  0.51100000000E-03 0.  1.
         12    1    3    3    0    0 -0.48698160852E+01  0.28877379455E+02 -0.23991904749E+02  0.37858019578E+02  0.00000000000E+00 0. -1.
</event>
<event>
 7    1  0.2090370E-015  0.9000778E+02  0.7816164E-02  0.1186339E+00
        -11   -1    0    0    0    0  0.00000000000E+00  0.00000000000E+00  0.45593999997E+02  0.45594000000E+02  0.51100000000E-03 0.  1.
         11   -1    0    0    0    0 -0.00000000000E+00 -0.00000000000E+00 -0.45593999997E+02  0.45594000000E+02  0.51100000000E-03 0. -1.
    9900012    2    1    2    0    0 -0.89044440224E+00  0.33850500445E+00  0.69674529394E+00  0.90007775074E+02  0.90000036905E+02 0.  0.
         12    1    1    2    0    0  0.89044440224E+00 -0.33850500445E+00 -0.69674529394E+00  0.11802249261E+01  0.00000000000E+00 0. -1.
         11    1    3    3    0    0 -0.25062920581E+02 -0.29988207857E+02 -0.28135269527E+01  0.39183651345E+02  0.51100000000E-03 0. -1.
        -11    1    3    3    0    0 -0.75442272972E+01  0.34882170173E+01 -0.28610002727E+01  0.87902415378E+01  0.51100000000E-03 0.  1.
        -12    1    3    3    0    0  0.31716703476E+02  0.26838495844E+02  0.63712725194E+01  0.42033882191E+02  0.00000000000E+00 0.  1.
</event>
<event>
 7    1  0.2090370E-015  0.9000777E+02  0.7816164E-02  0.1186339E+00
        -11   -1    0    0    0    0  0.00000000000E+00  0.00000000000E+00  0.45593999997E+02  0.45594000000E+02  0.51100000000E-03 0.  1.
         11   -1    0    0    0    0 -0.00000000000E+00 -0.00000000000E+00 -0.45593999997E+02  0.45594000000E+02  0.51100000000E-03 0. -1.
    9900012    2    1    2    0    0 -0.21616995526E+00  0.75663139726E+00  0.87961731743E+00  0.90007768181E+02  0.90000029921E+02 0.  0.
         12    1    1    2    0    0  0.21616995526E+00 -0.75663139726E+00 -0.87961731743E+00  0.11802318188E+01  0.00000000000E+00 0. -1.
         11    1    3    3    0    0 -0.71678874407E+00  0.10617536591E+02  0.49321241519E+00  0.10653127621E+02  0.51100000000E-03 0. -1.
        -11    1    3    3    0    0  0.20310956619E+02  0.29135217086E+02  0.21341779323E+01  0.35580198835E+02  0.51100000000E-03 0.  1.
         12    1    3    3    0    0 -0.19810337830E+02 -0.38996122280E+02 -0.17477730300E+01  0.43774441725E+02  0.00000000000E+00 0. -1.
</event>
<event>
 7    1  0.2090370E-015  0.9000773E+02  0.7816164E-02  0.1186339E+00
        -11   -1    0    0    0    0  0.00000000000E+00  0.00000000000E+00  0.45593999997E+02  0.45594000000E+02  0.51100000000E-03 0. -1.
         11   -1    0    0    0    0 -0.00000000000E+00 -0.00000000000E+00 -0.45593999997E+02  0.45594000000E+02  0.51100000000E-03 0.  1.
    9900012    2    1    2    0    0 -0.27974177873E-01  0.10301405075E+01 -0.57538638567E+00  0.90007728204E+02  0.89999989416E+02 0.  0.
         12    1    1    2    0    0  0.27974177873E-01 -0.10301405075E+01  0.57538638567E+00  0.11802717961E+01  0.00000000000E+00 0. -1.
         11    1    3    3    0    0 -0.18983403884E+02  0.31280007796E+02  0.11159004584E+02  0.38253521332E+02  0.51100000000E-03 0. -1.
        -11    1    3    3    0    0  0.95586642084E+01 -0.47319618711E+01  0.11717778829E+02  0.15845058080E+02  0.51100000000E-03 0.  1.
        -12    1    3    3    0    0  0.93967654978E+01 -0.25517905417E+02 -0.23452169799E+02  0.35909148792E+02  0.00000000000E+00 0.  1.
</event>
<event>
 7    1  0.2090370E-015  0.9000796E+02  0.7816164E-02  0.1186339E+00
        -11   -1    0    0    0    0  0.00000000000E+00  0.00000000000E+00  0.45593999997E+02  0.45594000000E+02  0.51100000000E-03 0.  1.
         11   -1    0    0    0    0 -0.00000000000E+00 -0.00000000000E+00 -0.45593999997E+02  0.45594000000E+02  0.51100000000E-03 0. -1.
    9900012    2    1    2    0    0 -0.38939974797E+00  0.69177708144E+00  0.87309932333E+00  0.90007961813E+02  0.90000226109E+02 0.  0.
         12    1    1    2    0    0  0.38939974797E+00 -0.69177708144E+00 -0.87309932333E+00  0.11800381869E+01  0.00000000000E+00 0. -1.
         11    1    3    3    0    0  0.30334532349E+02 -0.20330072208E+02 -0.64114753573E+01  0.37075634928E+02  0.51100000000E-03 0. -1.
        -11    1    3    3    0    0  0.75285584065E+01 -0.75836539502E+00  0.45491732345E+01  0.88288893486E+01  0.51100000000E-03 0.  1.
        -12    1    3    3    0    0 -0.38252490503E+02  0.21780214685E+02  0.27354014461E+01  0.44103437536E+02  0.00000000000E+00 0.  1.
</event>
<event>
 7    1  0.2090370E-015  0.9000774E+02  0.7816164E-02  0.1186339E+00
        -11   -1    0    0    0    0  0.00000000000E+00  0.00000000000E+00  0.45593999997E+02  0.45594000000E+02  0.51100000000E-03 0.  1.
         11   -1    0    0    0    0 -0.00000000000E+00 -0.00000000000E+00 -0.45593999997E+02  0.45594000000E+02  0.51100000000E-03 0. -1.
    9900012    2    1    2    0    0 -0.31158914263E+00 -0.98613210938E+00  0.56873579850E+00  0.90007743782E+02  0.90000005200E+02 0.  0.
         12    1    1    2    0    0  0.31158914263E+00  0.98613210938E+00 -0.56873579850E+00  0.11802562177E+01  0.00000000000E+00 0. -1.
         11    1    3    3    0    0  0.29465000595E+02 -0.18188823566E+02 -0.13233136248E+02  0.37069333120E+02  0.51100000000E-03 0. -1.
        -11    1    3    3    0    0  0.26335880895E+01  0.11843167432E+02 -0.70470156353E+01  0.14030567724E+02  0.51100000000E-03 0.  1.
        -12    1    3    3    0    0 -0.32410177827E+02  0.53595240249E+01  0.20848887681E+02  0.38907842938E+02  0.00000000000E+00 0.  1.
</event>
<event>
 7    1  0.2090370E-015  0.9000766E+02  0.7816164E-02  0.1186339E+00
        -11   -1    0    0    0    0  0.00000000000E+00  0.00000000000E+00  0.45593999997E+02  0.45594000000E+02  0.51100000000E-03 0.  1.
         11   -1    0    0    0    0 -0.00000000000E+00 -0.00000000000E+00 -0.45593999997E+02  0.45594000000E+02  0.51100000000E-03 0. -1.
    9900012    2    1    2    0    0  0.88549892023E+00  0.78028475718E+00  0.15753033851E-01  0.90007660728E+02  0.89999921049E+02 0.  0.
         12    1    1    2    0    0 -0.88549892023E+00 -0.78028475718E+00 -0.15753033851E-01  0.11803392725E+01  0.00000000000E+00 0. -1.
         11    1    3    3    0    0 -0.11413268906E+02 -0.66530697632E+00 -0.39365251444E+02  0.40991808475E+02  0.51100000000E-03 0. -1.
        -11    1    3    3    0    0  0.75143037623E+01  0.77899901555E+01  0.22639818584E+01  0.11057772008E+02  0.51100000000E-03 0.  1.
        -12    1    3    3    0    0  0.47844640640E+01 -0.63443984220E+01  0.37117022620E+02  0.37958080245E+02  0.00000000000E+00 0.  1.
</event>
<event>
 7    1  0.2169387E-015  0.9000788E+02  0.7816164E-02  0.1186339E+00
        -11   -1    0    0    0    0  0.00000000000E+00  0.00000000000E+00  0.45593999997E+02  0.45594000000E+02  0.51100000000E-03 0.  1.
         11   -1    0    0    0    0 -0.00000000000E+00 -0.00000000000E+00 -0.45593999997E+02  0.45594000000E+02  0.51100000000E-03 0. -1.
    9900012    2    1    2    0    0  0.34631211485E+00 -0.80088819482E+00 -0.79456494699E+00  0.90007878211E+02  0.90000141403E+02 0.  0.
         12    1    1    2    0    0 -0.34631211485E+00  0.80088819482E+00  0.79456494699E+00  0.11801217888E+01  0.00000000000E+00 0. -1.
         11    1    3    3    0    0 -0.37698704318E+02 -0.72618734212E+00 -0.25570295467E+01  0.37792301540E+02  0.51100000000E-03 0. -1.
        -11    1    3    3    0    0 -0.35743351201E+01 -0.86706961201E+01  0.25194624407E+01  0.97110521577E+01  0.51100000000E-03 0.  1.
        -12    1    3    3    0    0  0.41619351553E+02  0.85959952674E+01 -0.75699784107E+00  0.42504524513E+02  0.00000000000E+00 0.  1.
</event>
<event>
 7    1  0.2090370E-015  0.9000782E+02  0.7816164E-02  0.1186339E+00
        -11   -1    0    0    0    0  0.00000000000E+00  0.00000000000E+00  0.45593999997E+02  0.45594000000E+02  0.51100000000E-03 0. -1.
         11   -1    0    0    0    0 -0.00000000000E+00 -0.00000000000E+00 -0.45593999997E+02  0.45594000000E+02  0.51100000000E-03 0.  1.
    9900012    2    1    2    0    0  0.10806764539E+01 -0.96556053894E-01  0.46437857080E+00  0.90007816910E+02  0.90000079293E+02 0.  0.
         12    1    1    2    0    0 -0.10806764539E+01  0.96556053894E-01 -0.46437857080E+00  0.11801830903E+01  0.00000000000E+00 0. -1.
         11    1    3    3    0    0 -0.39714085832E+01 -0.70176423127E+01 -0.48849641705E+01  0.94277391231E+01  0.51100000000E-03 0. -1.
        -11    1    3    3    0    0  0.27705334905E+02  0.29325667267E+02 -0.14697209747E+02  0.42937027347E+02  0.51100000000E-03 0.  1.
         12    1    3    3    0    0 -0.22653249868E+02 -0.22404581008E+02  0.20046552489E+02  0.37643050439E+02  0.00000000000E+00 0. -1.
</event>
<event>
 7    1  0.2090370E-015  0.9000778E+02  0.7816164E-02  0.1186339E+00
        -11   -1    0    0    0    0  0.00000000000E+00  0.00000000000E+00  0.45593999997E+02  0.45594000000E+02  0.51100000000E-03 0. -1.
         11   -1    0    0    0    0 -0.00000000000E+00 -0.00000000000E+00 -0.45593999997E+02  0.45594000000E+02  0.51100000000E-03 0.  1.
    9900012    2    1    2    0    0 -0.36584576886E+00 -0.82224722129E+00 -0.76353615747E+00  0.90007779223E+02  0.90000041108E+02 0.  0.
         12    1    1    2    0    0  0.36584576886E+00  0.82224722129E+00  0.76353615747E+00  0.11802207773E+01  0.00000000000E+00 0. -1.
         11    1    3    3    0    0 -0.75049384114E+01  0.84956511590E+01  0.39146234011E+02  0.40754482290E+02  0.51100000000E-03 0. -1.
        -11    1    3    3    0    0  0.23591246266E+01  0.72446284118E+01 -0.24266338144E+01  0.79961654409E+01  0.51100000000E-03 0.  1.
        -12    1    3    3    0    0  0.47799680160E+01 -0.16562526792E+02 -0.37483136354E+02  0.41257131492E+02  0.00000000000E+00 0.  1.
</event>
<event>
 7    1  0.2090370E-015  0.9000771E+02  0.7816164E-02  0.1186339E+00
        -11   -1    0    0    0    0  0.00000000000E+00  0.00000000000E+00  0.45593999997E+02  0.45594000000E+02  0.51100000000E-03 0.  1.
         11   -1    0    0    0    0 -0.00000000000E+00 -0.00000000000E+00 -0.45593999997E+02  0.45594000000E+02  0.51100000000E-03 0. -1.
    9900012    2    1    2    0    0 -0.23945175929E+00 -0.75876468254E+00  0.87179249058E+00  0.90007710571E+02  0.89999971551E+02 0.  0.
         12    1    1    2    0    0  0.23945175929E+00  0.75876468254E+00 -0.87179249058E+00  0.11802894285E+01  0.00000000000E+00 0. -1.
         11    1    3    3    0    0 -0.13893839677E+02 -0.17364926812E+02 -0.27032108319E+02  0.35004490349E+02  0.51100000000E-03 0. -1.
        -11    1    3    3    0    0 -0.11994473336E+02  0.27239591474E+01 -0.28433878432E+01  0.12624270226E+02  0.51100000000E-03 0.  1.
        -12    1    3    3    0    0  0.25648861255E+02  0.13882202982E+02  0.30747288653E+02  0.42378949996E+02  0.00000000000E+00 0.  1.
</event>
<event>
 7    1  0.2090370E-015  0.9000767E+02  0.7816164E-02  0.1186339E+00
        -11   -1    0    0    0    0  0.00000000000E+00  0.00000000000E+00  0.45593999997E+02  0.45594000000E+02  0.51100000000E-03 0.  1.
         11   -1    0    0    0    0 -0.00000000000E+00 -0.00000000000E+00 -0.45593999997E+02  0.45594000000E+02  0.51100000000E-03 0. -1.
    9900012    2    1    2    0    0  0.11415746068E+01 -0.18586759199E+00  0.23546905888E+00  0.90007667410E+02  0.89999927820E+02 0.  0.
         12    1    1    2    0    0 -0.11415746068E+01  0.18586759199E+00 -0.23546905888E+00  0.11803325897E+01  0.00000000000E+00 0. -1.
         11    1    3    3    0    0  0.12075781997E+02  0.19538419709E+02 -0.34259127371E+02  0.41246359403E+02  0.51100000000E-03 0. -1.
        -11    1    3    3    0    0  0.79255782829E+01 -0.71280814189E+01  0.56369317291E+01  0.12058164678E+02  0.51100000000E-03 0.  1.
        -12    1    3    3    0    0 -0.18859785673E+02 -0.12596205882E+02  0.28857664700E+02  0.36703143329E+02  0.00000000000E+00 0.  1.
</event>
<event>
 7    1  0.2090370E-015  0.9000779E+02  0.7816164E-02  0.1186339E+00
        -11   -1    0    0    0    0  0.00000000000E+00  0.00000000000E+00  0.45593999997E+02  0.45594000000E+02  0.51100000000E-03 0. -1.
         11   -1    0    0    0    0 -0.00000000000E+00 -0.00000000000E+00 -0.45593999997E+02  0.45594000000E+02  0.51100000000E-03 0.  1.
    9900012    2    1    2    0    0  0.57261398721E+00 -0.94967846886E+00  0.40389144810E+00  0.90007786344E+02  0.90000048323E+02 0.  0.
         12    1    1    2    0    0 -0.57261398721E+00  0.94967846886E+00 -0.40389144810E+00  0.11802136563E+01  0.00000000000E+00 0. -1.
         11    1    3    3    0    0  0.75436607255E+01 -0.45774809792E+01 -0.23908788881E+01  0.91420157173E+01  0.51100000000E-03 0. -1.
        -11    1    3    3    0    0  0.16491864172E+02 -0.10391292582E+02 -0.31480637952E+02  0.37026897136E+02  0.51100000000E-03 0.  1.
         12    1    3    3    0    0 -0.23462910911E+02  0.14019095093E+02  0.34275408288E+02  0.43838873491E+02  0.00000000000E+00 0. -1.
</event>
<event>
 7    1  0.2090370E-015  0.9000804E+02  0.7816164E-02  0.1186338E+00
        -11   -1    0    0    0    0  0.00000000000E+00  0.00000000000E+00  0.45593999997E+02  0.45594000000E+02  0.51100000000E-03 0. -1.
         11   -1    0    0    0    0 -0.00000000000E+00 -0.00000000000E+00 -0.45593999997E+02  0.45594000000E+02  0.51100000000E-03 0.  1.
    9900012    2    1    2    0    0  0.62450347921E+00  0.96728221024E+00  0.25821606623E+00  0.90008036015E+02  0.90000301290E+02 0.  0.
         12    1    1    2    0    0 -0.62450347921E+00 -0.96728221024E+00 -0.25821606623E+00  0.11799639853E+01  0.00000000000E+00 0. -1.
         11    1    3    3    0    0 -0.20221221619E+01  0.16594499259E+02  0.36045005478E+02  0.39732968727E+02  0.51100000000E-03 0. -1.
        -11    1    3    3    0    0 -0.51550327283E+00 -0.76327621450E+01  0.46379600713E+01  0.89462548293E+01  0.51100000000E-03 0.  1.
        -12    1    3    3    0    0  0.31621289139E+01 -0.79944549036E+01 -0.40424749483E+02  0.41328812459E+02  0.00000000000E+00 0.  1.
</event>
<event>
 7    1  0.2090370E-015  0.9000767E+02  0.7816164E-02  0.1186339E+00
        -11   -1    0    0    0    0  0.00000000000E+00  0.00000000000E+00  0.45593999997E+02  0.45594000000E+02  0.51100000000E-03 0.  1.
         11   -1    0    0    0    0 -0.00000000000E+00 -0.00000000000E+00 -0.45593999997E+02  0.45594000000E+02  0.51100000000E-03 0. -1.
    9900012    2    1    2    0    0 -0.98329588187E+00 -0.65170706068E+00  0.39863303297E-01  0.90007668704E+02  0.89999929131E+02 0.  0.
         12    1    1    2    0    0  0.98329588187E+00  0.65170706068E+00 -0.39863303297E-01  0.11803312955E+01  0.00000000000E+00 0. -1.
         11    1    3    3    0    0  0.23983892931E+02 -0.26416818989E+02 -0.89850395374E+01  0.36794107971E+02  0.51100000000E-03 0. -1.
        -11    1    3    3    0    0  0.25991830366E+01 -0.32826927815E+01 -0.85196492206E+01  0.94929577824E+01  0.51100000000E-03 0.  1.
        -12    1    3    3    0    0 -0.27566371850E+02  0.29047804710E+02  0.17544552061E+02  0.43720602951E+02  0.00000000000E+00 0.  1.
</event>
<event>
 7    1  0.2090370E-015  0.9000777E+02  0.7816164E-02  0.1186339E+00
        -11   -1    0    0    0    0  0.00000000000E+00  0.00000000000E+00  0.45593999997E+02  0.45594000000E+02  0.51100000000E-03 0. -1.
         11   -1    0    0    0    0 -0.00000000000E+00 -0.00000000000E+00 -0.45593999997E+02  0.45594000000E+02  0.51100000000E-03 0.  1.
    9900012    2    1    2    0    0  0.85932584266E+00 -0.80679393746E+00  0.59788074766E-01  0.90007774608E+02  0.90000036433E+02 0.  0.
         12    1    1    2    0    0 -0.85932584266E+00  0.80679393746E+00 -0.59788074766E-01  0.11802253917E+01  0.00000000000E+00 0. -1.
         11    1    3    3    0    0  0.87535961834E+01  0.24641885953E+02  0.32869883911E+02  0.42003300561E+02  0.51100000000E-03 0. -1.
        -11    1    3    3    0    0  0.54859123808E+00 -0.85940093893E+01  0.16096173986E+01  0.87606402825E+01  0.51100000000E-03 0.  1.
        -12    1    3    3    0    0 -0.84428615788E+01 -0.16854670501E+02 -0.34419713235E+02  0.39243833764E+02  0.00000000000E+00 0.  1.
</event>
<event>
 7    1  0.2090370E-015  0.9000776E+02  0.7816164E-02  0.1186339E+00
        -11   -1    0    0    0    0  0.00000000000E+00  0.00000000000E+00  0.45593999997E+02  0.45594000000E+02  0.51100000000E-03 0. -1.
         11   -1    0    0    0    0 -0.00000000000E+00 -0.00000000000E+00 -0.45593999997E+02  0.45594000000E+02  0.51100000000E-03 0.  1.
    9900012    2    1    2    0    0 -0.92230532104E+00 -0.49095949169E+00 -0.54888059688E+00  0.90007763482E+02  0.90000025160E+02 0.  0.
         12    1    1    2    0    0  0.92230532104E+00  0.49095949169E+00  0.54888059688E+00  0.11802365175E+01  0.00000000000E+00 0. -1.
         11    1    3    3    0    0 -0.52450041694E+01  0.11602155048E+02  0.13226347926E+02  0.18359094482E+02  0.51100000000E-03 0. -1.
        -11    1    3    3    0    0 -0.90108931989E+01  0.26436884029E+02 -0.13152094928E+02  0.30872036451E+02  0.51100000000E-03 0.  1.
         12    1    3    3    0    0  0.13333592047E+02 -0.38529998568E+02 -0.62313359452E+00  0.40776632549E+02  0.00000000000E+00 0. -1.
</event>
<event>
 7    1  0.2090370E-015  0.9000784E+02  0.7816164E-02  0.1186339E+00
        -11   -1    0    0    0    0  0.00000000000E+00  0.00000000000E+00  0.45593999997E+02  0.45594000000E+02  0.51100000000E-03 0. -1.
         11   -1    0    0    0    0 -0.00000000000E+00 -0.00000000000E+00 -0.45593999997E+02  0.45594000000E+02  0.51100000000E-03 0.  1.
    9900012    2    1    2    0    0  0.52740547047E+00  0.62877701228E+00 -0.84809090877E+00  0.90007841006E+02  0.90000103707E+02 0.  0.
         12    1    1    2    0    0 -0.52740547047E+00 -0.62877701228E+00  0.84809090877E+00  0.11801589939E+01  0.00000000000E+00 0. -1.
         11    1    3    3    0    0 -0.23519981676E+01  0.10405241637E+02  0.38276809809E+01  0.11333670670E+02  0.51100000000E-03 0. -1.
        -11    1    3    3    0    0 -0.20548319422E+02 -0.25061488553E+02 -0.27552641029E+02  0.42537744034E+02  0.51100000000E-03 0.  1.
         12    1    3    3    0    0  0.23427723060E+02  0.15285023929E+02  0.22876869139E+02  0.36136426302E+02  0.00000000000E+00 0. -1.
</event>
<event>
 7    1  0.2090370E-015  0.9000774E+02  0.7816164E-02  0.1186339E+00
        -11   -1    0    0    0    0  0.00000000000E+00  0.00000000000E+00  0.45593999997E+02  0.45594000000E+02  0.51100000000E-03 0. -1.
         11   -1    0    0    0    0 -0.00000000000E+00 -0.00000000000E+00 -0.45593999997E+02  0.45594000000E+02  0.51100000000E-03 0.  1.
    9900012    2    1    2    0    0 -0.38981269783E+00  0.10860328302E+01  0.24816657500E+00  0.90007742445E+02  0.90000003845E+02 0.  0.
         12    1    1    2    0    0  0.38981269783E+00 -0.10860328302E+01 -0.24816657500E+00  0.11802575552E+01  0.00000000000E+00 0. -1.
         11    1    3    3    0    0 -0.55687148350E+01  0.27930490143E+00 -0.59337465462E+00  0.56071998255E+01  0.51100000000E-03 0. -1.
        -11    1    3    3    0    0 -0.12880129990E+02  0.13985397419E+02 -0.36341231613E+02  0.41014317073E+02  0.51100000000E-03 0.  1.
         12    1    3    3    0    0  0.18059032127E+02 -0.13178669490E+02  0.37182772843E+02  0.43386225547E+02  0.00000000000E+00 0. -1.
</event>
<event>
 7    1  0.2090370E-015  0.9000770E+02  0.7816164E-02  0.1186339E+00
        -11   -1    0    0    0    0  0.00000000000E+00  0.00000000000E+00  0.45593999997E+02  0.45594000000E+02  0.51100000000E-03 0.  1.
         11   -1    0    0    0    0 -0.00000000000E+00 -0.00000000000E+00 -0.45593999997E+02  0.45594000000E+02  0.51100000000E-03 0. -1.
    9900012    2    1    2    0    0  0.99570961837E+00  0.59926781911E+00 -0.20627004718E+00  0.90007700506E+02  0.89999961353E+02 0.  0.
         12    1    1    2    0    0 -0.99570961837E+00 -0.59926781911E+00  0.20627004718E+00  0.11802994940E+01  0.00000000000E+00 0. -1.
         11    1    3    3    0    0  0.11909642856E+02  0.90148276517E+01 -0.85020011742E+01  0.17186935003E+02  0.51100000000E-03 0. -1.
        -11    1    3    3    0    0 -0.45396229436E+01  0.10169399105E+02 -0.28780651461E+02  0.30860180709E+02  0.51100000000E-03 0.  1.
        -12    1    3    3    0    0 -0.63743102945E+01 -0.18584958938E+02  0.37076382588E+02  0.41960584794E+02  0.00000000000E+00 0.  1.
</event>
<event>
 7    1  0.2090370E-015  0.9000774E+02  0.7816164E-02  0.1186339E+00
        -11   -1    0    0    0    0  0.00000000000E+00  0.00000000000E+00  0.45593999997E+02  0.45594000000E+02  0.51100000000E-03 0. -1.
         11   -1    0    0    0    0 -0.00000000000E+00 -0.00000000000E+00 -0.45593999997E+02  0.45594000000E+02  0.51100000000E-03 0.  1.
    9900012    2    1    2    0    0  0.98191537528E+00  0.48012910964E+00 -0.44534873883E+00  0.90007738476E+02  0.89999999824E+02 0.  0.
         12    1    1    2    0    0 -0.98191537528E+00 -0.48012910964E+00  0.44534873883E+00  0.11802615241E+01  0.00000000000E+00 0. -1.
         11    1    3    3    0    0  0.30620424267E+02  0.16553296792E+02  0.12916721839E+02  0.37127667854E+02  0.51100000000E-03 0. -1.
        -11    1    3    3    0    0  0.68241642032E+01 -0.10652784770E+02 -0.94880040193E+01  0.15813704846E+02  0.51100000000E-03 0.  1.
        -12    1    3    3    0    0 -0.36462673095E+02 -0.54203829118E+01 -0.38740665581E+01  0.37066365776E+02  0.00000000000E+00 0.  1.
</event>
<event>
 7    1  0.2090370E-015  0.9000747E+02  0.7816164E-02  0.1186340E+00
        -11   -1    0    0    0    0  0.00000000000E+00  0.00000000000E+00  0.45593999997E+02  0.45594000000E+02  0.51100000000E-03 0.  1.
         11   -1    0    0    0    0 -0.00000000000E+00 -0.00000000000E+00 -0.45593999997E+02  0.45594000000E+02  0.51100000000E-03 0. -1.
    9900012    2    1    2    0    0 -0.10750471839E+01 -0.48762168843E+00 -0.12286295282E-01  0.90007469479E+02  0.89999727275E+02 0.  0.
         12    1    1    2    0    0  0.10750471839E+01  0.48762168843E+00  0.12286295282E-01  0.11805305213E+01  0.00000000000E+00 0. -1.
         11    1    3    3    0    0  0.85303201435E+01 -0.40773025477E+01 -0.37296872908E+02  0.38476583616E+02  0.51100000000E-03 0. -1.
        -11    1    3    3    0    0  0.83961651281E+01  0.24937740012E+01 -0.13802623233E+01  0.88667706618E+01  0.51100000000E-03 0.  1.
        -12    1    3    3    0    0 -0.18001532455E+02  0.10959068580E+01  0.38664848936E+02  0.42664115200E+02  0.00000000000E+00 0.  1.
</event>
<event>
 7    1  0.2090370E-015  0.9000828E+02  0.7816164E-02  0.1186338E+00
        -11   -1    0    0    0    0  0.00000000000E+00  0.00000000000E+00  0.45593999997E+02  0.45594000000E+02  0.51100000000E-03 0.  1.
         11   -1    0    0    0    0 -0.00000000000E+00 -0.00000000000E+00 -0.45593999997E+02  0.45594000000E+02  0.51100000000E-03 0. -1.
    9900012    2    1    2    0    0  0.71064417825E+00  0.83918134571E+00  0.42720741590E+00  0.90008276873E+02  0.90000545327E+02 0.  0.
         12    1    1    2    0    0 -0.71064417825E+00 -0.83918134571E+00 -0.42720741590E+00  0.11797231265E+01  0.00000000000E+00 0. -1.
         11    1    3    3    0    0  0.59348990364E+01  0.50844144246E+01  0.77261857057E+01  0.10989460516E+02  0.51100000000E-03 0. -1.
        -11    1    3    3    0    0  0.35870349530E+01 -0.40631722314E+02  0.42604612131E+00  0.40791974621E+02  0.51100000000E-03 0.  1.
         12    1    3    3    0    0 -0.88112898111E+01  0.36386489235E+02 -0.77250244111E+01  0.38226841736E+02  0.00000000000E+00 0. -1.
</event>
<event>
 7    1  0.2090370E-015  0.9000767E+02  0.7816164E-02  0.1186339E+00
        -11   -1    0    0    0    0  0.00000000000E+00  0.00000000000E+00  0.45593999997E+02  0.45594000000E+02  0.51100000000E-03 0.  1.
         11   -1    0    0    0    0 -0.00000000000E+00 -0.00000000000E+00 -0.45593999997E+02  0.45594000000E+02  0.51100000000E-03 0. -1.
    9900012    2    1    2    0    0 -0.23219773154E+00  0.20377689611E-02  0.11572618677E+01  0.90007671669E+02  0.89999932135E+02 0.  0.
         12    1    1    2    0    0  0.23219773154E+00 -0.20377689611E-02 -0.11572618677E+01  0.11803283312E+01  0.00000000000E+00 0. -1.
         11    1    3    3    0    0  0.88357532179E+01  0.11459096334E+02 -0.51781992989E+01  0.15368642489E+02  0.51100000000E-03 0. -1.
        -11    1    3    3    0    0  0.81593504388E+00  0.41686804203E+01  0.37857260371E+02  0.38094826545E+02  0.51100000000E-03 0.  1.
         12    1    3    3    0    0 -0.98838859933E+01 -0.15625738985E+02 -0.31521799204E+02  0.36544202635E+02  0.00000000000E+00 0. -1.
</event>
<event>
 7    1  0.2090370E-015  0.9000751E+02  0.7816164E-02  0.1186340E+00
        -11   -1    0    0    0    0  0.00000000000E+00  0.00000000000E+00  0.45593999997E+02  0.45594000000E+02  0.51100000000E-03 0.  1.
         11   -1    0    0    0    0 -0.00000000000E+00 -0.00000000000E+00 -0.45593999997E+02  0.45594000000E+02  0.51100000000E-03 0. -1.
    9900012    2    1    2    0    0 -0.71737209231E+00  0.93678038185E+00  0.37127780053E-01  0.90007509138E+02  0.89999767459E+02 0.  0.
         12    1    1    2    0    0  0.71737209231E+00 -0.93678038185E+00 -0.37127780053E-01  0.11804908618E+01  0.00000000000E+00 0. -1.
         11    1    3    3    0    0 -0.31182036026E+02 -0.26457734836E+02 -0.10540520116E+00  0.40894280943E+02  0.51100000000E-03 0. -1.
        -11    1    3    3    0    0 -0.40527404501E+01  0.74600769917E+01 -0.32911369176E+01  0.91054399316E+01  0.51100000000E-03 0.  1.
        -12    1    3    3    0    0  0.34517404383E+02  0.19934438226E+02  0.34336698988E+01  0.40007788263E+02  0.00000000000E+00 0.  1.
</event>
<event>
 7    1  0.2090370E-015  0.9000782E+02  0.7816164E-02  0.1186339E+00
        -11   -1    0    0    0    0  0.00000000000E+00  0.00000000000E+00  0.45593999997E+02  0.45594000000E+02  0.51100000000E-03 0.  1.
         11   -1    0    0    0    0 -0.00000000000E+00 -0.00000000000E+00 -0.45593999997E+02  0.45594000000E+02  0.51100000000E-03 0. -1.
    9900012    2    1    2    0    0  0.43626584900E+00 -0.21743376702E+00  0.10748115660E+01  0.90007819829E+02  0.90000082250E+02 0.  0.
         12    1    1    2    0    0 -0.43626584900E+00  0.21743376702E+00 -0.10748115660E+01  0.11801801712E+01  0.00000000000E+00 0. -1.
         11    1    3    3    0    0  0.23127273588E+02  0.87461739106E+01 -0.27589307683E+02  0.37047756212E+02  0.51100000000E-03 0. -1.
        -11    1    3    3    0    0  0.80163810766E+01  0.24615344457E+01 -0.13893388745E+01  0.85001047148E+01  0.51100000000E-03 0.  1.
        -12    1    3    3    0    0 -0.30707388815E+02 -0.11425142123E+02  0.30053458123E+02  0.44459958902E+02  0.00000000000E+00 0.  1.
</event>
<event>
 7    1  0.2090370E-015  0.9000769E+02  0.7816164E-02  0.1186339E+00
        -11   -1    0    0    0    0  0.00000000000E+00  0.00000000000E+00  0.45593999997E+02  0.45594000000E+02  0.51100000000E-03 0. -1.
         11   -1    0    0    0    0 -0.00000000000E+00 -0.00000000000E+00 -0.45593999997E+02  0.45594000000E+02  0.51100000000E-03 0.  1.
    9900012    2    1    2    0    0 -0.97729887259E+00  0.33197958886E+00 -0.57254999395E+00  0.90007687741E+02  0.89999948419E+02 0.  0.
         12    1    1    2    0    0  0.97729887259E+00 -0.33197958886E+00  0.57254999395E+00  0.11803122593E+01  0.00000000000E+00 0. -1.
         11    1    3    3    0    0  0.82424313671E+01  0.13715236893E+00 -0.93731789948E+01  0.12482506573E+02  0.51100000000E-03 0. -1.
        -11    1    3    3    0    0  0.26641957204E+02 -0.22247445881E+02  0.33575289328E+01  0.34871417130E+02  0.51100000000E-03 0.  1.
         12    1    3    3    0    0 -0.35861687443E+02  0.22442273101E+02  0.54431000681E+01  0.42653764038E+02  0.00000000000E+00 0. -1.
</event>
<event>
 7    1  0.2090370E-015  0.9000774E+02  0.7816164E-02  0.1186339E+00
        -11   -1    0    0    0    0  0.00000000000E+00  0.00000000000E+00  0.45593999997E+02  0.45594000000E+02  0.51100000000E-03 0. -1.
         11   -1    0    0    0    0 -0.00000000000E+00 -0.00000000000E+00 -0.45593999997E+02  0.45594000000E+02  0.51100000000E-03 0.  1.
    9900012    2    1    2    0    0  0.11396770914E+01  0.20957778686E+00 -0.22411346066E+00  0.90007740044E+02  0.90000001412E+02 0.  0.
         12    1    1    2    0    0 -0.11396770914E+01 -0.20957778686E+00  0.22411346066E+00  0.11802599564E+01  0.00000000000E+00 0. -1.
         11    1    3    3    0    0 -0.55897473493E+01  0.74269222785E+01  0.21550696326E+01  0.95419481943E+01  0.51100000000E-03 0. -1.
        -11    1    3    3    0    0  0.50887783498E+00  0.23344464420E+02 -0.30540885948E+02  0.38444358370E+02  0.51100000000E-03 0.  1.
         12    1    3    3    0    0  0.62205466057E+01 -0.30561808912E+02  0.28161702854E+02  0.42021433480E+02  0.00000000000E+00 0. -1.
</event>
<event>
 7    1  0.2313574E-015  0.9000778E+02  0.7816164E-02  0.1186339E+00
        -11   -1    0    0    0    0  0.00000000000E+00  0.00000000000E+00  0.45593999997E+02  0.45594000000E+02  0.51100000000E-03 0. -1.
         11   -1    0    0    0    0 -0.00000000000E+00 -0.00000000000E+00 -0.45593999997E+02  0.45594000000E+02  0.51100000000E-03 0.  1.
    9900012    2    1    2    0    0  0.60072800304E+00  0.66235539595E+00 -0.77027649540E+00  0.90007781934E+02  0.90000043855E+02 0.  0.
         12    1    1    2    0    0 -0.60072800304E+00 -0.66235539595E+00  0.77027649540E+00  0.11802180661E+01  0.00000000000E+00 0. -1.
         11    1    3    3    0    0 -0.29833121431E+02  0.21195593110E+02  0.14728995059E+02  0.39448847858E+02  0.51100000000E-03 0. -1.
        -11    1    3    3    0    0  0.21777427277E+01 -0.19947673981E+01  0.85729175745E+01  0.90673356815E+01  0.51100000000E-03 0.  1.
        -12    1    3    3    0    0  0.28256106706E+02 -0.18538470316E+02 -0.24072189129E+02  0.41491598394E+02  0.00000000000E+00 0.  1.
</event>
<event>
 7    1  0.2090370E-015  0.9000770E+02  0.7816164E-02  0.1186339E+00
        -11   -1    0    0    0    0  0.00000000000E+00  0.00000000000E+00  0.45593999997E+02  0.45594000000E+02  0.51100000000E-03 0.  1.
         11   -1    0    0    0    0 -0.00000000000E+00 -0.00000000000E+00 -0.45593999997E+02  0.45594000000E+02  0.51100000000E-03 0. -1.
    9900012    2    1    2    0    0 -0.13645964578E+00 -0.17981436021E+00  0.11585164288E+01  0.90007697177E+02  0.89999957979E+02 0.  0.
         12    1    1    2    0    0  0.13645964578E+00  0.17981436021E+00 -0.11585164288E+01  0.11803028234E+01  0.00000000000E+00 0. -1.
         11    1    3    3    0    0  0.17677448331E+02 -0.14754709009E+01  0.44305324269E+01  0.18283840179E+02  0.51100000000E-03 0. -1.
        -11    1    3    3    0    0  0.13248655703E+02 -0.19690112967E+02  0.16918165183E+02  0.29145355376E+02  0.51100000000E-03 0.  1.
         12    1    3    3    0    0 -0.31062563679E+02  0.20985769508E+02 -0.20190181181E+02  0.42578501621E+02  0.00000000000E+00 0. -1.
</event>
<event>
 7    1  0.2090370E-015  0.9000777E+02  0.7816164E-02  0.1186339E+00
        -11   -1    0    0    0    0  0.00000000000E+00  0.00000000000E+00  0.45593999997E+02  0.45594000000E+02  0.51100000000E-03 0. -1.
         11   -1    0    0    0    0 -0.00000000000E+00 -0.00000000000E+00 -0.45593999997E+02  0.45594000000E+02  0.51100000000E-03 0.  1.
    9900012    2    1    2    0    0 -0.13920484394E+00 -0.11625075476E+01  0.14879067948E+00  0.90007771017E+02  0.90000032794E+02 0.  0.
         12    1    1    2    0    0  0.13920484394E+00  0.11625075476E+01 -0.14879067948E+00  0.11802289833E+01  0.00000000000E+00 0. -1.
         11    1    3    3    0    0 -0.64272411540E+01 -0.10961799167E+02  0.38239650119E+02  0.40295673606E+02  0.51100000000E-03 0. -1.
        -11    1    3    3    0    0  0.93977430510E+01 -0.15987256132E+00  0.81233480547E+00  0.94341412850E+01  0.51100000000E-03 0.  1.
        -12    1    3    3    0    0 -0.31097067409E+01  0.99591641807E+01 -0.38903194245E+02  0.40277956126E+02  0.00000000000E+00 0.  1.
</event>
<event>
 7    1  0.2090370E-015  0.9000759E+02  0.7816164E-02  0.1186339E+00
        -11   -1    0    0    0    0  0.00000000000E+00  0.00000000000E+00  0.45593999997E+02  0.45594000000E+02  0.51100000000E-03 0. -1.
         11   -1    0    0    0    0 -0.00000000000E+00 -0.00000000000E+00 -0.45593999997E+02  0.45594000000E+02  0.51100000000E-03 0.  1.
    9900012    2    1    2    0    0  0.66202731223E+00  0.64810525576E+00 -0.73146375316E+00  0.90007593372E+02  0.89999852805E+02 0.  0.
         12    1    1    2    0    0 -0.66202731223E+00 -0.64810525576E+00  0.73146375316E+00  0.11804066278E+01  0.00000000000E+00 0. -1.
         11    1    3    3    0    0  0.26444484709E+02 -0.95022787777E+01  0.21876314845E+02  0.35611476029E+02  0.51100000000E-03 0. -1.
        -11    1    3    3    0    0  0.71444464447E+01 -0.52952971164E+01  0.35725186764E+01  0.95836410882E+01  0.51100000000E-03 0.  1.
        -12    1    3    3    0    0 -0.32926903841E+02  0.15445681150E+02 -0.26180297275E+02  0.44812476255E+02  0.00000000000E+00 0.  1.
</event>
<event>
 7    1  0.2090370E-015  0.9000775E+02  0.7816164E-02  0.1186339E+00
        -11   -1    0    0    0    0  0.00000000000E+00  0.00000000000E+00  0.45593999997E+02  0.45594000000E+02  0.51100000000E-03 0.  1.
         11   -1    0    0    0    0 -0.00000000000E+00 -0.00000000000E+00 -0.45593999997E+02  0.45594000000E+02  0.51100000000E-03 0. -1.
    9900012    2    1    2    0    0 -0.57775507617E+00 -0.39540182850E+00  0.95018612752E+00  0.90007746972E+02  0.90000008432E+02 0.  0.
         12    1    1    2    0    0  0.57775507617E+00  0.39540182850E+00 -0.95018612752E+00  0.11802530284E+01  0.00000000000E+00 0. -1.
         11    1    3    3    0    0  0.19441230394E+01  0.91056005800E+01 -0.93076184012E+01  0.13165232124E+02  0.51100000000E-03 0. -1.
        -11    1    3    3    0    0  0.15505391421E+02 -0.44762677270E+00  0.38860281211E+02  0.41841833001E+02  0.51100000000E-03 0.  1.
         12    1    3    3    0    0 -0.18027269537E+02 -0.90533756358E+01 -0.28602476682E+02  0.35000681846E+02  0.00000000000E+00 0. -1.
</event>
<event>
 7    1  0.2090370E-015  0.9000781E+02  0.7816164E-02  0.1186339E+00
        -11   -1    0    0    0    0  0.00000000000E+00  0.00000000000E+00  0.45593999997E+02  0.45594000000E+02  0.51100000000E-03 0. -1.
         11   -1    0    0    0    0 -0.00000000000E+00 -0.00000000000E+00 -0.45593999997E+02  0.45594000000E+02  0.51100000000E-03 0.  1.
    9900012    2    1    2    0    0  0.10916863931E+01  0.44730117947E+00 -0.31639526593E-01  0.90007805700E+02  0.90000067935E+02 0.  0.
         12    1    1    2    0    0 -0.10916863931E+01 -0.44730117947E+00  0.31639526593E-01  0.11801943000E+01  0.00000000000E+00 0. -1.
         11    1    3    3    0    0  0.88031304901E+01  0.25375298061E+02  0.26079650334E+02  0.37437267794E+02  0.51100000000E-03 0. -1.
        -11    1    3    3    0    0  0.14755306904E+01 -0.33795220610E+01  0.93611845013E+01  0.10061318786E+02  0.51100000000E-03 0.  1.
        -12    1    3    3    0    0 -0.91869747874E+01 -0.21548474821E+02 -0.35472474362E+02  0.42509219120E+02  0.00000000000E+00 0.  1.
</event>
<event>
 7    1  0.2090370E-015  0.9000757E+02  0.7816164E-02  0.1186339E+00
        -11   -1    0    0    0    0  0.00000000000E+00  0.00000000000E+00  0.45593999997E+02  0.45594000000E+02  0.51100000000E-03 0. -1.
         11   -1    0    0    0    0 -0.00000000000E+00 -0.00000000000E+00 -0.45593999997E+02  0.45594000000E+02  0.51100000000E-03 0.  1.
    9900012    2    1    2    0    0 -0.77994458748E+00  0.85741590366E+00  0.22347652198E+00  0.90007568999E+02  0.89999828110E+02 0.  0.
         12    1    1    2    0    0  0.77994458748E+00 -0.85741590366E+00 -0.22347652198E+00  0.11804310006E+01  0.00000000000E+00 0. -1.
         11    1    3    3    0    0  0.12041639961E+02 -0.75039831903E+01  0.39681599649E+02  0.42141905601E+02  0.51100000000E-03 0. -1.
        -11    1    3    3    0    0 -0.62404457970E+01 -0.48488856477E+01 -0.28612246893E+01  0.84048475747E+01  0.51100000000E-03 0.  1.
        -12    1    3    3    0    0 -0.65811387517E+01  0.13210284742E+02 -0.36596898438E+02  0.39460815824E+02  0.00000000000E+00 0.  1.
</event>
<event>
 7    1  0.2090370E-015  0.9000774E+02  0.7816164E-02  0.1186339E+00
        -11   -1    0    0    0    0  0.00000000000E+00  0.00000000000E+00  0.45593999997E+02  0.45594000000E+02  0.51100000000E-03 0. -1.
         11   -1    0    0    0    0 -0.00000000000E+00 -0.00000000000E+00 -0.45593999997E+02  0.45594000000E+02  0.51100000000E-03 0.  1.
    9900012    2    1    2    0    0  0.12352451702E+00 -0.43697931022E+00 -0.10894023402E+01  0.90007742959E+02  0.90000004366E+02 0.  0.
         12    1    1    2    0    0 -0.12352451702E+00  0.43697931022E+00  0.10894023402E+01  0.11802570410E+01  0.00000000000E+00 0. -1.
         11    1    3    3    0    0  0.19174240552E+02 -0.23494088324E+02  0.26628197079E+02  0.40356964292E+02  0.51100000000E-03 0. -1.
        -11    1    3    3    0    0 -0.12974741600E+01 -0.65161407409E+01 -0.54644901530E+01  0.86025683516E+01  0.51100000000E-03 0.  1.
        -12    1    3    3    0    0 -0.17753241875E+02  0.29573249754E+02 -0.22253109266E+02  0.41048210316E+02  0.00000000000E+00 0.  1.
</event>
<event>
 7    1  0.2090370E-015  0.9000770E+02  0.7816164E-02  0.1186339E+00
        -11   -1    0    0    0    0  0.00000000000E+00  0.00000000000E+00  0.45593999997E+02  0.45594000000E+02  0.51100000000E-03 0.  1.
         11   -1    0    0    0    0 -0.00000000000E+00 -0.00000000000E+00 -0.45593999997E+02  0.45594000000E+02  0.51100000000E-03 0. -1.
    9900012    2    1    2    0    0  0.67082159221E+00  0.94761688821E+00 -0.21243263318E+00  0.90007700462E+02  0.89999961308E+02 0.  0.
         12    1    1    2    0    0 -0.67082159221E+00 -0.94761688821E+00  0.21243263318E+00  0.11802995378E+01  0.00000000000E+00 0. -1.
         11    1    3    3    0    0  0.87088441996E+00 -0.40880480577E+01 -0.93022249522E+01  0.10198135414E+02  0.51100000000E-03 0. -1.
        -11    1    3    3    0    0  0.23521355751E+02 -0.14973315343E+02 -0.22274163712E+02  0.35687430813E+02  0.51100000000E-03 0.  1.
         12    1    3    3    0    0 -0.23721418579E+02  0.20008980289E+02  0.31363956031E+02  0.44122134235E+02  0.00000000000E+00 0. -1.
</event>
<event>
 7    1  0.2090370E-015  0.9000776E+02  0.7816164E-02  0.1186339E+00
        -11   -1    0    0    0    0  0.00000000000E+00  0.00000000000E+00  0.45593999997E+02  0.45594000000E+02  0.51100000000E-03 0. -1.
         11   -1    0    0    0    0 -0.00000000000E+00 -0.00000000000E+00 -0.45593999997E+02  0.45594000000E+02  0.51100000000E-03 0.  1.
    9900012    2    1    2    0    0 -0.84509406027E+00 -0.71160759391E+00 -0.41521756698E+00  0.90007756395E+02  0.90000017980E+02 0.  0.
         12    1    1    2    0    0  0.84509406027E+00  0.71160759391E+00  0.41521756698E+00  0.11802436047E+01  0.00000000000E+00 0. -1.
         11    1    3    3    0    0  0.14167762799E+02  0.34942295250E+02  0.15029231839E+02  0.40590236634E+02  0.51100000000E-03 0. -1.
        -11    1    3    3    0    0 -0.10097028247E+02  0.78117476876E+00 -0.24089174307E+01  0.10409759694E+02  0.51100000000E-03 0.  1.
        -12    1    3    3    0    0 -0.49158286120E+01 -0.36435077613E+02 -0.13035531975E+02  0.39007760067E+02  0.00000000000E+00 0.  1.
</event>
<event>
 7    1  0.2090370E-015  0.9000801E+02  0.7816164E-02  0.1186339E+00
        -11   -1    0    0    0    0  0.00000000000E+00  0.00000000000E+00  0.45593999997E+02  0.45594000000E+02  0.51100000000E-03 0.  1.
         11   -1    0    0    0    0 -0.00000000000E+00 -0.00000000000E+00 -0.45593999997E+02  0.45594000000E+02  0.51100000000E-03 0. -1.
    9900012    2    1    2    0    0  0.66122487640E+00 -0.31633196100E+00 -0.92471409801E+00  0.90008008301E+02  0.90000273210E+02 0.  0.
         12    1    1    2    0    0 -0.66122487640E+00  0.31633196100E+00  0.92471409801E+00  0.11799916990E+01  0.00000000000E+00 0. -1.
         11    1    3    3    0    0 -0.24450542165E+01  0.10587326666E+02  0.60543314208E+01  0.12438838582E+02  0.51100000000E-03 0. -1.
        -11    1    3    3    0    0 -0.80450665659E+01  0.11108606874E+02  0.30072556084E+02  0.33052728668E+02  0.51100000000E-03 0.  1.
         12    1    3    3    0    0  0.11151345659E+02 -0.22012265501E+02 -0.37051601603E+02  0.44516441051E+02  0.00000000000E+00 0. -1.
</event>
<event>
 7    1  0.2090370E-015  0.9000758E+02  0.7816164E-02  0.1186339E+00
        -11   -1    0    0    0    0  0.00000000000E+00  0.00000000000E+00  0.45593999997E+02  0.45594000000E+02  0.51100000000E-03 0. -1.
         11   -1    0    0    0    0 -0.00000000000E+00 -0.00000000000E+00 -0.45593999997E+02  0.45594000000E+02  0.51100000000E-03 0.  1.
    9900012    2    1    2    0    0  0.11756626793E+01 -0.37711011865E-01  0.98953087163E-01  0.90007577800E+02  0.89999837027E+02 0.  0.
         12    1    1    2    0    0 -0.11756626793E+01  0.37711011865E-01 -0.98953087163E-01  0.11804221996E+01  0.00000000000E+00 0. -1.
         11    1    3    3    0    0  0.29002024966E+02 -0.28652848557E+02  0.54608848295E+01  0.41133009202E+02  0.51100000000E-03 0. -1.
        -11    1    3    3    0    0 -0.73215739727E+01 -0.46178543625E+01 -0.46329940887E+01  0.98180781642E+01  0.51100000000E-03 0.  1.
        -12    1    3    3    0    0 -0.20504788314E+02  0.33232991908E+02 -0.72893765356E+00  0.39056490435E+02  0.00000000000E+00 0.  1.
</event>
<event>
 7    1  0.2090370E-015  0.9000777E+02  0.7816164E-02  0.1186339E+00
        -11   -1    0    0    0    0  0.00000000000E+00  0.00000000000E+00  0.45593999997E+02  0.45594000000E+02  0.51100000000E-03 0.  1.
         11   -1    0    0    0    0 -0.00000000000E+00 -0.00000000000E+00 -0.45593999997E+02  0.45594000000E+02  0.51100000000E-03 0. -1.
    9900012    2    1    2    0    0 -0.55589619601E+00  0.43991931277E+00 -0.94361199020E+00  0.90007765629E+02  0.90000027335E+02 0.  0.
         12    1    1    2    0    0  0.55589619601E+00 -0.43991931277E+00  0.94361199020E+00  0.11802343710E+01  0.00000000000E+00 0. -1.
         11    1    3    3    0    0  0.10341641503E+02  0.12803955906E+02 -0.24869067377E+02  0.29822162033E+02  0.51100000000E-03 0. -1.
        -11    1    3    3    0    0  0.12212699551E+02  0.15013594194E+02  0.95511886041E+01  0.21582012069E+02  0.51100000000E-03 0.  1.
        -12    1    3    3    0    0 -0.23110237250E+02 -0.27377630787E+02  0.14374266783E+02  0.38603591527E+02  0.00000000000E+00 0.  1.
</event>
<event>
 7    1  0.2090370E-015  0.9000772E+02  0.7816164E-02  0.1186339E+00
        -11   -1    0    0    0    0  0.00000000000E+00  0.00000000000E+00  0.45593999997E+02  0.45594000000E+02  0.51100000000E-03 0. -1.
         11   -1    0    0    0    0 -0.00000000000E+00 -0.00000000000E+00 -0.45593999997E+02  0.45594000000E+02  0.51100000000E-03 0.  1.
    9900012    2    1    2    0    0  0.50026344581E+00  0.10277362061E+01 -0.29418700883E+00  0.90007724091E+02  0.89999985249E+02 0.  0.
         12    1    1    2    0    0 -0.50026344581E+00 -0.10277362061E+01  0.29418700883E+00  0.11802759087E+01  0.00000000000E+00 0. -1.
         11    1    3    3    0    0  0.26872235508E+02  0.10115102270E+02  0.14368601883E+02  0.32107461056E+02  0.51100000000E-03 0. -1.
        -11    1    3    3    0    0  0.12898865040E+02 -0.85753211513E+01  0.12174867140E+01  0.15537024372E+02  0.51100000000E-03 0.  1.
        -12    1    3    3    0    0 -0.39270837102E+02 -0.51204491257E+00 -0.15880275606E+02  0.42363238663E+02  0.00000000000E+00 0.  1.
</event>
<event>
 7    1  0.2090370E-015  0.9000780E+02  0.7816164E-02  0.1186339E+00
        -11   -1    0    0    0    0  0.00000000000E+00  0.00000000000E+00  0.45593999997E+02  0.45594000000E+02  0.51100000000E-03 0. -1.
         11   -1    0    0    0    0 -0.00000000000E+00 -0.00000000000E+00 -0.45593999997E+02  0.45594000000E+02  0.51100000000E-03 0.  1.
    9900012    2    1    2    0    0  0.37794334219E+00  0.11165638288E+01  0.57585175729E-01  0.90007800014E+02  0.90000062174E+02 0.  0.
         12    1    1    2    0    0 -0.37794334219E+00 -0.11165638288E+01 -0.57585175729E-01  0.11801999857E+01  0.00000000000E+00 0. -1.
         11    1    3    3    0    0  0.18950615988E+01 -0.93527142376E+01  0.72396881755E+00  0.95701960891E+01  0.51100000000E-03 0. -1.
        -11    1    3    3    0    0 -0.38723520154E+02  0.58128589442E+01  0.11843353168E+02  0.40909233148E+02  0.51100000000E-03 0.  1.
         12    1    3    3    0    0  0.37206401898E+02  0.46564191222E+01 -0.12509736810E+02  0.39528370777E+02  0.00000000000E+00 0. -1.
</event>
<event>
 7    1  0.2090370E-015  0.9000769E+02  0.7816164E-02  0.1186339E+00
        -11   -1    0    0    0    0  0.00000000000E+00  0.00000000000E+00  0.45593999997E+02  0.45594000000E+02  0.51100000000E-03 0.  1.
         11   -1    0    0    0    0 -0.00000000000E+00 -0.00000000000E+00 -0.45593999997E+02  0.45594000000E+02  0.51100000000E-03 0. -1.
    9900012    2    1    2    0    0  0.74083383927E+00  0.70724944203E+00  0.58659913131E+00  0.90007688562E+02  0.89999949251E+02 0.  0.
         12    1    1    2    0    0 -0.74083383927E+00 -0.70724944203E+00 -0.58659913131E+00  0.11803114384E+01  0.00000000000E+00 0. -1.
         11    1    3    3    0    0  0.24812066133E+02  0.24727800975E+02 -0.26608187820E+02  0.43989753649E+02  0.51100000000E-03 0. -1.
        -11    1    3    3    0    0 -0.14961163886E+01 -0.21302702574E+01  0.96794675413E+01  0.10023398015E+02  0.51100000000E-03 0.  1.
        -12    1    3    3    0    0 -0.22575115905E+02 -0.21890281275E+02  0.17515319410E+02  0.35994536897E+02  0.00000000000E+00 0.  1.
</event>
<event>
 7    1  0.2090370E-015  0.9000780E+02  0.7816164E-02  0.1186339E+00
        -11   -1    0    0    0    0  0.00000000000E+00  0.00000000000E+00  0.45593999997E+02  0.45594000000E+02  0.51100000000E-03 0.  1.
         11   -1    0    0    0    0 -0.00000000000E+00 -0.00000000000E+00 -0.45593999997E+02  0.45594000000E+02  0.51100000000E-03 0. -1.
    9900012    2    1    2    0    0 -0.50685664608E+00  0.69580242364E+00  0.80735717981E+00  0.90007800742E+02  0.90000062912E+02 0.  0.
         12    1    1    2    0    0  0.50685664608E+00 -0.69580242364E+00 -0.80735717981E+00  0.11801992578E+01  0.00000000000E+00 0. -1.
         11    1    3    3    0    0  0.41452172927E+01  0.33876648764E+02  0.93036972825E+00  0.34141993878E+02  0.51100000000E-03 0. -1.
        -11    1    3    3    0    0 -0.18002041438E+02  0.69177969085E+00  0.59119306573E+01  0.18960563795E+02  0.51100000000E-03 0.  1.
        -12    1    3    3    0    0  0.13349967499E+02 -0.33872626031E+02 -0.60349432057E+01  0.36905243069E+02  0.00000000000E+00 0.  1.
</event>
<event>
 7    1  0.2090370E-015  0.9000777E+02  0.7816164E-02  0.1186339E+00
        -11   -1    0    0    0    0  0.00000000000E+00  0.00000000000E+00  0.45593999997E+02  0.45594000000E+02  0.51100000000E-03 0. -1.
         11   -1    0    0    0    0 -0.00000000000E+00 -0.00000000000E+00 -0.45593999997E+02  0.45594000000E+02  0.51100000000E-03 0.  1.
    9900012    2    1    2    0    0  0.12289421246E+00  0.82456025848E+00 -0.83543369843E+00  0.90007766094E+02  0.90000027807E+02 0.  0.
         12    1    1    2    0    0 -0.12289421246E+00 -0.82456025848E+00  0.83543369843E+00  0.11802339055E+01  0.00000000000E+00 0. -1.
         11    1    3    3    0    0  0.63111534860E+01 -0.50711983083E+01 -0.17006964671E+01  0.82728519472E+01  0.51100000000E-03 0. -1.
        -11    1    3    3    0    0  0.17772035529E+02 -0.18910304881E+02 -0.26960788563E+02  0.37420970027E+02  0.51100000000E-03 0.  1.
         12    1    3    3    0    0 -0.23960294803E+02  0.24806063448E+02  0.27826051332E+02  0.44313944121E+02  0.00000000000E+00 0. -1.
</event>
<event>
 7    1  0.2090370E-015  0.9000760E+02  0.7816164E-02  0.1186339E+00
        -11   -1    0    0    0    0  0.00000000000E+00  0.00000000000E+00  0.45593999997E+02  0.45594000000E+02  0.51100000000E-03 0.  1.
         11   -1    0    0    0    0 -0.00000000000E+00 -0.00000000000E+00 -0.45593999997E+02  0.45594000000E+02  0.51100000000E-03 0. -1.
    9900012    2    1    2    0    0  0.12775046327E+00 -0.11663746815E+01  0.12885050420E+00  0.90007596454E+02  0.89999855927E+02 0.  0.
         12    1    1    2    0    0 -0.12775046327E+00  0.11663746815E+01 -0.12885050420E+00  0.11804035458E+01  0.00000000000E+00 0. -1.
         11    1    3    3    0    0 -0.49494749400E+01 -0.21899509683E+01 -0.14925938626E+02  0.15876927649E+02  0.51100000000E-03 0. -1.
        -11    1    3    3    0    0  0.34588756611E+02 -0.16417322934E+02  0.71026715171E+01  0.38940448369E+02  0.51100000000E-03 0.  1.
         12    1    3    3    0    0 -0.29511531208E+02  0.17440899221E+02  0.79521176135E+01  0.35190220437E+02  0.00000000000E+00 0. -1.
</event>
<event>
 7    1  0.2090370E-015  0.9000778E+02  0.7816164E-02  0.1186339E+00
        -11   -1    0    0    0    0  0.00000000000E+00  0.00000000000E+00  0.45593999997E+02  0.45594000000E+02  0.51100000000E-03 0. -1.
         11   -1    0    0    0    0 -0.00000000000E+00 -0.00000000000E+00 -0.45593999997E+02  0.45594000000E+02  0.51100000000E-03 0.  1.
    9900012    2    1    2    0    0 -0.10103780341E+01  0.37956205585E+00 -0.47748355870E+00  0.90007778972E+02  0.90000040854E+02 0.  0.
         12    1    1    2    0    0  0.10103780341E+01 -0.37956205585E+00  0.47748355870E+00  0.11802210280E+01  0.00000000000E+00 0. -1.
         11    1    3    3    0    0  0.89463261384E+01 -0.17154077270E+01 -0.86526883058E+00  0.91503041181E+01  0.51100000000E-03 0. -1.
        -11    1    3    3    0    0  0.18185748171E+02  0.20805847445E+02  0.26395056416E+02  0.38213920603E+02  0.51100000000E-03 0.  1.
         12    1    3    3    0    0 -0.28142452343E+02 -0.18710877662E+02 -0.26007271144E+02  0.42643554251E+02  0.00000000000E+00 0. -1.
</event>
<event>
 7    1  0.2090370E-015  0.9000778E+02  0.7816164E-02  0.1186339E+00
        -11   -1    0    0    0    0  0.00000000000E+00  0.00000000000E+00  0.45593999997E+02  0.45594000000E+02  0.51100000000E-03 0.  1.
         11   -1    0    0    0    0 -0.00000000000E+00 -0.00000000000E+00 -0.45593999997E+02  0.45594000000E+02  0.51100000000E-03 0. -1.
    9900012    2    1    2    0    0 -0.73920859114E+00 -0.28742843843E+00  0.87399597912E+00  0.90007782469E+02  0.90000044398E+02 0.  0.
         12    1    1    2    0    0  0.73920859114E+00  0.28742843843E+00 -0.87399597912E+00  0.11802175308E+01  0.00000000000E+00 0. -1.
         11    1    3    3    0    0 -0.11149825527E+02 -0.24733317700E+02 -0.22842999411E+02  0.35466297186E+02  0.51100000000E-03 0. -1.
        -11    1    3    3    0    0 -0.33146940224E+01 -0.15586234297E+01 -0.94986941705E+01  0.10180456506E+02  0.51100000000E-03 0.  1.
        -12    1    3    3    0    0  0.13725310958E+02  0.26004512691E+02  0.33215689561E+02  0.44361028778E+02  0.00000000000E+00 0.  1.
</event>
<event>
 7    1  0.2090370E-015  0.9000767E+02  0.7816164E-02  0.1186339E+00
        -11   -1    0    0    0    0  0.00000000000E+00  0.00000000000E+00  0.45593999997E+02  0.45594000000E+02  0.51100000000E-03 0.  1.
         11   -1    0    0    0    0 -0.00000000000E+00 -0.00000000000E+00 -0.45593999997E+02  0.45594000000E+02  0.51100000000E-03 0. -1.
    9900012    2    1    2    0    0 -0.11069241209E+01  0.36891205790E+00  0.17834741104E+00  0.90007667456E+02  0.89999927866E+02 0.  0.
         12    1    1    2    0    0  0.11069241209E+01 -0.36891205790E+00 -0.17834741104E+00  0.11803325442E+01  0.00000000000E+00 0. -1.
         11    1    3    3    0    0  0.15881543863E+01 -0.57826380406E+01  0.10694496826E+02  0.12261052145E+02  0.51100000000E-03 0. -1.
        -11    1    3    3    0    0 -0.39546201351E+02  0.46947331381E+01 -0.18756020858E+01  0.39868037874E+02  0.51100000000E-03 0.  1.
         12    1    3    3    0    0  0.36851122844E+02  0.14568169604E+01 -0.86405473294E+01  0.37878577437E+02  0.00000000000E+00 0. -1.
</event>
<event>
 7    1  0.2090370E-015  0.9000770E+02  0.7816164E-02  0.1186339E+00
        -11   -1    0    0    0    0  0.00000000000E+00  0.00000000000E+00  0.45593999997E+02  0.45594000000E+02  0.51100000000E-03 0.  1.
         11   -1    0    0    0    0 -0.00000000000E+00 -0.00000000000E+00 -0.45593999997E+02  0.45594000000E+02  0.51100000000E-03 0. -1.
    9900012    2    1    2    0    0 -0.40439669635E+00 -0.10377415674E+01  0.39071989131E+00  0.90007700766E+02  0.89999961616E+02 0.  0.
         12    1    1    2    0    0  0.40439669635E+00  0.10377415674E+01 -0.39071989131E+00  0.11802992342E+01  0.00000000000E+00 0. -1.
         11    1    3    3    0    0  0.10526152714E+02 -0.51006628257E+01 -0.40292714216E+01  0.12371405768E+02  0.51100000000E-03 0. -1.
        -11    1    3    3    0    0  0.91139327812E+01  0.19607988164E+02  0.32981151938E+02  0.39437207736E+02  0.51100000000E-03 0.  1.
         12    1    3    3    0    0 -0.20044482191E+02 -0.15545066906E+02 -0.28561160625E+02  0.38199087262E+02  0.00000000000E+00 0. -1.
</event>
<event>
 7    1  0.2090370E-015  0.9000775E+02  0.7816164E-02  0.1186339E+00
        -11   -1    0    0    0    0  0.00000000000E+00  0.00000000000E+00  0.45593999997E+02  0.45594000000E+02  0.51100000000E-03 0.  1.
         11   -1    0    0    0    0 -0.00000000000E+00 -0.00000000000E+00 -0.45593999997E+02  0.45594000000E+02  0.51100000000E-03 0. -1.
    9900012    2    1    2    0    0  0.14751100041E+00  0.99933265511E+00  0.61037337803E+00  0.90007753877E+02  0.90000015428E+02 0.  0.
         12    1    1    2    0    0 -0.14751100041E+00 -0.99933265511E+00 -0.61037337803E+00  0.11802461232E+01  0.00000000000E+00 0. -1.
         11    1    3    3    0    0 -0.34025914398E+01 -0.67130501001E+01  0.74928023284E+01  0.10620016815E+02  0.51100000000E-03 0. -1.
        -11    1    3    3    0    0 -0.38952790534E+01  0.12757185000E+02  0.34526462889E+02  0.37013451716E+02  0.51100000000E-03 0.  1.
         12    1    3    3    0    0  0.74453814937E+01 -0.50448022453E+01 -0.41408891839E+02  0.42374285346E+02  0.00000000000E+00 0. -1.
</event>
<event>
 7    1  0.2090370E-015  0.9000862E+02  0.7816164E-02  0.1186337E+00
        -11   -1    0    0    0    0  0.00000000000E+00  0.00000000000E+00  0.45593999997E+02  0.45594000000E+02  0.51100000000E-03 0. -1.
         11   -1    0    0    0    0 -0.00000000000E+00 -0.00000000000E+00 -0.45593999997E+02  0.45594000000E+02  0.51100000000E-03 0.  1.
    9900012    2    1    2    0    0  0.37603804809E+00  0.78678684630E+00 -0.79403832416E+00  0.90008620920E+02  0.90000893911E+02 0.  0.
         12    1    1    2    0    0 -0.37603804809E+00 -0.78678684630E+00  0.79403832416E+00  0.11793790804E+01  0.00000000000E+00 0. -1.
         11    1    3    3    0    0  0.17747262999E+01  0.25560313867E+00 -0.89248968527E+01  0.91032285754E+01  0.51100000000E-03 0. -1.
        -11    1    3    3    0    0  0.30942300537E+02  0.78663848635E+01 -0.19782879327E+02  0.37558864307E+02  0.51100000000E-03 0.  1.
         12    1    3    3    0    0 -0.32340988789E+02 -0.73352011558E+01  0.27913737855E+02  0.43346528037E+02  0.00000000000E+00 0. -1.
</event>
<event>
 7    1  0.2090370E-015  0.9000777E+02  0.7816164E-02  0.1186339E+00
        -11   -1    0    0    0    0  0.00000000000E+00  0.00000000000E+00  0.45593999997E+02  0.45594000000E+02  0.51100000000E-03 0. -1.
         11   -1    0    0    0    0 -0.00000000000E+00 -0.00000000000E+00 -0.45593999997E+02  0.45594000000E+02  0.51100000000E-03 0.  1.
    9900012    2    1    2    0    0 -0.51908885996E+00  0.10580565663E+01  0.63229607956E-01  0.90007773359E+02  0.90000035167E+02 0.  0.
         12    1    1    2    0    0  0.51908885996E+00 -0.10580565663E+01 -0.63229607956E-01  0.11802266415E+01  0.00000000000E+00 0. -1.
         11    1    3    3    0    0 -0.73351967569E+01 -0.45457388271E+01  0.40476195682E+01  0.95316356087E+01  0.51100000000E-03 0. -1.
        -11    1    3    3    0    0  0.15536501338E+02  0.22000253516E+02  0.30879287764E+02  0.40974680495E+02  0.51100000000E-03 0.  1.
         12    1    3    3    0    0 -0.87203934411E+01 -0.16396458123E+02 -0.34863677725E+02  0.39501457254E+02  0.00000000000E+00 0. -1.
</event>
<event>
 7    1  0.2413711E-015  0.9000769E+02  0.7816164E-02  0.1186339E+00
        -11   -1    0    0    0    0  0.00000000000E+00  0.00000000000E+00  0.45593999997E+02  0.45594000000E+02  0.51100000000E-03 0. -1.
         11   -1    0    0    0    0 -0.00000000000E+00 -0.00000000000E+00 -0.45593999997E+02  0.45594000000E+02  0.51100000000E-03 0.  1.
    9900012    2    1    2    0    0  0.29782661957E+00  0.54674162249E+00 -0.10027538685E+01  0.90007685458E+02  0.89999946106E+02 0.  0.
         12    1    1    2    0    0 -0.29782661957E+00 -0.54674162249E+00  0.10027538685E+01  0.11803145419E+01  0.00000000000E+00 0. -1.
         11    1    3    3    0    0  0.36921843545E+01  0.17282006320E+01  0.37068801743E+02  0.37292290969E+02  0.51100000000E-03 0. -1.
        -11    1    3    3    0    0 -0.59074261714E+01 -0.35221335243E+01  0.56244242250E+01  0.88846641274E+01  0.51100000000E-03 0.  1.
        -12    1    3    3    0    0  0.25130684364E+01  0.23406745148E+01 -0.43695979837E+02  0.43830730362E+02  0.00000000000E+00 0.  1.
</event>
<event>
 7    1  0.4232085E-015  0.9000769E+02  0.7816164E-02  0.1186339E+00
        -11   -1    0    0    0    0  0.00000000000E+00  0.00000000000E+00  0.45593999997E+02  0.45594000000E+02  0.51100000000E-03 0. -1.
         11   -1    0    0    0    0 -0.00000000000E+00 -0.00000000000E+00 -0.45593999997E+02  0.45594000000E+02  0.51100000000E-03 0.  1.
    9900012    2    1    2    0    0  0.77676023554E+00  0.88558232263E+00 -0.74330837562E-01  0.90007687504E+02  0.89999948180E+02 0.  0.
         12    1    1    2    0    0 -0.77676023554E+00 -0.88558232263E+00  0.74330837562E-01  0.11803124955E+01  0.00000000000E+00 0. -1.
         11    1    3    3    0    0 -0.29714724140E+02 -0.14759976233E+02  0.13553585643E+02  0.35840220607E+02  0.51100000000E-03 0. -1.
        -11    1    3    3    0    0 -0.72762180277E+01 -0.54940067608E+01 -0.17251710211E+01  0.92792065602E+01  0.51100000000E-03 0.  1.
        -12    1    3    3    0    0  0.37767702403E+02  0.21139565317E+02 -0.11902745459E+02  0.44888260337E+02  0.00000000000E+00 0.  1.
</event>
<event>
 7    1  0.2090370E-015  0.9000774E+02  0.7816164E-02  0.1186339E+00
        -11   -1    0    0    0    0  0.00000000000E+00  0.00000000000E+00  0.45593999997E+02  0.45594000000E+02  0.51100000000E-03 0.  1.
         11   -1    0    0    0    0 -0.00000000000E+00 -0.00000000000E+00 -0.45593999997E+02  0.45594000000E+02  0.51100000000E-03 0. -1.
    9900012    2    1    2    0    0 -0.12183343138E+00 -0.61212576135E+00  0.10017367947E+01  0.90007738191E+02  0.89999999535E+02 0.  0.
         12    1    1    2    0    0  0.12183343138E+00  0.61212576135E+00 -0.10017367947E+01  0.11802618093E+01  0.00000000000E+00 0. -1.
         11    1    3    3    0    0  0.30619262506E+01  0.56932544312E+01 -0.76013560688E+01  0.99784343826E+01  0.51100000000E-03 0. -1.
        -11    1    3    3    0    0  0.13093442167E+02  0.83549137756E+01  0.39334216845E+02  0.42289755580E+02  0.51100000000E-03 0.  1.
         12    1    3    3    0    0 -0.16277201849E+02 -0.14660293968E+02 -0.30731123981E+02  0.37739548228E+02  0.00000000000E+00 0. -1.
</event>
<event>
 7    1  0.2090370E-015  0.9000771E+02  0.7816164E-02  0.1186339E+00
        -11   -1    0    0    0    0  0.00000000000E+00  0.00000000000E+00  0.45593999997E+02  0.45594000000E+02  0.51100000000E-03 0.  1.
         11   -1    0    0    0    0 -0.00000000000E+00 -0.00000000000E+00 -0.45593999997E+02  0.45594000000E+02  0.51100000000E-03 0. -1.
    9900012    2    1    2    0    0  0.71473803196E+00  0.61522810339E+00  0.70974297821E+00  0.90007707168E+02  0.89999968103E+02 0.  0.
         12    1    1    2    0    0 -0.71473803196E+00 -0.61522810339E+00 -0.70974297821E+00  0.11802928317E+01  0.00000000000E+00 0. -1.
         11    1    3    3    0    0  0.82542997307E+01  0.59505468183E+00 -0.30989790916E+01  0.88369240005E+01  0.51100000000E-03 0. -1.
        -11    1    3    3    0    0  0.55749109600E+01 -0.28451147734E+02  0.28962199382E+02  0.40979951597E+02  0.51100000000E-03 0.  1.
         12    1    3    3    0    0 -0.13114472659E+02  0.28471321156E+02 -0.25153477312E+02  0.40190831571E+02  0.00000000000E+00 0. -1.
</event>
<event>
 7    1  0.2090370E-015  0.9000770E+02  0.7816164E-02  0.1186339E+00
        -11   -1    0    0    0    0  0.00000000000E+00  0.00000000000E+00  0.45593999997E+02  0.45594000000E+02  0.51100000000E-03 0. -1.
         11   -1    0    0    0    0 -0.00000000000E+00 -0.00000000000E+00 -0.45593999997E+02  0.45594000000E+02  0.51100000000E-03 0.  1.
    9900012    2    1    2    0    0 -0.11044457671E+01 -0.37677389422E+00 -0.17706855627E+00  0.90007698219E+02  0.89999959036E+02 0.  0.
         12    1    1    2    0    0  0.11044457671E+01  0.37677389422E+00  0.17706855627E+00  0.11803017807E+01  0.00000000000E+00 0. -1.
         11    1    3    3    0    0 -0.84404469913E+01 -0.15829613704E+01 -0.54650286742E+01  0.10179069249E+02  0.51100000000E-03 0. -1.
        -11    1    3    3    0    0 -0.65862095117E+01  0.18542241982E+02 -0.31325372837E+02  0.36992862516E+02  0.51100000000E-03 0.  1.
         12    1    3    3    0    0  0.13922210736E+02 -0.17336054506E+02  0.36613332955E+02  0.42835766454E+02  0.00000000000E+00 0. -1.
</event>
<event>
 7    1  0.2090370E-015  0.9000771E+02  0.7816164E-02  0.1186339E+00
        -11   -1    0    0    0    0  0.00000000000E+00  0.00000000000E+00  0.45593999997E+02  0.45594000000E+02  0.51100000000E-03 0. -1.
         11   -1    0    0    0    0 -0.00000000000E+00 -0.00000000000E+00 -0.45593999997E+02  0.45594000000E+02  0.51100000000E-03 0.  1.
    9900012    2    1    2    0    0  0.80363228681E+00  0.69537011988E+00 -0.51353803810E+00  0.90007709454E+02  0.89999970419E+02 0.  0.
         12    1    1    2    0    0 -0.80363228681E+00 -0.69537011988E+00  0.51353803810E+00  0.11802905458E+01  0.00000000000E+00 0. -1.
         11    1    3    3    0    0  0.25763599616E+00 -0.35318653965E+02 -0.13486036558E+02  0.37806704121E+02  0.51100000000E-03 0. -1.
        -11    1    3    3    0    0 -0.62727277447E+01 -0.54416682343E+01  0.41020052272E+01  0.92620361518E+01  0.51100000000E-03 0.  1.
        -12    1    3    3    0    0  0.68187240354E+01  0.41455692319E+02  0.88704932926E+01  0.42938969181E+02  0.00000000000E+00 0.  1.
</event>
<event>
 7    1  0.2395810E-015  0.9000775E+02  0.7816164E-02  0.1186339E+00
        -11   -1    0    0    0    0  0.00000000000E+00  0.00000000000E+00  0.45593999997E+02  0.45594000000E+02  0.51100000000E-03 0. -1.
         11   -1    0    0    0    0 -0.00000000000E+00 -0.00000000000E+00 -0.45593999997E+02  0.45594000000E+02  0.51100000000E-03 0.  1.
    9900012    2    1    2    0    0  0.63429327997E+00 -0.98450218644E+00  0.14632759695E+00  0.90007752447E+02  0.90000013980E+02 0.  0.
         12    1    1    2    0    0 -0.63429327997E+00  0.98450218644E+00 -0.14632759695E+00  0.11802475527E+01  0.00000000000E+00 0. -1.
         11    1    3    3    0    0  0.24405849866E+02 -0.29828102914E+02 -0.50123009324E+01  0.38864950688E+02  0.51100000000E-03 0. -1.
        -11    1    3    3    0    0 -0.53488553799E+01 -0.79910652906E+01 -0.15070172383E+00  0.96171768012E+01  0.51100000000E-03 0.  1.
        -12    1    3    3    0    0 -0.18422701206E+02  0.36834666018E+02  0.53093302532E+01  0.41525624958E+02  0.00000000000E+00 0.  1.
</event>
<event>
 7    1  0.2090370E-015  0.9000773E+02  0.7816164E-02  0.1186339E+00
        -11   -1    0    0    0    0  0.00000000000E+00  0.00000000000E+00  0.45593999997E+02  0.45594000000E+02  0.51100000000E-03 0.  1.
         11   -1    0    0    0    0 -0.00000000000E+00 -0.00000000000E+00 -0.45593999997E+02  0.45594000000E+02  0.51100000000E-03 0. -1.
    9900012    2    1    2    0    0  0.10202999466E+01  0.58068254617E+00  0.12181915843E+00  0.90007727105E+02  0.89999988302E+02 0.  0.
         12    1    1    2    0    0 -0.10202999466E+01 -0.58068254617E+00 -0.12181915843E+00  0.11802728955E+01  0.00000000000E+00 0. -1.
         11    1    3    3    0    0 -0.37043199104E+02  0.80242020981E+01  0.37558166372E+01  0.38087958439E+02  0.51100000000E-03 0. -1.
        -11    1    3    3    0    0 -0.12599568238E+01 -0.36604667399E+01  0.95243120836E+01  0.10281003301E+02  0.51100000000E-03 0.  1.
        -12    1    3    3    0    0  0.39323455875E+02 -0.37830528120E+01 -0.13158309562E+02  0.41638765364E+02  0.00000000000E+00 0.  1.
</event>
<event>
 7    1  0.2090370E-015  0.9000778E+02  0.7816164E-02  0.1186339E+00
        -11   -1    0    0    0    0  0.00000000000E+00  0.00000000000E+00  0.45593999997E+02  0.45594000000E+02  0.51100000000E-03 0. -1.
         11   -1    0    0    0    0 -0.00000000000E+00 -0.00000000000E+00 -0.45593999997E+02  0.45594000000E+02  0.51100000000E-03 0.  1.
    9900012    2    1    2    0    0 -0.67431902219E+00  0.90159806567E+00  0.35402878476E+00  0.90007779005E+02  0.90000040888E+02 0.  0.
         12    1    1    2    0    0  0.67431902219E+00 -0.90159806567E+00 -0.35402878476E+00  0.11802209946E+01  0.00000000000E+00 0. -1.
         11    1    3    3    0    0 -0.34531684381E+01  0.24266072074E+02  0.28733415186E+02  0.37767390361E+02  0.51100000000E-03 0. -1.
        -11    1    3    3    0    0 -0.90923144041E+01  0.64531021124E+01 -0.36752342834E+01  0.11739678675E+02  0.51100000000E-03 0.  1.
        -12    1    3    3    0    0  0.11871163820E+02 -0.29817576120E+02 -0.24704152118E+02  0.40500709969E+02  0.00000000000E+00 0.  1.
</event>
<event>
 7    1  0.2090370E-015  0.9000771E+02  0.7816164E-02  0.1186339E+00
        -11   -1    0    0    0    0  0.00000000000E+00  0.00000000000E+00  0.45593999997E+02  0.45594000000E+02  0.51100000000E-03 0.  1.
         11   -1    0    0    0    0 -0.00000000000E+00 -0.00000000000E+00 -0.45593999997E+02  0.45594000000E+02  0.51100000000E-03 0. -1.
    9900012    2    1    2    0    0 -0.27717491174E+00 -0.79006521071E-01  0.11445583404E+01  0.90007711155E+02  0.89999972143E+02 0.  0.
         12    1    1    2    0    0  0.27717491174E+00  0.79006521071E-01 -0.11445583404E+01  0.11802888446E+01  0.00000000000E+00 0. -1.
         11    1    3    3    0    0 -0.98451926503E+00 -0.28213247435E+02  0.25078056759E+02  0.37760634794E+02  0.51100000000E-03 0. -1.
        -11    1    3    3    0    0 -0.27151007946E+00 -0.59050771230E+01  0.48596743938E+01  0.76524564048E+01  0.51100000000E-03 0.  1.
        -12    1    3    3    0    0  0.97885443276E+00  0.34039318037E+02 -0.28793172813E+02  0.44594619956E+02  0.00000000000E+00 0.  1.
</event>
<event>
 7    1  0.2090370E-015  0.9000769E+02  0.7816164E-02  0.1186339E+00
        -11   -1    0    0    0    0  0.00000000000E+00  0.00000000000E+00  0.45593999997E+02  0.45594000000E+02  0.51100000000E-03 0. -1.
         11   -1    0    0    0    0 -0.00000000000E+00 -0.00000000000E+00 -0.45593999997E+02  0.45594000000E+02  0.51100000000E-03 0.  1.
    9900012    2    1    2    0    0 -0.28988575567E+00 -0.11407800690E+01 -0.87908799830E-01  0.90007686112E+02  0.89999946769E+02 0.  0.
         12    1    1    2    0    0  0.28988575567E+00  0.11407800690E+01  0.87908799830E-01  0.11803138880E+01  0.00000000000E+00 0. -1.
         11    1    3    3    0    0  0.37222247054E+02  0.42016333252E+01  0.19749884175E+02  0.42346278745E+02  0.51100000000E-03 0. -1.
        -11    1    3    3    0    0 -0.55064044952E+01 -0.70375774255E+01  0.16329962024E+01  0.90837582169E+01  0.51100000000E-03 0.  1.
        -12    1    3    3    0    0 -0.32005728315E+02  0.16951640313E+01 -0.21470789177E+02  0.38577649150E+02  0.00000000000E+00 0.  1.
</event>
<event>
 7    1  0.2090370E-015  0.9000772E+02  0.7816164E-02  0.1186339E+00
        -11   -1    0    0    0    0  0.00000000000E+00  0.00000000000E+00  0.45593999997E+02  0.45594000000E+02  0.51100000000E-03 0. -1.
         11   -1    0    0    0    0 -0.00000000000E+00 -0.00000000000E+00 -0.45593999997E+02  0.45594000000E+02  0.51100000000E-03 0.  1.
    9900012    2    1    2    0    0 -0.10542176903E+01 -0.46588084931E+00  0.25425575057E+00  0.90007717877E+02  0.89999978952E+02 0.  0.
         12    1    1    2    0    0  0.10542176903E+01  0.46588084931E+00 -0.25425575057E+00  0.11802821235E+01  0.00000000000E+00 0. -1.
         11    1    3    3    0    0 -0.49622459755E+01  0.87162737884E+00  0.37966714191E+02  0.38299543158E+02  0.51100000000E-03 0. -1.
        -11    1    3    3    0    0  0.82963682164E+01  0.42184087907E+01  0.34613905171E+01  0.99300515044E+01  0.51100000000E-03 0.  1.
        -12    1    3    3    0    0 -0.43883399313E+01 -0.55559170188E+01 -0.41173848958E+02  0.41778123214E+02  0.00000000000E+00 0.  1.
</event>
<event>
 7    1  0.2090370E-015  0.9000771E+02  0.7816164E-02  0.1186339E+00
        -11   -1    0    0    0    0  0.00000000000E+00  0.00000000000E+00  0.45593999997E+02  0.45594000000E+02  0.51100000000E-03 0. -1.
         11   -1    0    0    0    0 -0.00000000000E+00 -0.00000000000E+00 -0.45593999997E+02  0.45594000000E+02  0.51100000000E-03 0.  1.
    9900012    2    1    2    0    0  0.41167277042E-02 -0.66950731852E+00  0.97201780236E+00  0.90007713761E+02  0.89999974783E+02 0.  0.
         12    1    1    2    0    0 -0.41167277042E-02  0.66950731852E+00 -0.97201780236E+00  0.11802862386E+01  0.00000000000E+00 0. -1.
         11    1    3    3    0    0  0.57361767746E+00  0.91230678582E+01 -0.28589390145E+01  0.95777313042E+01  0.51100000000E-03 0. -1.
        -11    1    3    3    0    0 -0.19303850701E+02  0.30363948292E+02  0.35797743272E+00  0.35982442328E+02  0.51100000000E-03 0.  1.
         12    1    3    3    0    0  0.18734349751E+02 -0.40156523469E+02  0.34729793841E+01  0.44447540129E+02  0.00000000000E+00 0. -1.
</event>
<event>
 7    1  0.2090370E-015  0.9000704E+02  0.7816164E-02  0.1186340E+00
        -11   -1    0    0    0    0  0.00000000000E+00  0.00000000000E+00  0.45593999997E+02  0.45594000000E+02  0.51100000000E-03 0. -1.
         11   -1    0    0    0    0 -0.00000000000E+00 -0.00000000000E+00 -0.45593999997E+02  0.45594000000E+02  0.51100000000E-03 0.  1.
    9900012    2    1    2    0    0 -0.74093724801E+00 -0.79108080576E+00  0.46890100031E+00  0.90007040646E+02  0.89999292780E+02 0.  0.
         12    1    1    2    0    0  0.74093724801E+00  0.79108080576E+00 -0.46890100031E+00  0.11809593536E+01  0.00000000000E+00 0. -1.
         11    1    3    3    0    0 -0.23704402419E+02  0.11326152096E+02  0.26266823344E+02  0.37150052815E+02  0.51100000000E-03 0. -1.
        -11    1    3    3    0    0  0.35007293357E+01  0.57922273625E-01  0.98515041093E+01  0.10455170699E+02  0.51100000000E-03 0.  1.
        -12    1    3    3    0    0  0.19462735835E+02 -0.12175155175E+02 -0.35649426453E+02  0.42401817132E+02  0.00000000000E+00 0.  1.
</event>
<event>
 7    1  0.2090370E-015  0.9000774E+02  0.7816164E-02  0.1186339E+00
        -11   -1    0    0    0    0  0.00000000000E+00  0.00000000000E+00  0.45593999997E+02  0.45594000000E+02  0.51100000000E-03 0. -1.
         11   -1    0    0    0    0 -0.00000000000E+00 -0.00000000000E+00 -0.45593999997E+02  0.45594000000E+02  0.51100000000E-03 0.  1.
    9900012    2    1    2    0    0  0.83979960942E+00  0.63458159354E+00 -0.53389871316E+00  0.90007743664E+02  0.90000005080E+02 0.  0.
         12    1    1    2    0    0 -0.83979960942E+00 -0.63458159354E+00  0.53389871316E+00  0.11802563360E+01  0.00000000000E+00 0. -1.
         11    1    3    3    0    0 -0.23915351918E+02  0.27398878323E+02 -0.14924709618E+01  0.36398764547E+02  0.51100000000E-03 0. -1.
        -11    1    3    3    0    0  0.22491564953E+00  0.81280653839E+01  0.67468823587E+01  0.10565815433E+02  0.51100000000E-03 0.  1.
        -12    1    3    3    0    0  0.24530235878E+02 -0.34892362113E+02 -0.57883101100E+01  0.43043163685E+02  0.00000000000E+00 0.  1.
</event>
<event>
 7    1  0.2397188E-015  0.9000728E+02  0.7816164E-02  0.1186340E+00
        -11   -1    0    0    0    0  0.00000000000E+00  0.00000000000E+00  0.45593999997E+02  0.45594000000E+02  0.51100000000E-03 0. -1.
         11   -1    0    0    0    0 -0.00000000000E+00 -0.00000000000E+00 -0.45593999997E+02  0.45594000000E+02  0.51100000000E-03 0.  1.
    9900012    2    1    2    0    0  0.55252521000E+00  0.71268731724E+00 -0.76215975275E+00  0.90007282079E+02  0.89999537401E+02 0.  0.
         12    1    1    2    0    0 -0.55252521000E+00 -0.71268731724E+00  0.76215975275E+00  0.11807179208E+01  0.00000000000E+00 0. -1.
         11    1    3    3    0    0 -0.18168145854E+02  0.11902178763E+02  0.27709529966E+02  0.35207405958E+02  0.51100000000E-03 0. -1.
        -11    1    3    3    0    0 -0.15981061241E+01  0.76642853024E+01  0.64998338600E+01  0.10175610687E+02  0.51100000000E-03 0.  1.
        -12    1    3    3    0    0  0.20318777188E+02 -0.18853776748E+02 -0.34971523579E+02  0.44624265434E+02  0.00000000000E+00 0.  1.
</event>
<event>
 7    1  0.2090370E-015  0.9000802E+02  0.7816164E-02  0.1186338E+00
        -11   -1    0    0    0    0  0.00000000000E+00  0.00000000000E+00  0.45593999997E+02  0.45594000000E+02  0.51100000000E-03 0.  1.
         11   -1    0    0    0    0 -0.00000000000E+00 -0.00000000000E+00 -0.45593999997E+02  0.45594000000E+02  0.51100000000E-03 0. -1.
    9900012    2    1    2    0    0  0.10119726121E+01  0.33229945367E+00  0.50777497550E+00  0.90008022492E+02  0.90000287588E+02 0.  0.
         12    1    1    2    0    0 -0.10119726121E+01 -0.33229945367E+00 -0.50777497550E+00  0.11799775084E+01  0.00000000000E+00 0. -1.
         11    1    3    3    0    0 -0.63288096521E+01  0.35603313761E+01 -0.54164619499E+01  0.90591308322E+01  0.51100000000E-03 0. -1.
        -11    1    3    3    0    0 -0.17604945081E+02 -0.32829134991E+02 -0.10791649070E+02  0.38783319681E+02  0.51100000000E-03 0.  1.
         12    1    3    3    0    0  0.24945727345E+02  0.29601103069E+02  0.16715885996E+02  0.42165571978E+02  0.00000000000E+00 0. -1.
</event>
<event>
 7    1  0.2090370E-015  0.9000763E+02  0.7816164E-02  0.1186339E+00
        -11   -1    0    0    0    0  0.00000000000E+00  0.00000000000E+00  0.45593999997E+02  0.45594000000E+02  0.51100000000E-03 0.  1.
         11   -1    0    0    0    0 -0.00000000000E+00 -0.00000000000E+00 -0.45593999997E+02  0.45594000000E+02  0.51100000000E-03 0. -1.
    9900012    2    1    2    0    0 -0.48668727021E+00  0.91726052077E+00  0.56128997711E+00  0.90007628109E+02  0.89999888000E+02 0.  0.
         12    1    1    2    0    0  0.48668727021E+00 -0.91726052077E+00 -0.56128997711E+00  0.11803718907E+01  0.00000000000E+00 0. -1.
         11    1    3    3    0    0  0.67877809478E+01  0.49823505676E+01 -0.24084471991E+00  0.84235262103E+01  0.51100000000E-03 0. -1.
        -11    1    3    3    0    0 -0.15273023849E+02  0.35644607142E+02  0.99961814077E+01  0.40046559387E+02  0.51100000000E-03 0.  1.
         12    1    3    3    0    0  0.79985556311E+01 -0.39709697188E+02 -0.91940467107E+01  0.41537542512E+02  0.00000000000E+00 0. -1.
</event>
<event>
 7    1  0.2090370E-015  0.9000775E+02  0.7816164E-02  0.1186339E+00
        -11   -1    0    0    0    0  0.00000000000E+00  0.00000000000E+00  0.45593999997E+02  0.45594000000E+02  0.51100000000E-03 0. -1.
         11   -1    0    0    0    0 -0.00000000000E+00 -0.00000000000E+00 -0.45593999997E+02  0.45594000000E+02  0.51100000000E-03 0.  1.
    9900012    2    1    2    0    0  0.69524584978E+00  0.87530339734E+00 -0.37877066151E+00  0.90007750008E+02  0.90000011508E+02 0.  0.
         12    1    1    2    0    0 -0.69524584978E+00 -0.87530339734E+00  0.37877066151E+00  0.11802499918E+01  0.00000000000E+00 0. -1.
         11    1    3    3    0    0  0.89519209521E+01  0.45359865872E+01 -0.25140761497E+01  0.10345658133E+02  0.51100000000E-03 0. -1.
        -11    1    3    3    0    0  0.30449887193E+02 -0.42449339696E+01  0.20360964318E+02  0.36875248646E+02  0.51100000000E-03 0.  1.
         12    1    3    3    0    0 -0.38706562296E+02  0.58425077973E+00 -0.18225658830E+02  0.42786843229E+02  0.00000000000E+00 0. -1.
</event>
<event>
 7    1  0.2141995E-015  0.9000774E+02  0.7816164E-02  0.1186339E+00
        -11   -1    0    0    0    0  0.00000000000E+00  0.00000000000E+00  0.45593999997E+02  0.45594000000E+02  0.51100000000E-03 0.  1.
         11   -1    0    0    0    0 -0.00000000000E+00 -0.00000000000E+00 -0.45593999997E+02  0.45594000000E+02  0.51100000000E-03 0. -1.
    9900012    2    1    2    0    0 -0.22091128022E+00 -0.21888868699E+00  0.11385479760E+01  0.90007743441E+02  0.90000004855E+02 0.  0.
         12    1    1    2    0    0  0.22091128022E+00  0.21888868699E+00 -0.11385479760E+01  0.11802565588E+01  0.00000000000E+00 0. -1.
         11    1    3    3    0    0  0.12600973012E+02 -0.15007940684E+02 -0.31461417196E+02  0.37065395947E+02  0.51100000000E-03 0. -1.
        -11    1    3    3    0    0  0.78677511139E+01 -0.54130899669E+01  0.25157645034E+00  0.95533419049E+01  0.51100000000E-03 0.  1.
        -12    1    3    3    0    0 -0.20689635406E+02  0.20202141964E+02  0.32348388722E+02  0.43389005590E+02  0.00000000000E+00 0.  1.
</event>
<event>
 7    1  0.2090370E-015  0.9000776E+02  0.7816164E-02  0.1186339E+00
        -11   -1    0    0    0    0  0.00000000000E+00  0.00000000000E+00  0.45593999997E+02  0.45594000000E+02  0.51100000000E-03 0.  1.
         11   -1    0    0    0    0 -0.00000000000E+00 -0.00000000000E+00 -0.45593999997E+02  0.45594000000E+02  0.51100000000E-03 0. -1.
    9900012    2    1    2    0    0  0.10307849086E+01 -0.43837910499E+00  0.37183910477E+00  0.90007763546E+02  0.90000025225E+02 0.  0.
         12    1    1    2    0    0 -0.10307849086E+01  0.43837910499E+00 -0.37183910477E+00  0.11802364540E+01  0.00000000000E+00 0. -1.
         11    1    3    3    0    0  0.10867043845E+02  0.19256556543E+02 -0.37315075150E+02  0.43374214062E+02  0.51100000000E-03 0. -1.
        -11    1    3    3    0    0 -0.60948502530E+01 -0.67662443272E+01  0.32654863763E+01  0.96743301286E+01  0.51100000000E-03 0.  1.
        -12    1    3    3    0    0 -0.37414086831E+01 -0.12928691321E+02  0.34421427878E+02  0.36959219355E+02  0.00000000000E+00 0.  1.
</event>
<event>
 7    1  0.2090370E-015  0.9000811E+02  0.7816164E-02  0.1186338E+00
        -11   -1    0    0    0    0  0.00000000000E+00  0.00000000000E+00  0.45593999997E+02  0.45594000000E+02  0.51100000000E-03 0. -1.
         11   -1    0    0    0    0 -0.00000000000E+00 -0.00000000000E+00 -0.45593999997E+02  0.45594000000E+02  0.51100000000E-03 0.  1.
    9900012    2    1    2    0    0  0.83249463068E-01  0.80013614836E+00 -0.86312492027E+00  0.90008113159E+02  0.90000379452E+02 0.  0.
         12    1    1    2    0    0 -0.83249463068E-01 -0.80013614836E+00  0.86312492027E+00  0.11798868408E+01  0.00000000000E+00 0. -1.
         11    1    3    3    0    0  0.26118595094E+01  0.39496188166E+02  0.28620757137E+01  0.39685793017E+02  0.51100000000E-03 0. -1.
        -11    1    3    3    0    0  0.37053670086E+01  0.22835896205E+01 -0.75295083419E+01  0.86970122660E+01  0.51100000000E-03 0.  1.
        -12    1    3    3    0    0 -0.62339770550E+01 -0.40979641638E+02  0.38043077079E+01  0.41625307877E+02  0.00000000000E+00 0.  1.
</event>
<event>
 7    1  0.2090370E-015  0.9000769E+02  0.7816164E-02  0.1186339E+00
        -11   -1    0    0    0    0  0.00000000000E+00  0.00000000000E+00  0.45593999997E+02  0.45594000000E+02  0.51100000000E-03 0.  1.
         11   -1    0    0    0    0 -0.00000000000E+00 -0.00000000000E+00 -0.45593999997E+02  0.45594000000E+02  0.51100000000E-03 0. -1.
    9900012    2    1    2    0    0  0.78430762434E+00  0.85429392189E+00 -0.21950515156E+00  0.90007686878E+02  0.89999947545E+02 0.  0.
         12    1    1    2    0    0 -0.78430762434E+00 -0.85429392189E+00  0.21950515156E+00  0.11803131221E+01  0.00000000000E+00 0. -1.
         11    1    3    3    0    0  0.88920515319E+01 -0.62098295049E+01  0.29933261449E+01  0.11251247246E+02  0.51100000000E-03 0. -1.
        -11    1    3    3    0    0 -0.53800211636E+01  0.26266767846E+02  0.30037094122E+02  0.40263069236E+02  0.51100000000E-03 0.  1.
         12    1    3    3    0    0 -0.27277227440E+01 -0.19202644419E+02 -0.33249925419E+02  0.38493370395E+02  0.00000000000E+00 0. -1.
</event>
<event>
 7    1  0.2090370E-015  0.9000779E+02  0.7816164E-02  0.1186339E+00
        -11   -1    0    0    0    0  0.00000000000E+00  0.00000000000E+00  0.45593999997E+02  0.45594000000E+02  0.51100000000E-03 0. -1.
         11   -1    0    0    0    0 -0.00000000000E+00 -0.00000000000E+00 -0.45593999997E+02  0.45594000000E+02  0.51100000000E-03 0.  1.
    9900012    2    1    2    0    0 -0.63087747674E+00 -0.93548624568E+00 -0.34607185251E+00  0.90007785344E+02  0.90000047311E+02 0.  0.
         12    1    1    2    0    0  0.63087747674E+00  0.93548624568E+00  0.34607185251E+00  0.11802146557E+01  0.00000000000E+00 0. -1.
         11    1    3    3    0    0 -0.21191123894E+02 -0.32269333526E+01  0.98437587468E+01  0.23587632719E+02  0.51100000000E-03 0. -1.
        -11    1    3    3    0    0 -0.13416382783E+02 -0.11758970795E+02  0.13768935435E+02  0.22535667384E+02  0.51100000000E-03 0.  1.
        -12    1    3    3    0    0  0.33976629201E+02  0.14050417902E+02 -0.23958766034E+02  0.43884485242E+02  0.00000000000E+00 0.  1.
</event>
<event>
 7    1  0.2090370E-015  0.9000779E+02  0.7816164E-02  0.1186339E+00
        -11   -1    0    0    0    0  0.00000000000E+00  0.00000000000E+00  0.45593999997E+02  0.45594000000E+02  0.51100000000E-03 0.  1.
         11   -1    0    0    0    0 -0.00000000000E+00 -0.00000000000E+00 -0.45593999997E+02  0.45594000000E+02  0.51100000000E-03 0. -1.
    9900012    2    1    2    0    0 -0.47875256797E+00 -0.15681848133E+00  0.10672909693E+01  0.90007785583E+02  0.90000047552E+02 0.  0.
         12    1    1    2    0    0  0.47875256797E+00  0.15681848133E+00 -0.10672909693E+01  0.11802144172E+01  0.00000000000E+00 0. -1.
         11    1    3    3    0    0 -0.10606208657E+02  0.63033968417E+01 -0.23085188066E+01  0.12552040995E+02  0.51100000000E-03 0. -1.
        -11    1    3    3    0    0 -0.17751682766E+02 -0.15864030569E+02  0.29639129423E+02  0.38016676605E+02  0.51100000000E-03 0.  1.
         12    1    3    3    0    0  0.27879138854E+02  0.94038152462E+01 -0.26263319647E+02  0.39439067982E+02  0.00000000000E+00 0. -1.
</event>
<event>
 7    1  0.2090370E-015  0.9000766E+02  0.7816164E-02  0.1186339E+00
        -11   -1    0    0    0    0  0.00000000000E+00  0.00000000000E+00  0.45593999997E+02  0.45594000000E+02  0.51100000000E-03 0.  1.
         11   -1    0    0    0    0 -0.00000000000E+00 -0.00000000000E+00 -0.45593999997E+02  0.45594000000E+02  0.51100000000E-03 0. -1.
    9900012    2    1    2    0    0  0.20929992978E+00  0.14032411067E+00  0.11531286551E+01  0.90007659790E+02  0.89999920099E+02 0.  0.
         12    1    1    2    0    0 -0.20929992978E+00 -0.14032411067E+00 -0.11531286551E+01  0.11803402102E+01  0.00000000000E+00 0. -1.
         11    1    3    3    0    0  0.19020241071E+02 -0.31215999356E+02  0.14112207762E+02  0.39183703173E+02  0.51100000000E-03 0. -1.
        -11    1    3    3    0    0  0.22945194182E+01 -0.21029142697E+01  0.61485912529E+01  0.68914615607E+01  0.51100000000E-03 0.  1.
        -12    1    3    3    0    0 -0.21105460559E+02  0.33459237736E+02 -0.19107670359E+02  0.43932495056E+02  0.00000000000E+00 0.  1.
</event>
<event>
 7    1  0.2090370E-015  0.9000780E+02  0.7816164E-02  0.1186339E+00
        -11   -1    0    0    0    0  0.00000000000E+00  0.00000000000E+00  0.45593999997E+02  0.45594000000E+02  0.51100000000E-03 0.  1.
         11   -1    0    0    0    0 -0.00000000000E+00 -0.00000000000E+00 -0.45593999997E+02  0.45594000000E+02  0.51100000000E-03 0. -1.
    9900012    2    1    2    0    0  0.19147571549E+00  0.32343823839E+00  0.11187430484E+01  0.90007804570E+02  0.90000066791E+02 0.  0.
         12    1    1    2    0    0 -0.19147571549E+00 -0.32343823839E+00 -0.11187430484E+01  0.11801954296E+01  0.00000000000E+00 0. -1.
         11    1    3    3    0    0 -0.46679280502E+01  0.83811071115E+01  0.14429599589E+01  0.97012701436E+01  0.51100000000E-03 0. -1.
        -11    1    3    3    0    0  0.12605220436E+02  0.33501435414E+02  0.92306364168E+01  0.36965421761E+02  0.51100000000E-03 0.  1.
         12    1    3    3    0    0 -0.77458166706E+01 -0.41559104287E+02 -0.95548533273E+01  0.43341112666E+02  0.00000000000E+00 0. -1.
</event>
<event>
 7    1  0.2090370E-015  0.9000776E+02  0.7816164E-02  0.1186339E+00
        -11   -1    0    0    0    0  0.00000000000E+00  0.00000000000E+00  0.45593999997E+02  0.45594000000E+02  0.51100000000E-03 0. -1.
         11   -1    0    0    0    0 -0.00000000000E+00 -0.00000000000E+00 -0.45593999997E+02  0.45594000000E+02  0.51100000000E-03 0.  1.
    9900012    2    1    2    0    0  0.30414919061E+00  0.11383524826E+01 -0.67929332964E-01  0.90007759559E+02  0.90000021185E+02 0.  0.
         12    1    1    2    0    0 -0.30414919061E+00 -0.11383524826E+01  0.67929332964E-01  0.11802404412E+01  0.00000000000E+00 0. -1.
         11    1    3    3    0    0  0.12764352628E+02  0.17735872389E+02  0.11219240904E+02  0.24563412510E+02  0.51100000000E-03 0. -1.
        -11    1    3    3    0    0 -0.41383263066E+01  0.21160492401E+02  0.70059091607E+01  0.22671015564E+02  0.51100000000E-03 0.  1.
        -12    1    3    3    0    0 -0.83218771306E+01 -0.37758012308E+02 -0.18293079397E+02  0.42773331484E+02  0.00000000000E+00 0.  1.
</event>
<event>
 7    1  0.2090370E-015  0.9000775E+02  0.7816164E-02  0.1186339E+00
        -11   -1    0    0    0    0  0.00000000000E+00  0.00000000000E+00  0.45593999997E+02  0.45594000000E+02  0.51100000000E-03 0.  1.
         11   -1    0    0    0    0 -0.00000000000E+00 -0.00000000000E+00 -0.45593999997E+02  0.45594000000E+02  0.51100000000E-03 0. -1.
    9900012    2    1    2    0    0 -0.47614125556E+00 -0.47025205372E+00  0.97217960275E+00  0.90007753979E+02  0.90000015532E+02 0.  0.
         12    1    1    2    0    0  0.47614125556E+00  0.47025205372E+00 -0.97217960275E+00  0.11802460207E+01  0.00000000000E+00 0. -1.
         11    1    3    3    0    0 -0.98984256270E+01 -0.37942915389E+02  0.98028152611E+01  0.40419535443E+02  0.51100000000E-03 0. -1.
        -11    1    3    3    0    0  0.59930702126E+01 -0.39843298380E+01 -0.12332556281E+01  0.73015542549E+01  0.51100000000E-03 0.  1.
        -12    1    3    3    0    0  0.34292141588E+01  0.41456993173E+02 -0.75973800302E+01  0.42286664281E+02  0.00000000000E+00 0.  1.
</event>
<event>
 7    1  0.2090370E-015  0.9000771E+02  0.7816164E-02  0.1186339E+00
        -11   -1    0    0    0    0  0.00000000000E+00  0.00000000000E+00  0.45593999997E+02  0.45594000000E+02  0.51100000000E-03 0.  1.
         11   -1    0    0    0    0 -0.00000000000E+00 -0.00000000000E+00 -0.45593999997E+02  0.45594000000E+02  0.51100000000E-03 0. -1.
    9900012    2    1    2    0    0 -0.80420303933E+00  0.86192001813E+00  0.58704152828E-01  0.90007705620E+02  0.89999966534E+02 0.  0.
         12    1    1    2    0    0  0.80420303933E+00 -0.86192001813E+00 -0.58704152828E-01  0.11802943801E+01  0.00000000000E+00 0. -1.
         11    1    3    3    0    0 -0.11275684561E+02 -0.23216562834E+02 -0.25324211764E+02  0.36158893150E+02  0.51100000000E-03 0. -1.
        -11    1    3    3    0    0 -0.21684624869E+00 -0.68730645343E+01 -0.55246422797E+01  0.88208679260E+01  0.51100000000E-03 0.  1.
        -12    1    3    3    0    0  0.10688327771E+02  0.30951547387E+02  0.30907558196E+02  0.45027944543E+02  0.00000000000E+00 0.  1.
</event>
<event>
 7    1  0.2090370E-015  0.9000776E+02  0.7816164E-02  0.1186339E+00
        -11   -1    0    0    0    0  0.00000000000E+00  0.00000000000E+00  0.45593999997E+02  0.45594000000E+02  0.51100000000E-03 0.  1.
         11   -1    0    0    0    0 -0.00000000000E+00 -0.00000000000E+00 -0.45593999997E+02  0.45594000000E+02  0.51100000000E-03 0. -1.
    9900012    2    1    2    0    0 -0.39841679580E+00  0.93642718139E+00 -0.59777618582E+00  0.90007759271E+02  0.90000020894E+02 0.  0.
         12    1    1    2    0    0  0.39841679580E+00 -0.93642718139E+00  0.59777618582E+00  0.11802407286E+01  0.00000000000E+00 0. -1.
         11    1    3    3    0    0 -0.92471758149E+01 -0.39737297574E+01  0.38907842184E+01  0.10790690007E+02  0.51100000000E-03 0. -1.
        -11    1    3    3    0    0 -0.67514475449E+01  0.26123267144E+02  0.26999234586E+02  0.38170221361E+02  0.51100000000E-03 0.  1.
         12    1    3    3    0    0  0.15600206564E+02 -0.21213110205E+02 -0.31487794991E+02  0.41046847903E+02  0.00000000000E+00 0. -1.
</event>
<event>
 7    1  0.2090370E-015  0.9000774E+02  0.7816164E-02  0.1186339E+00
        -11   -1    0    0    0    0  0.00000000000E+00  0.00000000000E+00  0.45593999997E+02  0.45594000000E+02  0.51100000000E-03 0.  1.
         11   -1    0    0    0    0 -0.00000000000E+00 -0.00000000000E+00 -0.45593999997E+02  0.45594000000E+02  0.51100000000E-03 0. -1.
    9900012    2    1    2    0    0  0.66607009400E+00  0.52830782778E+00  0.81868489633E+00  0.90007744311E+02  0.90000005736E+02 0.  0.
         12    1    1    2    0    0 -0.66607009400E+00 -0.52830782778E+00 -0.81868489633E+00  0.11802556886E+01  0.00000000000E+00 0. -1.
         11    1    3    3    0    0  0.90005184974E+01 -0.30896780259E+01  0.96640364255E+00  0.95650080913E+01  0.51100000000E-03 0. -1.
        -11    1    3    3    0    0  0.79584869196E+01  0.20298265400E+02  0.33219755541E+02  0.39735491073E+02  0.51100000000E-03 0.  1.
         12    1    3    3    0    0 -0.16292935323E+02 -0.16680279546E+02 -0.33367474288E+02  0.40707245148E+02  0.00000000000E+00 0. -1.
</event>
<event>
 7    1  0.2090370E-015  0.9000777E+02  0.7816164E-02  0.1186339E+00
        -11   -1    0    0    0    0  0.00000000000E+00  0.00000000000E+00  0.45593999997E+02  0.45594000000E+02  0.51100000000E-03 0.  1.
         11   -1    0    0    0    0 -0.00000000000E+00 -0.00000000000E+00 -0.45593999997E+02  0.45594000000E+02  0.51100000000E-03 0. -1.
    9900012    2    1    2    0    0  0.68984908975E+00 -0.58349847670E+00  0.75932340261E+00  0.90007773637E+02  0.90000035449E+02 0.  0.
         12    1    1    2    0    0 -0.68984908975E+00  0.58349847670E+00 -0.75932340261E+00  0.11802263633E+01  0.00000000000E+00 0. -1.
         11    1    3    3    0    0 -0.99367326543E+01  0.22018552541E+02 -0.64398523340E+01  0.25000540198E+02  0.51100000000E-03 0. -1.
        -11    1    3    3    0    0 -0.16359275435E+02  0.10932147470E+02  0.96071651882E+01  0.21896012520E+02  0.51100000000E-03 0.  1.
        -12    1    3    3    0    0  0.26985857179E+02 -0.33534198488E+02 -0.24079894516E+01  0.43111220919E+02  0.00000000000E+00 0.  1.
</event>
<event>
 7    1  0.2090370E-015  0.9000769E+02  0.7816164E-02  0.1186339E+00
        -11   -1    0    0    0    0  0.00000000000E+00  0.00000000000E+00  0.45593999997E+02  0.45594000000E+02  0.51100000000E-03 0.  1.
         11   -1    0    0    0    0 -0.00000000000E+00 -0.00000000000E+00 -0.45593999997E+02  0.45594000000E+02  0.51100000000E-03 0. -1.
    9900012    2    1    2    0    0  0.45228289824E+00  0.83546793200E+00  0.70039674161E+00  0.90007694073E+02  0.89999954835E+02 0.  0.
         12    1    1    2    0    0 -0.45228289824E+00 -0.83546793200E+00 -0.70039674161E+00  0.11803059269E+01  0.00000000000E+00 0. -1.
         11    1    3    3    0    0  0.12913484267E+01  0.87865346103E+01  0.38378174188E+01  0.96746893499E+01  0.51100000000E-03 0. -1.
        -11    1    3    3    0    0  0.22072341152E+02 -0.25347885315E+02  0.23591782181E+02  0.41064287655E+02  0.51100000000E-03 0.  1.
         12    1    3    3    0    0 -0.22911406680E+02  0.17396818637E+02 -0.26729202858E+02  0.39268717068E+02  0.00000000000E+00 0. -1.
</event>
<event>
 7    1  0.2090370E-015  0.9000730E+02  0.7816164E-02  0.1186340E+00
        -11   -1    0    0    0    0  0.00000000000E+00  0.00000000000E+00  0.45593999997E+02  0.45594000000E+02  0.51100000000E-03 0.  1.
         11   -1    0    0    0    0 -0.00000000000E+00 -0.00000000000E+00 -0.45593999997E+02  0.45594000000E+02  0.51100000000E-03 0. -1.
    9900012    2    1    2    0    0 -0.32919835257E-01 -0.23029629311E+00  0.11575495437E+01  0.90007304847E+02  0.89999560470E+02 0.  0.
         12    1    1    2    0    0  0.32919835257E-01  0.23029629311E+00 -0.11575495437E+01  0.11806951529E+01  0.00000000000E+00 0. -1.
         11    1    3    3    0    0  0.80013710371E+01 -0.10105837735E+02 -0.32930533800E+02  0.35363398471E+02  0.51100000000E-03 0. -1.
        -11    1    3    3    0    0 -0.96548268944E+00  0.39827844352E+01 -0.93674064482E+01  0.10224628722E+02  0.51100000000E-03 0.  1.
        -12    1    3    3    0    0 -0.70688081829E+01  0.58927570070E+01  0.43455489792E+02  0.44419277654E+02  0.00000000000E+00 0.  1.
</event>
<event>
 7    1  0.2090370E-015  0.9000797E+02  0.7816164E-02  0.1186339E+00
        -11   -1    0    0    0    0  0.00000000000E+00  0.00000000000E+00  0.45593999997E+02  0.45594000000E+02  0.51100000000E-03 0.  1.
         11   -1    0    0    0    0 -0.00000000000E+00 -0.00000000000E+00 -0.45593999997E+02  0.45594000000E+02  0.51100000000E-03 0. -1.
    9900012    2    1    2    0    0  0.17788232110E+00  0.91169584899E+00  0.72775862131E+00  0.90007972860E+02  0.90000237301E+02 0.  0.
         12    1    1    2    0    0 -0.17788232110E+00 -0.91169584899E+00 -0.72775862131E+00  0.11800271404E+01  0.00000000000E+00 0. -1.
         11    1    3    3    0    0  0.77961219617E+01  0.13608752580E+00  0.35984697703E+01  0.85876086547E+01  0.51100000000E-03 0. -1.
        -11    1    3    3    0    0 -0.10730748650E+02  0.18241386572E+02  0.34259656269E+02  0.40269358060E+02  0.51100000000E-03 0.  1.
         12    1    3    3    0    0  0.31125090092E+01 -0.17465778249E+02 -0.37130367418E+02  0.41151006145E+02  0.00000000000E+00 0. -1.
</event>
<event>
 7    1  0.2090370E-015  0.9000777E+02  0.7816164E-02  0.1186339E+00
        -11   -1    0    0    0    0  0.00000000000E+00  0.00000000000E+00  0.45593999997E+02  0.45594000000E+02  0.51100000000E-03 0.  1.
         11   -1    0    0    0    0 -0.00000000000E+00 -0.00000000000E+00 -0.45593999997E+02  0.45594000000E+02  0.51100000000E-03 0. -1.
    9900012    2    1    2    0    0 -0.32522752466E+00  0.66471035013E+00  0.91942000091E+00  0.90007768696E+02  0.90000030443E+02 0.  0.
         12    1    1    2    0    0  0.32522752466E+00 -0.66471035013E+00 -0.91942000091E+00  0.11802313038E+01  0.00000000000E+00 0. -1.
         11    1    3    3    0    0 -0.27225534699E+02 -0.39111425793E+01 -0.24390635351E+02  0.36761799045E+02  0.51100000000E-03 0. -1.
        -11    1    3    3    0    0  0.29862237990E+01 -0.36509342671E+01 -0.92724193360E+01  0.10403105988E+02  0.51100000000E-03 0.  1.
        -12    1    3    3    0    0  0.23914083375E+02  0.82267871965E+01  0.34582474688E+02  0.42842863663E+02  0.00000000000E+00 0.  1.
</event>
<event>
 7    1  0.2090370E-015  0.9000783E+02  0.7816164E-02  0.1186339E+00
        -11   -1    0    0    0    0  0.00000000000E+00  0.00000000000E+00  0.45593999997E+02  0.45594000000E+02  0.51100000000E-03 0. -1.
         11   -1    0    0    0    0 -0.00000000000E+00 -0.00000000000E+00 -0.45593999997E+02  0.45594000000E+02  0.51100000000E-03 0.  1.
    9900012    2    1    2    0    0 -0.76872784244E+00  0.55878911277E+00 -0.69972114016E+00  0.90007831604E+02  0.90000094181E+02 0.  0.
         12    1    1    2    0    0  0.76872784244E+00 -0.55878911277E+00  0.69972114016E+00  0.11801683957E+01  0.00000000000E+00 0. -1.
         11    1    3    3    0    0  0.28547997349E+02  0.21882297089E+02  0.10241342596E+02  0.37399307172E+02  0.51100000000E-03 0. -1.
        -11    1    3    3    0    0  0.47108333519E+01 -0.82185042341E+01  0.71834749018E+01  0.11888569075E+02  0.51100000000E-03 0.  1.
        -12    1    3    3    0    0 -0.34027558543E+02 -0.13105003742E+02 -0.18124538638E+02  0.40719955358E+02  0.00000000000E+00 0.  1.
</event>
<event>
 7    1  0.2090370E-015  0.9000770E+02  0.7816164E-02  0.1186339E+00
        -11   -1    0    0    0    0  0.00000000000E+00  0.00000000000E+00  0.45593999997E+02  0.45594000000E+02  0.51100000000E-03 0.  1.
         11   -1    0    0    0    0 -0.00000000000E+00 -0.00000000000E+00 -0.45593999997E+02  0.45594000000E+02  0.51100000000E-03 0. -1.
    9900012    2    1    2    0    0 -0.13183669766E+00 -0.10161214013E+01  0.58584860832E+00  0.90007702491E+02  0.89999963364E+02 0.  0.
         12    1    1    2    0    0  0.13183669766E+00  0.10161214013E+01 -0.58584860832E+00  0.11802975086E+01  0.00000000000E+00 0. -1.
         11    1    3    3    0    0  0.12256044995E+02  0.93372334365E+01 -0.32320868513E+02  0.35805489926E+02  0.51100000000E-03 0. -1.
        -11    1    3    3    0    0  0.56066857097E+01 -0.38254220510E+01 -0.71181349925E+01  0.98354778506E+01  0.51100000000E-03 0.  1.
        -12    1    3    3    0    0 -0.17994567402E+02 -0.65279327867E+01  0.40024852114E+02  0.44366734714E+02  0.00000000000E+00 0.  1.
</event>
<event>
 7    1  0.2090370E-015  0.9000778E+02  0.7816164E-02  0.1186339E+00
        -11   -1    0    0    0    0  0.00000000000E+00  0.00000000000E+00  0.45593999997E+02  0.45594000000E+02  0.51100000000E-03 0.  1.
         11   -1    0    0    0    0 -0.00000000000E+00 -0.00000000000E+00 -0.45593999997E+02  0.45594000000E+02  0.51100000000E-03 0. -1.
    9900012    2    1    2    0    0 -0.61454030760E+00 -0.64395310863E+00 -0.77498086842E+00  0.90007775131E+02  0.90000036962E+02 0.  0.
         12    1    1    2    0    0  0.61454030760E+00  0.64395310863E+00  0.77498086842E+00  0.11802248693E+01  0.00000000000E+00 0. -1.
         11    1    3    3    0    0 -0.71162878370E+01  0.91108584970E+01 -0.34421175159E+02  0.36310695322E+02  0.51100000000E-03 0. -1.
        -11    1    3    3    0    0 -0.63007382985E+01 -0.70382289453E+01 -0.65031346261E+01  0.11468510366E+02  0.51100000000E-03 0.  1.
        -12    1    3    3    0    0  0.12802485828E+02 -0.27165826604E+01  0.40149328917E+02  0.42228569443E+02  0.00000000000E+00 0.  1.
</event>
<event>
 7    1  0.2090370E-015  0.9000726E+02  0.7816164E-02  0.1186340E+00
        -11   -1    0    0    0    0  0.00000000000E+00  0.00000000000E+00  0.45593999997E+02  0.45594000000E+02  0.51100000000E-03 0. -1.
         11   -1    0    0    0    0 -0.00000000000E+00 -0.00000000000E+00 -0.45593999997E+02  0.45594000000E+02  0.51100000000E-03 0.  1.
    9900012    2    1    2    0    0  0.13849874277E+00 -0.67421594610E+00 -0.95937502379E+00  0.90007258928E+02  0.89999513944E+02 0.  0.
         12    1    1    2    0    0 -0.13849874277E+00  0.67421594610E+00  0.95937502379E+00  0.11807410724E+01  0.00000000000E+00 0. -1.
         11    1    3    3    0    0  0.23227352687E+02 -0.18615493295E+02  0.26753993130E+02  0.40022776667E+02  0.51100000000E-03 0. -1.
        -11    1    3    3    0    0 -0.77563920874E+00  0.96174019226E+01  0.38978911718E+01  0.10406228508E+02  0.51100000000E-03 0.  1.
        -12    1    3    3    0    0 -0.22313214736E+02  0.83238754266E+01 -0.31611259325E+02  0.39578253752E+02  0.00000000000E+00 0.  1.
</event>
<event>
 7    1  0.2090370E-015  0.9000721E+02  0.7816164E-02  0.1186340E+00
        -11   -1    0    0    0    0  0.00000000000E+00  0.00000000000E+00  0.45593999997E+02  0.45594000000E+02  0.51100000000E-03 0.  1.
         11   -1    0    0    0    0 -0.00000000000E+00 -0.00000000000E+00 -0.45593999997E+02  0.45594000000E+02  0.51100000000E-03 0. -1.
    9900012    2    1    2    0    0 -0.41580998753E+00 -0.19861406144E+00  0.10871570052E+01  0.90007213887E+02  0.89999468309E+02 0.  0.
         12    1    1    2    0    0  0.41580998753E+00  0.19861406144E+00 -0.10871570052E+01  0.11807861132E+01  0.00000000000E+00 0. -1.
         11    1    3    3    0    0 -0.29921933960E+02 -0.32694455424E+01 -0.24706798197E+02  0.38941459699E+02  0.51100000000E-03 0. -1.
        -11    1    3    3    0    0 -0.34388421674E+01  0.77614845183E+01 -0.71679294097E+00  0.85193937438E+01  0.51100000000E-03 0.  1.
        -12    1    3    3    0    0  0.32944966140E+02 -0.46906530374E+01  0.26510748143E+02  0.42546360444E+02  0.00000000000E+00 0.  1.
</event>
<event>
 7    1  0.2090370E-015  0.9000808E+02  0.7816164E-02  0.1186338E+00
        -11   -1    0    0    0    0  0.00000000000E+00  0.00000000000E+00  0.45593999997E+02  0.45594000000E+02  0.51100000000E-03 0. -1.
         11   -1    0    0    0    0 -0.00000000000E+00 -0.00000000000E+00 -0.45593999997E+02  0.45594000000E+02  0.51100000000E-03 0.  1.
    9900012    2    1    2    0    0 -0.90931671676E-01  0.74273640086E+00 -0.91230309143E+00  0.90008075061E+02  0.90000340852E+02 0.  0.
         12    1    1    2    0    0  0.90931671676E-01 -0.74273640086E+00  0.91230309143E+00  0.11799249386E+01  0.00000000000E+00 0. -1.
         11    1    3    3    0    0 -0.20220398461E+02  0.28202734919E+02  0.20128403630E+02  0.40117470057E+02  0.51100000000E-03 0. -1.
        -11    1    3    3    0    0 -0.50470610615E+01  0.24895235092E+01 -0.36934305401E+00  0.56397665922E+01  0.51100000000E-03 0.  1.
        -12    1    3    3    0    0  0.25176527850E+02 -0.29949522028E+02 -0.20671363668E+02  0.44250838412E+02  0.00000000000E+00 0.  1.
</event>
<event>
 7    1  0.2090370E-015  0.9000740E+02  0.7816164E-02  0.1186340E+00
        -11   -1    0    0    0    0  0.00000000000E+00  0.00000000000E+00  0.45593999997E+02  0.45594000000E+02  0.51100000000E-03 0.  1.
         11   -1    0    0    0    0 -0.00000000000E+00 -0.00000000000E+00 -0.45593999997E+02  0.45594000000E+02  0.51100000000E-03 0. -1.
    9900012    2    1    2    0    0  0.96667925741E-02 -0.11494180661E+01  0.26936377576E+00  0.90007401770E+02  0.89999658672E+02 0.  0.
         12    1    1    2    0    0 -0.96667925741E-02  0.11494180661E+01 -0.26936377576E+00  0.11805982303E+01  0.00000000000E+00 0. -1.
         11    1    3    3    0    0  0.16594894338E+01  0.78468263803E+00  0.85648996206E+01  0.87594028219E+01  0.51100000000E-03 0. -1.
        -11    1    3    3    0    0 -0.21175866028E+02  0.67004429656E+01  0.30045336026E+02  0.37363557849E+02  0.51100000000E-03 0.  1.
         12    1    3    3    0    0  0.19526043387E+02 -0.86345436698E+01 -0.38340871871E+02  0.43884441099E+02  0.00000000000E+00 0. -1.
</event>
<event>
 7    1  0.2090370E-015  0.9000766E+02  0.7816164E-02  0.1186339E+00
        -11   -1    0    0    0    0  0.00000000000E+00  0.00000000000E+00  0.45593999997E+02  0.45594000000E+02  0.51100000000E-03 0. -1.
         11   -1    0    0    0    0 -0.00000000000E+00 -0.00000000000E+00 -0.45593999997E+02  0.45594000000E+02  0.51100000000E-03 0.  1.
    9900012    2    1    2    0    0  0.68447179796E+00  0.87019410423E+00 -0.40923153519E+00  0.90007656884E+02  0.89999917155E+02 0.  0.
         12    1    1    2    0    0 -0.68447179796E+00 -0.87019410423E+00  0.40923153519E+00  0.11803431156E+01  0.00000000000E+00 0. -1.
         11    1    3    3    0    0  0.28099701449E+02  0.31042799145E+02  0.10236079338E+02  0.43104824796E+02  0.51100000000E-03 0. -1.
        -11    1    3    3    0    0 -0.37516629490E+01 -0.13733689031E+02  0.37088815692E+01  0.14712069604E+02  0.51100000000E-03 0.  1.
        -12    1    3    3    0    0 -0.23663566702E+02 -0.16438916009E+02 -0.14354192443E+02  0.32190762484E+02  0.00000000000E+00 0.  1.
</event>
<event>
 7    1  0.2090370E-015  0.9000772E+02  0.7816164E-02  0.1186339E+00
        -11   -1    0    0    0    0  0.00000000000E+00  0.00000000000E+00  0.45593999997E+02  0.45594000000E+02  0.51100000000E-03 0.  1.
         11   -1    0    0    0    0 -0.00000000000E+00 -0.00000000000E+00 -0.45593999997E+02  0.45594000000E+02  0.51100000000E-03 0. -1.
    9900012    2    1    2    0    0  0.21652579320E+00 -0.92023131625E+00  0.70664665640E+00  0.90007720969E+02  0.89999982086E+02 0.  0.
         12    1    1    2    0    0 -0.21652579320E+00  0.92023131625E+00 -0.70664665640E+00  0.11802790312E+01  0.00000000000E+00 0. -1.
         11    1    3    3    0    0 -0.83196668695E+01  0.47048755093E+01  0.12299558628E+01  0.96366748447E+01  0.51100000000E-03 0. -1.
        -11    1    3    3    0    0  0.13903898129E+01  0.16670762558E+02  0.34442693720E+02  0.38290294580E+02  0.51100000000E-03 0.  1.
         12    1    3    3    0    0  0.71458028497E+01 -0.22295869383E+02 -0.34966002926E+02  0.42080751544E+02  0.00000000000E+00 0. -1.
</event>
<event>
 7    1  0.2090370E-015  0.9000808E+02  0.7816164E-02  0.1186338E+00
        -11   -1    0    0    0    0  0.00000000000E+00  0.00000000000E+00  0.45593999997E+02  0.45594000000E+02  0.51100000000E-03 0. -1.
         11   -1    0    0    0    0 -0.00000000000E+00 -0.00000000000E+00 -0.45593999997E+02  0.45594000000E+02  0.51100000000E-03 0.  1.
    9900012    2    1    2    0    0  0.34524157846E+00 -0.10957351614E+01 -0.26902832719E+00  0.90008083252E+02  0.90000349150E+02 0.  0.
         12    1    1    2    0    0 -0.34524157846E+00  0.10957351614E+01  0.26902832719E+00  0.11799167480E+01  0.00000000000E+00 0. -1.
         11    1    3    3    0    0 -0.11745424943E+02 -0.25249334002E+02 -0.26295772900E+02  0.38300803482E+02  0.51100000000E-03 0. -1.
        -11    1    3    3    0    0 -0.12776288133E+01 -0.87096873937E+01  0.25500658618E+01  0.91648145666E+01  0.51100000000E-03 0.  1.
        -12    1    3    3    0    0  0.13368295334E+02  0.32863286235E+02  0.23476678711E+02  0.42542465204E+02  0.00000000000E+00 0.  1.
</event>
<event>
 7    1  0.2090370E-015  0.9000777E+02  0.7816164E-02  0.1186339E+00
        -11   -1    0    0    0    0  0.00000000000E+00  0.00000000000E+00  0.45593999997E+02  0.45594000000E+02  0.51100000000E-03 0. -1.
         11   -1    0    0    0    0 -0.00000000000E+00 -0.00000000000E+00 -0.45593999997E+02  0.45594000000E+02  0.51100000000E-03 0.  1.
    9900012    2    1    2    0    0  0.58506174069E+00 -0.13500762360E+00 -0.10160758115E+01  0.90007773601E+02  0.90000035412E+02 0.  0.
         12    1    1    2    0    0 -0.58506174069E+00  0.13500762360E+00  0.10160758115E+01  0.11802263993E+01  0.00000000000E+00 0. -1.
         11    1    3    3    0    0  0.22592226891E+02  0.23993673081E+02  0.17276249142E+02  0.37209862247E+02  0.51100000000E-03 0. -1.
        -11    1    3    3    0    0  0.16478205072E+01  0.81616731098E+01 -0.78201122796E+01  0.11422888282E+02  0.51100000000E-03 0.  1.
        -12    1    3    3    0    0 -0.23654985657E+02 -0.32290353814E+02 -0.10472212674E+02  0.41375023072E+02  0.00000000000E+00 0.  1.
</event>
<event>
 7    1  0.2090370E-015  0.9000758E+02  0.7816164E-02  0.1186339E+00
        -11   -1    0    0    0    0  0.00000000000E+00  0.00000000000E+00  0.45593999997E+02  0.45594000000E+02  0.51100000000E-03 0.  1.
         11   -1    0    0    0    0 -0.00000000000E+00 -0.00000000000E+00 -0.45593999997E+02  0.45594000000E+02  0.51100000000E-03 0. -1.
    9900012    2    1    2    0    0  0.88207262586E+00  0.68695654544E+00  0.37871314123E+00  0.90007582677E+02  0.89999841968E+02 0.  0.
         12    1    1    2    0    0 -0.88207262586E+00 -0.68695654544E+00 -0.37871314123E+00  0.11804173228E+01  0.00000000000E+00 0. -1.
         11    1    3    3    0    0  0.37175513069E+02  0.23462973142E+01  0.25488948240E+00  0.37250353715E+02  0.51100000000E-03 0. -1.
        -11    1    3    3    0    0  0.26751341433E+01 -0.14867631262E+01 -0.11652526495E+02  0.12047745899E+02  0.51100000000E-03 0.  1.
        -12    1    3    3    0    0 -0.38968574586E+02 -0.17257764258E+00  0.11776350154E+02  0.40709483063E+02  0.00000000000E+00 0.  1.
</event>
<event>
 7    1  0.2090370E-015  0.9000773E+02  0.7816164E-02  0.1186339E+00
        -11   -1    0    0    0    0  0.00000000000E+00  0.00000000000E+00  0.45593999997E+02  0.45594000000E+02  0.51100000000E-03 0. -1.
         11   -1    0    0    0    0 -0.00000000000E+00 -0.00000000000E+00 -0.45593999997E+02  0.45594000000E+02  0.51100000000E-03 0.  1.
    9900012    2    1    2    0    0  0.91269824023E+00 -0.43465904765E+00 -0.60916316569E+00  0.90007734637E+02  0.89999995934E+02 0.  0.
         12    1    1    2    0    0 -0.91269824023E+00  0.43465904765E+00  0.60916316569E+00  0.11802653633E+01  0.00000000000E+00 0. -1.
         11    1    3    3    0    0  0.12515769126E+02  0.79078398630E+00 -0.79350163859E+01  0.14840293172E+02  0.51100000000E-03 0. -1.
        -11    1    3    3    0    0 -0.86365959496E+01  0.11352797538E+02 -0.31321422504E+02  0.34416686498E+02  0.51100000000E-03 0.  1.
         12    1    3    3    0    0 -0.29664749362E+01 -0.12578240572E+02  0.38647275725E+02  0.40750754967E+02  0.00000000000E+00 0. -1.
</event>
<event>
 7    1  0.2090370E-015  0.9000776E+02  0.7816164E-02  0.1186339E+00
        -11   -1    0    0    0    0  0.00000000000E+00  0.00000000000E+00  0.45593999997E+02  0.45594000000E+02  0.51100000000E-03 0.  1.
         11   -1    0    0    0    0 -0.00000000000E+00 -0.00000000000E+00 -0.45593999997E+02  0.45594000000E+02  0.51100000000E-03 0. -1.
    9900012    2    1    2    0    0  0.24881224694E+00 -0.68052490551E+00  0.93163771478E+00  0.90007758282E+02  0.90000019891E+02 0.  0.
         12    1    1    2    0    0 -0.24881224694E+00  0.68052490551E+00 -0.93163771478E+00  0.11802417180E+01  0.00000000000E+00 0. -1.
         11    1    3    3    0    0 -0.24330767370E+02 -0.14789038528E+02  0.66544312089E+01  0.29240098433E+02  0.51100000000E-03 0. -1.
        -11    1    3    3    0    0 -0.96568395585E+01  0.18034989776E+01  0.15720677933E+02  0.18537714901E+02  0.51100000000E-03 0.  1.
         12    1    3    3    0    0  0.34236419176E+02  0.12305014645E+02 -0.21443471427E+02  0.42229944947E+02  0.00000000000E+00 0. -1.
</event>
<event>
 7    1  0.2090370E-015  0.9000772E+02  0.7816164E-02  0.1186339E+00
        -11   -1    0    0    0    0  0.00000000000E+00  0.00000000000E+00  0.45593999997E+02  0.45594000000E+02  0.51100000000E-03 0. -1.
         11   -1    0    0    0    0 -0.00000000000E+00 -0.00000000000E+00 -0.45593999997E+02  0.45594000000E+02  0.51100000000E-03 0.  1.
    9900012    2    1    2    0    0 -0.99269967850E+00  0.58826024798E+00  0.24812227612E+00  0.90007717222E+02  0.89999978290E+02 0.  0.
         12    1    1    2    0    0  0.99269967850E+00 -0.58826024798E+00 -0.24812227612E+00  0.11802827775E+01  0.00000000000E+00 0. -1.
         11    1    3    3    0    0  0.26427247521E+01 -0.71698371550E+00  0.11073551135E+02  0.11407085288E+02  0.51100000000E-03 0. -1.
        -11    1    3    3    0    0  0.36126395989E+02  0.15982578933E+01  0.35119408585E+01  0.36331868164E+02  0.51100000000E-03 0.  1.
         12    1    3    3    0    0 -0.39761820419E+02 -0.29301392979E+00 -0.14337369718E+02  0.42268763770E+02  0.00000000000E+00 0. -1.
</event>
<event>
 7    1  0.2090370E-015  0.9000781E+02  0.7816164E-02  0.1186339E+00
        -11   -1    0    0    0    0  0.00000000000E+00  0.00000000000E+00  0.45593999997E+02  0.45594000000E+02  0.51100000000E-03 0.  1.
         11   -1    0    0    0    0 -0.00000000000E+00 -0.00000000000E+00 -0.45593999997E+02  0.45594000000E+02  0.51100000000E-03 0. -1.
    9900012    2    1    2    0    0 -0.22343436959E+00 -0.72960437458E+00  0.90033943422E+00  0.90007806559E+02  0.90000068806E+02 0.  0.
         12    1    1    2    0    0  0.22343436959E+00  0.72960437458E+00 -0.90033943422E+00  0.11801934408E+01  0.00000000000E+00 0. -1.
         11    1    3    3    0    0  0.29614194318E+02 -0.46068345416E+01 -0.26748329120E+02  0.40170841920E+02  0.51100000000E-03 0. -1.
        -11    1    3    3    0    0 -0.64695224835E+01 -0.31989230074E+01 -0.52091356687E+01  0.89007260517E+01  0.51100000000E-03 0.  1.
        -12    1    3    3    0    0 -0.23368106204E+02  0.70761531744E+01  0.32857804223E+02  0.40936238587E+02  0.00000000000E+00 0.  1.
</event>
<event>
 7    1  0.2090370E-015  0.9000767E+02  0.7816164E-02  0.1186339E+00
        -11   -1    0    0    0    0  0.00000000000E+00  0.00000000000E+00  0.45593999997E+02  0.45594000000E+02  0.51100000000E-03 0. -1.
         11   -1    0    0    0    0 -0.00000000000E+00 -0.00000000000E+00 -0.45593999997E+02  0.45594000000E+02  0.51100000000E-03 0.  1.
    9900012    2    1    2    0    0  0.99815754768E+00  0.41037737488E+00  0.47796154059E+00  0.90007671523E+02  0.89999931987E+02 0.  0.
         12    1    1    2    0    0 -0.99815754768E+00 -0.41037737488E+00 -0.47796154059E+00  0.11803284772E+01  0.00000000000E+00 0. -1.
         11    1    3    3    0    0 -0.55722271593E+01  0.59925253796E+01  0.44149434291E+01  0.92979461003E+01  0.51100000000E-03 0. -1.
        -11    1    3    3    0    0 -0.34961455593E+02 -0.14952452466E+02 -0.11295092433E+01  0.38041490551E+02  0.51100000000E-03 0.  1.
         12    1    3    3    0    0  0.41531840300E+02  0.93703044618E+01 -0.28074726452E+01  0.42668234872E+02  0.00000000000E+00 0. -1.
</event>
<event>
 7    1  0.2090370E-015  0.9000779E+02  0.7816164E-02  0.1186339E+00
        -11   -1    0    0    0    0  0.00000000000E+00  0.00000000000E+00  0.45593999997E+02  0.45594000000E+02  0.51100000000E-03 0.  1.
         11   -1    0    0    0    0 -0.00000000000E+00 -0.00000000000E+00 -0.45593999997E+02  0.45594000000E+02  0.51100000000E-03 0. -1.
    9900012    2    1    2    0    0 -0.10891421563E+01  0.56763861035E-01  0.45105920158E+00  0.90007785115E+02  0.90000047078E+02 0.  0.
         12    1    1    2    0    0  0.10891421563E+01 -0.56763861035E-01 -0.45105920158E+00  0.11802148854E+01  0.00000000000E+00 0. -1.
         11    1    3    3    0    0  0.22094729305E+02 -0.47223117339E+01 -0.20376740455E+02  0.30425135053E+02  0.51100000000E-03 0. -1.
        -11    1    3    3    0    0 -0.20673310133E+02  0.10654257057E+02 -0.11977993459E+02  0.26160490685E+02  0.51100000000E-03 0.  1.
        -12    1    3    3    0    0 -0.25105613282E+01 -0.58751814626E+01  0.32805793116E+02  0.33422159377E+02  0.00000000000E+00 0.  1.
</event>
<event>
 7    1  0.2090370E-015  0.9000800E+02  0.7816164E-02  0.1186339E+00
        -11   -1    0    0    0    0  0.00000000000E+00  0.00000000000E+00  0.45593999997E+02  0.45594000000E+02  0.51100000000E-03 0. -1.
         11   -1    0    0    0    0 -0.00000000000E+00 -0.00000000000E+00 -0.45593999997E+02  0.45594000000E+02  0.51100000000E-03 0.  1.
    9900012    2    1    2    0    0  0.80549504156E+00 -0.85455135758E+00  0.11539516408E+00  0.90008001556E+02  0.90000266376E+02 0.  0.
         12    1    1    2    0    0 -0.80549504156E+00  0.85455135758E+00 -0.11539516408E+00  0.11799984443E+01  0.00000000000E+00 0. -1.
         11    1    3    3    0    0  0.12945062357E+01  0.95932057478E+01 -0.19957872747E+01  0.98837497955E+01  0.51100000000E-03 0. -1.
        -11    1    3    3    0    0 -0.33049751632E+02 -0.28284260849E+01  0.23299989632E+02  0.40536102355E+02  0.51100000000E-03 0.  1.
         12    1    3    3    0    0  0.32560740437E+02 -0.76193310205E+01 -0.21188807193E+02  0.39588149405E+02  0.00000000000E+00 0. -1.
</event>
<event>
 7    1  0.2090370E-015  0.9000773E+02  0.7816164E-02  0.1186339E+00
        -11   -1    0    0    0    0  0.00000000000E+00  0.00000000000E+00  0.45593999997E+02  0.45594000000E+02  0.51100000000E-03 0. -1.
         11   -1    0    0    0    0 -0.00000000000E+00 -0.00000000000E+00 -0.45593999997E+02  0.45594000000E+02  0.51100000000E-03 0.  1.
    9900012    2    1    2    0    0  0.90696499001E-01 -0.10977939796E+01 -0.42387026077E+00  0.90007727373E+02  0.89999988574E+02 0.  0.
         12    1    1    2    0    0 -0.90696499001E-01  0.10977939796E+01  0.42387026077E+00  0.11802726272E+01  0.00000000000E+00 0. -1.
         11    1    3    3    0    0 -0.51035870015E+01 -0.84618720953E+01 -0.42918632716E+01  0.10773577412E+02  0.51100000000E-03 0. -1.
        -11    1    3    3    0    0 -0.14239531074E+01 -0.18273430673E+02 -0.30660967994E+02  0.35721714259E+02  0.51100000000E-03 0.  1.
         12    1    3    3    0    0  0.66182366078E+01  0.25637508788E+02  0.34528961005E+02  0.43512435702E+02  0.00000000000E+00 0. -1.
</event>
<event>
 7    1  0.2090370E-015  0.9000858E+02  0.7816164E-02  0.1186337E+00
        -11   -1    0    0    0    0  0.00000000000E+00  0.00000000000E+00  0.45593999997E+02  0.45594000000E+02  0.51100000000E-03 0.  1.
         11   -1    0    0    0    0 -0.00000000000E+00 -0.00000000000E+00 -0.45593999997E+02  0.45594000000E+02  0.51100000000E-03 0. -1.
    9900012    2    1    2    0    0 -0.88935856140E+00  0.69249295000E+00 -0.34716656539E+00  0.90008580753E+02  0.90000853215E+02 0.  0.
         12    1    1    2    0    0  0.88935856140E+00 -0.69249295000E+00  0.34716656539E+00  0.11794192472E+01  0.00000000000E+00 0. -1.
         11    1    3    3    0    0 -0.19980314214E+02  0.21211473698E+02 -0.20143576843E+02  0.35424613771E+02  0.51100000000E-03 0. -1.
        -11    1    3    3    0    0 -0.57952670219E+01 -0.89066068108E+01 -0.96251500232E+01  0.14337233972E+02  0.51100000000E-03 0.  1.
        -12    1    3    3    0    0  0.24886222674E+02 -0.11612373937E+02  0.29421560301E+02  0.40246733010E+02  0.00000000000E+00 0.  1.
</event>
<event>
 7    1  0.2090370E-015  0.9000778E+02  0.7816164E-02  0.1186339E+00
        -11   -1    0    0    0    0  0.00000000000E+00  0.00000000000E+00  0.45593999997E+02  0.45594000000E+02  0.51100000000E-03 0. -1.
         11   -1    0    0    0    0 -0.00000000000E+00 -0.00000000000E+00 -0.45593999997E+02  0.45594000000E+02  0.51100000000E-03 0.  1.
    9900012    2    1    2    0    0 -0.11050854910E+01 -0.34618885325E+00 -0.22772753206E+00  0.90007779473E+02  0.90000041362E+02 0.  0.
         12    1    1    2    0    0  0.11050854910E+01  0.34618885325E+00  0.22772753206E+00  0.11802205274E+01  0.00000000000E+00 0. -1.
         11    1    3    3    0    0  0.36753091519E+02 -0.44837477462E+01  0.50925398205E+01  0.37374158079E+02  0.51100000000E-03 0. -1.
        -11    1    3    3    0    0  0.42253186945E+01 -0.49902435460E+01 -0.69478136117E+01  0.95408575591E+01  0.51100000000E-03 0.  1.
        -12    1    3    3    0    0 -0.42083495704E+02  0.91278024390E+01  0.16275462591E+01  0.43092763834E+02  0.00000000000E+00 0.  1.
</event>
<event>
 7    1  0.2090370E-015  0.9000776E+02  0.7816164E-02  0.1186339E+00
        -11   -1    0    0    0    0  0.00000000000E+00  0.00000000000E+00  0.45593999997E+02  0.45594000000E+02  0.51100000000E-03 0. -1.
         11   -1    0    0    0    0 -0.00000000000E+00 -0.00000000000E+00 -0.45593999997E+02  0.45594000000E+02  0.51100000000E-03 0.  1.
    9900012    2    1    2    0    0  0.60657029046E-01 -0.11503026686E+01 -0.25706552222E+00  0.90007763504E+02  0.90000025182E+02 0.  0.
         12    1    1    2    0    0 -0.60657029046E-01  0.11503026686E+01  0.25706552222E+00  0.11802364964E+01  0.00000000000E+00 0. -1.
         11    1    3    3    0    0 -0.15558918193E+02 -0.11959762134E+02 -0.14141604396E+02  0.24188857368E+02  0.51100000000E-03 0. -1.
        -11    1    3    3    0    0 -0.17671205130E+02  0.22032685307E+02  0.57220388766E+00  0.28249568671E+02  0.51100000000E-03 0.  1.
         12    1    3    3    0    0  0.33290780352E+02 -0.11223225841E+02  0.13312334986E+02  0.37569337464E+02  0.00000000000E+00 0. -1.
</event>
<event>
 7    1  0.2090370E-015  0.9000776E+02  0.7816164E-02  0.1186339E+00
        -11   -1    0    0    0    0  0.00000000000E+00  0.00000000000E+00  0.45593999997E+02  0.45594000000E+02  0.51100000000E-03 0.  1.
         11   -1    0    0    0    0 -0.00000000000E+00 -0.00000000000E+00 -0.45593999997E+02  0.45594000000E+02  0.51100000000E-03 0. -1.
    9900012    2    1    2    0    0  0.90902001930E+00  0.31744302467E+00  0.68255281137E+00  0.90007760274E+02  0.90000021910E+02 0.  0.
         12    1    1    2    0    0 -0.90902001930E+00 -0.31744302467E+00 -0.68255281137E+00  0.11802397255E+01  0.00000000000E+00 0. -1.
         11    1    3    3    0    0  0.60977693127E+00 -0.22997143225E+02 -0.28382213282E+02  0.36534784185E+02  0.51100000000E-03 0. -1.
        -11    1    3    3    0    0 -0.11844104093E+02  0.19067863683E+01 -0.36447555357E+01  0.12538057233E+02  0.51100000000E-03 0.  1.
        -12    1    3    3    0    0  0.12143347181E+02  0.21407799881E+02  0.32709521629E+02  0.40934918856E+02  0.00000000000E+00 0.  1.
</event>
<event>
 7    1  0.2090370E-015  0.9000850E+02  0.7816164E-02  0.1186338E+00
        -11   -1    0    0    0    0  0.00000000000E+00  0.00000000000E+00  0.45593999997E+02  0.45594000000E+02  0.51100000000E-03 0. -1.
         11   -1    0    0    0    0 -0.00000000000E+00 -0.00000000000E+00 -0.45593999997E+02  0.45594000000E+02  0.51100000000E-03 0.  1.
    9900012    2    1    2    0    0  0.17154810519E+00 -0.61634726690E+00 -0.99091001857E+00  0.90008502068E+02  0.90000773492E+02 0.  0.
         12    1    1    2    0    0 -0.17154810519E+00  0.61634726690E+00  0.99091001857E+00  0.11794979316E+01  0.00000000000E+00 0. -1.
         11    1    3    3    0    0  0.32312885472E+01 -0.14858953643E+00 -0.98842917982E+01  0.10400121592E+02  0.51100000000E-03 0. -1.
        -11    1    3    3    0    0 -0.31196605028E+02 -0.21310829746E+02 -0.10982615956E+02  0.39344599162E+02  0.51100000000E-03 0.  1.
         12    1    3    3    0    0  0.28136864586E+02  0.20843072015E+02  0.19875997736E+02  0.40263781314E+02  0.00000000000E+00 0. -1.
</event>
<event>
 7    1  0.2090370E-015  0.9000777E+02  0.7816164E-02  0.1186339E+00
        -11   -1    0    0    0    0  0.00000000000E+00  0.00000000000E+00  0.45593999997E+02  0.45594000000E+02  0.51100000000E-03 0. -1.
         11   -1    0    0    0    0 -0.00000000000E+00 -0.00000000000E+00 -0.45593999997E+02  0.45594000000E+02  0.51100000000E-03 0.  1.
    9900012    2    1    2    0    0  0.58857499606E+00 -0.59433768403E+00 -0.83263443332E+00  0.90007772095E+02  0.90000033886E+02 0.  0.
         12    1    1    2    0    0 -0.58857499606E+00  0.59433768403E+00  0.83263443332E+00  0.11802279052E+01  0.00000000000E+00 0. -1.
         11    1    3    3    0    0  0.27368155373E+02 -0.14700149986E+02  0.20574950088E+02  0.37261762029E+02  0.51100000000E-03 0. -1.
        -11    1    3    3    0    0  0.59540629790E+01  0.24587250868E+01  0.57599374679E+01  0.86413583947E+01  0.51100000000E-03 0.  1.
        -12    1    3    3    0    0 -0.32733643356E+02  0.11647087215E+02 -0.27167521989E+02  0.44104651671E+02  0.00000000000E+00 0.  1.
</event>
<event>
 7    1  0.2090370E-015  0.9000782E+02  0.7816164E-02  0.1186339E+00
        -11   -1    0    0    0    0  0.00000000000E+00  0.00000000000E+00  0.45593999997E+02  0.45594000000E+02  0.51100000000E-03 0.  1.
         11   -1    0    0    0    0 -0.00000000000E+00 -0.00000000000E+00 -0.45593999997E+02  0.45594000000E+02  0.51100000000E-03 0. -1.
    9900012    2    1    2    0    0 -0.10908004660E+01 -0.44338436816E+00  0.79879143814E-01  0.90007823728E+02  0.90000086201E+02 0.  0.
         12    1    1    2    0    0  0.10908004660E+01  0.44338436816E+00 -0.79879143814E-01  0.11801762717E+01  0.00000000000E+00 0. -1.
         11    1    3    3    0    0  0.36178172495E+02  0.15532658134E+02  0.98992939215E+00  0.39384052537E+02  0.51100000000E-03 0. -1.
        -11    1    3    3    0    0  0.34402981027E+01 -0.85244482647E+01  0.58552837826E+00  0.92111189872E+01  0.51100000000E-03 0.  1.
        -12    1    3    3    0    0 -0.40709271063E+02 -0.74515942371E+01 -0.14955786266E+01  0.41412652204E+02  0.00000000000E+00 0.  1.
</event>
<event>
 7    1  0.2090370E-015  0.9000763E+02  0.7816164E-02  0.1186339E+00
        -11   -1    0    0    0    0  0.00000000000E+00  0.00000000000E+00  0.45593999997E+02  0.45594000000E+02  0.51100000000E-03 0.  1.
         11   -1    0    0    0    0 -0.00000000000E+00 -0.00000000000E+00 -0.45593999997E+02  0.45594000000E+02  0.51100000000E-03 0. -1.
    9900012    2    1    2    0    0  0.11750923327E+01 -0.84200089403E-01  0.73031380171E-01  0.90007633435E+02  0.89999893396E+02 0.  0.
         12    1    1    2    0    0 -0.11750923327E+01  0.84200089403E-01 -0.73031380171E-01  0.11803665651E+01  0.00000000000E+00 0. -1.
         11    1    3    3    0    0  0.88727034561E+01  0.60181230984E+00  0.72214127081E+00  0.89223614000E+01  0.51100000000E-03 0. -1.
        -11    1    3    3    0    0  0.24664815751E+02  0.28357062895E+02 -0.11069613265E+01  0.37599222275E+02  0.51100000000E-03 0.  1.
         12    1    3    3    0    0 -0.32362426875E+02 -0.29043075294E+02  0.45785143581E+00  0.43486049760E+02  0.00000000000E+00 0. -1.
</event>
<event>
 7    1  0.2090370E-015  0.9000783E+02  0.7816164E-02  0.1186339E+00
        -11   -1    0    0    0    0  0.00000000000E+00  0.00000000000E+00  0.45593999997E+02  0.45594000000E+02  0.51100000000E-03 0. -1.
         11   -1    0    0    0    0 -0.00000000000E+00 -0.00000000000E+00 -0.45593999997E+02  0.45594000000E+02  0.51100000000E-03 0.  1.
    9900012    2    1    2    0    0  0.55496680431E+00 -0.45878048437E+00 -0.93505979863E+00  0.90007828608E+02  0.90000091146E+02 0.  0.
         12    1    1    2    0    0 -0.55496680431E+00  0.45878048437E+00  0.93505979863E+00  0.11801713917E+01  0.00000000000E+00 0. -1.
         11    1    3    3    0    0 -0.53772808019E+01 -0.18137782809E+02 -0.10012098988E+02  0.21404122044E+02  0.51100000000E-03 0. -1.
        -11    1    3    3    0    0  0.33818497035E+02  0.48750137375E+01 -0.55409603797E+01  0.34614429691E+02  0.51100000000E-03 0.  1.
         12    1    3    3    0    0 -0.27886249429E+02  0.12803988587E+02  0.14617999569E+02  0.33989276873E+02  0.00000000000E+00 0. -1.
</event>
<event>
 7    1  0.2090370E-015  0.9000769E+02  0.7816164E-02  0.1186339E+00
        -11   -1    0    0    0    0  0.00000000000E+00  0.00000000000E+00  0.45593999997E+02  0.45594000000E+02  0.51100000000E-03 0. -1.
         11   -1    0    0    0    0 -0.00000000000E+00 -0.00000000000E+00 -0.45593999997E+02  0.45594000000E+02  0.51100000000E-03 0.  1.
    9900012    2    1    2    0    0  0.72322238228E+00 -0.78788617504E+00 -0.49930635292E+00  0.90007694076E+02  0.89999954838E+02 0.  0.
         12    1    1    2    0    0 -0.72322238228E+00  0.78788617504E+00  0.49930635292E+00  0.11803059235E+01  0.00000000000E+00 0. -1.
         11    1    3    3    0    0 -0.17937249164E+01 -0.63484430603E+01 -0.60047434374E+01  0.89206010098E+01  0.51100000000E-03 0. -1.
        -11    1    3    3    0    0 -0.25170307697E+02 -0.26119769019E+02 -0.75156912884E+01  0.37044194403E+02  0.51100000000E-03 0.  1.
         12    1    3    3    0    0  0.27687254995E+02  0.31680325905E+02  0.13021128373E+02  0.44042898664E+02  0.00000000000E+00 0. -1.
</event>
<event>
 7    1  0.2090370E-015  0.9000803E+02  0.7816164E-02  0.1186338E+00
        -11   -1    0    0    0    0  0.00000000000E+00  0.00000000000E+00  0.45593999997E+02  0.45594000000E+02  0.51100000000E-03 0.  1.
         11   -1    0    0    0    0 -0.00000000000E+00 -0.00000000000E+00 -0.45593999997E+02  0.45594000000E+02  0.51100000000E-03 0. -1.
    9900012    2    1    2    0    0 -0.69743684521E+00 -0.90237762171E+00  0.30268953259E+00  0.90008032001E+02  0.90000297223E+02 0.  0.
         12    1    1    2    0    0  0.69743684521E+00  0.90237762171E+00 -0.30268953259E+00  0.11799679989E+01  0.00000000000E+00 0. -1.
         11    1    3    3    0    0 -0.38494497450E+02  0.19119406752E+01 -0.85287935379E+00  0.38551384600E+02  0.51100000000E-03 0. -1.
        -11    1    3    3    0    0 -0.12990950835E+01  0.11453374816E+01 -0.10363295388E+02  0.10507013731E+02  0.51100000000E-03 0.  1.
        -12    1    3    3    0    0  0.39096155689E+02 -0.39596557785E+01  0.11518864275E+02  0.40949633670E+02  0.00000000000E+00 0.  1.
</event>
<event>
 7    1  0.2090370E-015  0.9000772E+02  0.7816164E-02  0.1186339E+00
        -11   -1    0    0    0    0  0.00000000000E+00  0.00000000000E+00  0.45593999997E+02  0.45594000000E+02  0.51100000000E-03 0.  1.
         11   -1    0    0    0    0 -0.00000000000E+00 -0.00000000000E+00 -0.45593999997E+02  0.45594000000E+02  0.51100000000E-03 0. -1.
    9900012    2    1    2    0    0  0.86276436136E+00 -0.70244854232E+00  0.39403238620E+00  0.90007721296E+02  0.89999982417E+02 0.  0.
         12    1    1    2    0    0 -0.86276436136E+00  0.70244854232E+00 -0.39403238620E+00  0.11802787040E+01  0.00000000000E+00 0. -1.
         11    1    3    3    0    0 -0.11201762290E+00  0.70637876414E+01 -0.39352667498E+01  0.80867773831E+01  0.51100000000E-03 0. -1.
        -11    1    3    3    0    0  0.31946839207E+02  0.21904467330E+02  0.47717278434E+01  0.39027882484E+02  0.51100000000E-03 0.  1.
         12    1    3    3    0    0 -0.30972057223E+02 -0.29670703513E+02 -0.44242870734E+00  0.42893061429E+02  0.00000000000E+00 0. -1.
</event>
<event>
 7    1  0.2090370E-015  0.9000781E+02  0.7816164E-02  0.1186339E+00
        -11   -1    0    0    0    0  0.00000000000E+00  0.00000000000E+00  0.45593999997E+02  0.45594000000E+02  0.51100000000E-03 0.  1.
         11   -1    0    0    0    0 -0.00000000000E+00 -0.00000000000E+00 -0.45593999997E+02  0.45594000000E+02  0.51100000000E-03 0. -1.
    9900012    2    1    2    0    0  0.89631949927E+00 -0.69798643120E+00  0.31981250632E+00  0.90007807752E+02  0.90000070014E+02 0.  0.
         12    1    1    2    0    0 -0.89631949927E+00  0.69798643120E+00 -0.31981250632E+00  0.11801922479E+01  0.00000000000E+00 0. -1.
         11    1    3    3    0    0 -0.96314953004E+01 -0.16614197238E+00  0.50364827955E+01  0.10870117943E+02  0.51100000000E-03 0. -1.
        -11    1    3    3    0    0 -0.13588830586E+02  0.30547062309E+02  0.13157300393E+02  0.35929011763E+02  0.51100000000E-03 0.  1.
         12    1    3    3    0    0  0.24116645385E+02 -0.31078906768E+02 -0.17873970682E+02  0.43208678046E+02  0.00000000000E+00 0. -1.
</event>
<event>
 7    1  0.2090370E-015  0.9000772E+02  0.7816164E-02  0.1186339E+00
        -11   -1    0    0    0    0  0.00000000000E+00  0.00000000000E+00  0.45593999997E+02  0.45594000000E+02  0.51100000000E-03 0. -1.
         11   -1    0    0    0    0 -0.00000000000E+00 -0.00000000000E+00 -0.45593999997E+02  0.45594000000E+02  0.51100000000E-03 0.  1.
    9900012    2    1    2    0    0  0.32536595910E+00 -0.96685645057E+00  0.59362160170E+00  0.90007719945E+02  0.89999981048E+02 0.  0.
         12    1    1    2    0    0 -0.32536595910E+00  0.96685645057E+00 -0.59362160170E+00  0.11802800555E+01  0.00000000000E+00 0. -1.
         11    1    3    3    0    0  0.89590676982E+00  0.10991046427E+02 -0.10088154146E+00  0.11027961183E+02  0.51100000000E-03 0. -1.
        -11    1    3    3    0    0  0.10151113679E+02 -0.18187021221E+02 -0.35257199345E+02  0.40949761363E+02  0.51100000000E-03 0.  1.
         12    1    3    3    0    0 -0.10721654490E+02  0.62291183437E+01  0.35951702488E+02  0.38029997398E+02  0.00000000000E+00 0. -1.
</event>
<event>
 7    1  0.2090370E-015  0.9000772E+02  0.7816164E-02  0.1186339E+00
        -11   -1    0    0    0    0  0.00000000000E+00  0.00000000000E+00  0.45593999997E+02  0.45594000000E+02  0.51100000000E-03 0. -1.
         11   -1    0    0    0    0 -0.00000000000E+00 -0.00000000000E+00 -0.45593999997E+02  0.45594000000E+02  0.51100000000E-03 0.  1.
    9900012    2    1    2    0    0 -0.32468447681E+00 -0.95338441379E+00 -0.61537653427E+00  0.90007724554E+02  0.89999985718E+02 0.  0.
         12    1    1    2    0    0  0.32468447681E+00  0.95338441379E+00  0.61537653427E+00  0.11802754462E+01  0.00000000000E+00 0. -1.
         11    1    3    3    0    0 -0.14436188859E+02 -0.44464722363E+01  0.12052751413E+02  0.19324685793E+02  0.51100000000E-03 0. -1.
        -11    1    3    3    0    0  0.28736071180E+02 -0.13638320735E+02 -0.28854338861E+02  0.42945761732E+02  0.51100000000E-03 0.  1.
         12    1    3    3    0    0 -0.14624566798E+02  0.17131408558E+02  0.16186210915E+02  0.27737277029E+02  0.00000000000E+00 0. -1.
</event>
<event>
 7    1  0.2090370E-015  0.9000774E+02  0.7816164E-02  0.1186339E+00
        -11   -1    0    0    0    0  0.00000000000E+00  0.00000000000E+00  0.45593999997E+02  0.45594000000E+02  0.51100000000E-03 0. -1.
         11   -1    0    0    0    0 -0.00000000000E+00 -0.00000000000E+00 -0.45593999997E+02  0.45594000000E+02  0.51100000000E-03 0.  1.
    9900012    2    1    2    0    0 -0.27045798547E+00  0.59283674507E+00 -0.98407750033E+00  0.90007740937E+02  0.90000002318E+02 0.  0.
         12    1    1    2    0    0  0.27045798547E+00 -0.59283674507E+00  0.98407750033E+00  0.11802590626E+01  0.00000000000E+00 0. -1.
         11    1    3    3    0    0 -0.24029930854E+02 -0.27135132289E+02 -0.65481675499E+01  0.36832478599E+02  0.51100000000E-03 0. -1.
        -11    1    3    3    0    0  0.12831333559E+01 -0.88281690165E+01 -0.30078812670E+01  0.94143693029E+01  0.51100000000E-03 0.  1.
        -12    1    3    3    0    0  0.22476339512E+02  0.36556138051E+02  0.85719713166E+01  0.43760893036E+02  0.00000000000E+00 0.  1.
</event>
<event>
 7    1  0.2090370E-015  0.9000773E+02  0.7816164E-02  0.1186339E+00
        -11   -1    0    0    0    0  0.00000000000E+00  0.00000000000E+00  0.45593999997E+02  0.45594000000E+02  0.51100000000E-03 0. -1.
         11   -1    0    0    0    0 -0.00000000000E+00 -0.00000000000E+00 -0.45593999997E+02  0.45594000000E+02  0.51100000000E-03 0.  1.
    9900012    2    1    2    0    0  0.80490211948E+00  0.84573336908E+00 -0.17294683440E+00  0.90007727590E+02  0.89999988795E+02 0.  0.
         12    1    1    2    0    0 -0.80490211948E+00 -0.84573336908E+00  0.17294683440E+00  0.11802724097E+01  0.00000000000E+00 0. -1.
         11    1    3    3    0    0  0.94536991460E+01 -0.93367500978E+00 -0.10633028624E+01  0.95590161526E+01  0.51100000000E-03 0. -1.
        -11    1    3    3    0    0  0.25977005605E+02  0.26363005998E+02  0.66208888474E+01  0.37598524902E+02  0.51100000000E-03 0.  1.
         12    1    3    3    0    0 -0.34625802631E+02 -0.24583597619E+02 -0.57305328195E+01  0.42850186536E+02  0.00000000000E+00 0. -1.
</event>
<event>
 7    1  0.2090370E-015  0.9000780E+02  0.7816164E-02  0.1186339E+00
        -11   -1    0    0    0    0  0.00000000000E+00  0.00000000000E+00  0.45593999997E+02  0.45594000000E+02  0.51100000000E-03 0.  1.
         11   -1    0    0    0    0 -0.00000000000E+00 -0.00000000000E+00 -0.45593999997E+02  0.45594000000E+02  0.51100000000E-03 0. -1.
    9900012    2    1    2    0    0 -0.24655880704E+00 -0.41960408966E+00  0.10751825848E+01  0.90007798141E+02  0.90000060276E+02 0.  0.
         12    1    1    2    0    0  0.24655880704E+00  0.41960408966E+00 -0.10751825848E+01  0.11802018590E+01  0.00000000000E+00 0. -1.
         11    1    3    3    0    0  0.22171054365E+02 -0.36400804274E+02 -0.10101967030E+01  0.42633258157E+02  0.51100000000E-03 0. -1.
        -11    1    3    3    0    0  0.14715629157E+01  0.66185357201E+01 -0.55463973853E+01  0.87597395344E+01  0.51100000000E-03 0.  1.
        -12    1    3    3    0    0 -0.23889176088E+02  0.29362664464E+02  0.76317766732E+01  0.38614800450E+02  0.00000000000E+00 0.  1.
</event>
<event>
 7    1  0.2090370E-015  0.9000770E+02  0.7816164E-02  0.1186339E+00
        -11   -1    0    0    0    0  0.00000000000E+00  0.00000000000E+00  0.45593999997E+02  0.45594000000E+02  0.51100000000E-03 0.  1.
         11   -1    0    0    0    0 -0.00000000000E+00 -0.00000000000E+00 -0.45593999997E+02  0.45594000000E+02  0.51100000000E-03 0. -1.
    9900012    2    1    2    0    0 -0.11701757087E+01 -0.12771252712E+00  0.86584790610E-01  0.90007695546E+02  0.89999956327E+02 0.  0.
         12    1    1    2    0    0  0.11701757087E+01  0.12771252712E+00 -0.86584790610E-01  0.11803044543E+01  0.00000000000E+00 0. -1.
         11    1    3    3    0    0  0.17157848151E+02 -0.36489597953E+02 -0.91644110555E+01  0.41350561570E+02  0.51100000000E-03 0. -1.
        -11    1    3    3    0    0  0.52445150603E+01  0.11095106770E+02 -0.17422316942E+01  0.12395229082E+02  0.51100000000E-03 0.  1.
        -12    1    3    3    0    0 -0.23572538920E+02  0.25266778655E+02  0.10993227540E+02  0.36261904893E+02  0.00000000000E+00 0.  1.
</event>
<event>
 7    1  0.2090370E-015  0.9000773E+02  0.7816164E-02  0.1186339E+00
        -11   -1    0    0    0    0  0.00000000000E+00  0.00000000000E+00  0.45593999997E+02  0.45594000000E+02  0.51100000000E-03 0.  1.
         11   -1    0    0    0    0 -0.00000000000E+00 -0.00000000000E+00 -0.45593999997E+02  0.45594000000E+02  0.51100000000E-03 0. -1.
    9900012    2    1    2    0    0  0.40820678988E+00  0.94496037222E+00 -0.57746351541E+00  0.90007725879E+02  0.89999987061E+02 0.  0.
         12    1    1    2    0    0 -0.40820678988E+00 -0.94496037222E+00  0.57746351541E+00  0.11802741207E+01  0.00000000000E+00 0. -1.
         11    1    3    3    0    0  0.11308822561E+02  0.28624258891E+02 -0.19994665078E+02  0.36701829608E+02  0.51100000000E-03 0. -1.
        -11    1    3    3    0    0 -0.22302744153E+01  0.86433686587E+01 -0.33903837358E+01  0.95486463897E+01  0.51100000000E-03 0.  1.
        -12    1    3    3    0    0 -0.86703413556E+01 -0.36322667177E+02  0.22807585298E+02  0.43757249882E+02  0.00000000000E+00 0.  1.
</event>
<event>
 7    1  0.2090370E-015  0.9000776E+02  0.7816164E-02  0.1186339E+00
        -11   -1    0    0    0    0  0.00000000000E+00  0.00000000000E+00  0.45593999997E+02  0.45594000000E+02  0.51100000000E-03 0. -1.
         11   -1    0    0    0    0 -0.00000000000E+00 -0.00000000000E+00 -0.45593999997E+02  0.45594000000E+02  0.51100000000E-03 0.  1.
    9900012    2    1    2    0    0  0.17699989579E+00 -0.25600439723E+00 -0.11384674738E+01  0.90007756210E+02  0.90000017792E+02 0.  0.
         12    1    1    2    0    0 -0.17699989579E+00  0.25600439723E+00  0.11384674738E+01  0.11802437898E+01  0.00000000000E+00 0. -1.
         11    1    3    3    0    0 -0.24053382194E+01 -0.50984515288E+01 -0.50236920936E+01  0.75509828800E+01  0.51100000000E-03 0. -1.
        -11    1    3    3    0    0  0.21929780847E+02 -0.10694030791E+02 -0.31123128102E+02  0.39546512940E+02  0.51100000000E-03 0.  1.
         12    1    3    3    0    0 -0.19347442732E+02  0.15536477922E+02  0.35008352722E+02  0.42910260391E+02  0.00000000000E+00 0. -1.
</event>
<event>
 7    1  0.2090370E-015  0.9000770E+02  0.7816164E-02  0.1186339E+00
        -11   -1    0    0    0    0  0.00000000000E+00  0.00000000000E+00  0.45593999997E+02  0.45594000000E+02  0.51100000000E-03 0. -1.
         11   -1    0    0    0    0 -0.00000000000E+00 -0.00000000000E+00 -0.45593999997E+02  0.45594000000E+02  0.51100000000E-03 0.  1.
    9900012    2    1    2    0    0  0.43234128490E+00 -0.52298207252E+00 -0.96575319275E+00  0.90007699842E+02  0.89999960679E+02 0.  0.
         12    1    1    2    0    0 -0.43234128490E+00  0.52298207252E+00  0.96575319275E+00  0.11803001585E+01  0.00000000000E+00 0. -1.
         11    1    3    3    0    0 -0.59015769258E+01 -0.36793012660E+01  0.94520314243E+01  0.11734852633E+02  0.51100000000E-03 0. -1.
        -11    1    3    3    0    0 -0.26731775570E+02 -0.20043303284E+02  0.72440160583E+01  0.34187682001E+02  0.51100000000E-03 0.  1.
         12    1    3    3    0    0  0.33065693781E+02  0.23199622478E+02 -0.17661800675E+02  0.44085165208E+02  0.00000000000E+00 0. -1.
</event>
<event>
 7    1  0.2090370E-015  0.9000757E+02  0.7816164E-02  0.1186339E+00
        -11   -1    0    0    0    0  0.00000000000E+00  0.00000000000E+00  0.45593999997E+02  0.45594000000E+02  0.51100000000E-03 0.  1.
         11   -1    0    0    0    0 -0.00000000000E+00 -0.00000000000E+00 -0.45593999997E+02  0.45594000000E+02  0.51100000000E-03 0. -1.
    9900012    2    1    2    0    0  0.85607438343E+00  0.55595153923E+00  0.59285667445E+00  0.90007565969E+02  0.89999825040E+02 0.  0.
         12    1    1    2    0    0 -0.85607438343E+00 -0.55595153923E+00 -0.59285667445E+00  0.11804340305E+01  0.00000000000E+00 0. -1.
         11    1    3    3    0    0  0.28691984059E+02 -0.24007772988E+02 -0.28356056972E+01  0.37518579037E+02  0.51100000000E-03 0. -1.
        -11    1    3    3    0    0  0.52104544614E+01 -0.23395876063E+01  0.77834259788E+01  0.96542335838E+01  0.51100000000E-03 0.  1.
        -12    1    3    3    0    0 -0.33046364137E+02  0.26903312133E+02 -0.43549636072E+01  0.42834753348E+02  0.00000000000E+00 0.  1.
</event>
<event>
 7    1  0.2090370E-015  0.9000774E+02  0.7816164E-02  0.1186339E+00
        -11   -1    0    0    0    0  0.00000000000E+00  0.00000000000E+00  0.45593999997E+02  0.45594000000E+02  0.51100000000E-03 0.  1.
         11   -1    0    0    0    0 -0.00000000000E+00 -0.00000000000E+00 -0.45593999997E+02  0.45594000000E+02  0.51100000000E-03 0. -1.
    9900012    2    1    2    0    0  0.77877417419E-01  0.19559367404E+00  0.11613276098E+01  0.90007744267E+02  0.90000005692E+02 0.  0.
         12    1    1    2    0    0 -0.77877417419E-01 -0.19559367404E+00 -0.11613276098E+01  0.11802557327E+01  0.00000000000E+00 0. -1.
         11    1    3    3    0    0  0.36211578646E+01  0.20979998191E+01 -0.78525814182E+01  0.88981696271E+01  0.51100000000E-03 0. -1.
        -11    1    3    3    0    0 -0.56932815545E+01 -0.31812411939E+02  0.30327761022E+02  0.44319477627E+02  0.51100000000E-03 0.  1.
         12    1    3    3    0    0  0.21500011073E+01  0.29910005794E+02 -0.21313851994E+02  0.36790097013E+02  0.00000000000E+00 0. -1.
</event>
<event>
 7    1  0.2090370E-015  0.9000776E+02  0.7816164E-02  0.1186339E+00
        -11   -1    0    0    0    0  0.00000000000E+00  0.00000000000E+00  0.45593999997E+02  0.45594000000E+02  0.51100000000E-03 0. -1.
         11   -1    0    0    0    0 -0.00000000000E+00 -0.00000000000E+00 -0.45593999997E+02  0.45594000000E+02  0.51100000000E-03 0.  1.
    9900012    2    1    2    0    0 -0.37149189014E+00  0.67028635717E+00 -0.89758899619E+00  0.90007764417E+02  0.90000026107E+02 0.  0.
         12    1    1    2    0    0  0.37149189014E+00 -0.67028635717E+00  0.89758899619E+00  0.11802355829E+01  0.00000000000E+00 0. -1.
         11    1    3    3    0    0  0.17646446600E+02 -0.26679596472E+02 -0.16892696714E+02  0.36174039698E+02  0.51100000000E-03 0. -1.
        -11    1    3    3    0    0 -0.58027354642E+01 -0.62609886100E+01 -0.72344515732E+01  0.11189683064E+02  0.51100000000E-03 0.  1.
        -12    1    3    3    0    0 -0.12215203026E+02  0.33610871439E+02  0.23229559292E+02  0.42644041656E+02  0.00000000000E+00 0.  1.
</event>
<event>
 7    1  0.2090370E-015  0.9000773E+02  0.7816164E-02  0.1186339E+00
        -11   -1    0    0    0    0  0.00000000000E+00  0.00000000000E+00  0.45593999997E+02  0.45594000000E+02  0.51100000000E-03 0.  1.
         11   -1    0    0    0    0 -0.00000000000E+00 -0.00000000000E+00 -0.45593999997E+02  0.45594000000E+02  0.51100000000E-03 0. -1.
    9900012    2    1    2    0    0 -0.32352853352E+00  0.27345922491E+00  0.11016261885E+01  0.90007732692E+02  0.89999993963E+02 0.  0.
         12    1    1    2    0    0  0.32352853352E+00 -0.27345922491E+00 -0.11016261885E+01  0.11802673083E+01  0.00000000000E+00 0. -1.
         11    1    3    3    0    0  0.53346743688E+01  0.58468836899E+01 -0.49596699667E+01  0.93404028791E+01  0.51100000000E-03 0. -1.
        -11    1    3    3    0    0  0.29213423483E+01  0.42326326242E+01  0.42065147166E+02  0.42378367435E+02  0.51100000000E-03 0.  1.
         12    1    3    3    0    0 -0.85795452506E+01 -0.98060570892E+01 -0.36003851011E+02  0.38288962378E+02  0.00000000000E+00 0. -1.
</event>
<event>
 7    1  0.2090370E-015  0.9000796E+02  0.7816164E-02  0.1186339E+00
        -11   -1    0    0    0    0  0.00000000000E+00  0.00000000000E+00  0.45593999997E+02  0.45594000000E+02  0.51100000000E-03 0. -1.
         11   -1    0    0    0    0 -0.00000000000E+00 -0.00000000000E+00 -0.45593999997E+02  0.45594000000E+02  0.51100000000E-03 0.  1.
    9900012    2    1    2    0    0 -0.20848607699E+00 -0.56598153275E+00 -0.10142505416E+01  0.90007955212E+02  0.90000219421E+02 0.  0.
         12    1    1    2    0    0  0.20848607699E+00  0.56598153275E+00  0.10142505416E+01  0.11800447877E+01  0.00000000000E+00 0. -1.
         11    1    3    3    0    0  0.20771841486E+01  0.96485038805E+01 -0.41192422087E+01  0.10694693907E+02  0.51100000000E-03 0. -1.
        -11    1    3    3    0    0 -0.30167184543E+02  0.21244077942E+02 -0.20991264948E+01  0.36956409500E+02  0.51100000000E-03 0.  1.
         12    1    3    3    0    0  0.27881514318E+02 -0.31458563355E+02  0.52041181619E+01  0.42356851805E+02  0.00000000000E+00 0. -1.
</event>
<event>
 7    1  0.2090370E-015  0.9000797E+02  0.7816164E-02  0.1186339E+00
        -11   -1    0    0    0    0  0.00000000000E+00  0.00000000000E+00  0.45593999997E+02  0.45594000000E+02  0.51100000000E-03 0.  1.
         11   -1    0    0    0    0 -0.00000000000E+00 -0.00000000000E+00 -0.45593999997E+02  0.45594000000E+02  0.51100000000E-03 0. -1.
    9900012    2    1    2    0    0 -0.47305643028E-01 -0.65755556134E+00  0.97869920889E+00  0.90007970644E+02  0.90000235056E+02 0.  0.
         12    1    1    2    0    0  0.47305643028E-01  0.65755556134E+00 -0.97869920889E+00  0.11800293562E+01  0.00000000000E+00 0. -1.
         11    1    3    3    0    0 -0.15670021139E+02  0.89534931156E+00 -0.31616370153E+01  0.16010845130E+02  0.51100000000E-03 0. -1.
        -11    1    3    3    0    0  0.12018736187E+02 -0.32310099642E+02  0.19310779818E+02  0.39513273413E+02  0.51100000000E-03 0.  1.
         12    1    3    3    0    0  0.36039793090E+01  0.30757194769E+02 -0.15170443593E+02  0.34483852101E+02  0.00000000000E+00 0. -1.
</event>
<event>
 7    1  0.2090370E-015  0.9000779E+02  0.7816164E-02  0.1186339E+00
        -11   -1    0    0    0    0  0.00000000000E+00  0.00000000000E+00  0.45593999997E+02  0.45594000000E+02  0.51100000000E-03 0. -1.
         11   -1    0    0    0    0 -0.00000000000E+00 -0.00000000000E+00 -0.45593999997E+02  0.45594000000E+02  0.51100000000E-03 0.  1.
    9900012    2    1    2    0    0 -0.22001290046E+00  0.11046837621E+01 -0.35237816892E+00  0.90007787195E+02  0.90000049186E+02 0.  0.
         12    1    1    2    0    0  0.22001290046E+00 -0.11046837621E+01  0.35237816892E+00  0.11802128047E+01  0.00000000000E+00 0. -1.
         11    1    3    3    0    0  0.11493899852E+02 -0.11875410030E+01  0.70421959346E+00  0.11576524217E+02  0.51100000000E-03 0. -1.
        -11    1    3    3    0    0  0.28238346752E+02  0.16686211113E+02 -0.11398411164E+02  0.34724021165E+02  0.51100000000E-03 0.  1.
         12    1    3    3    0    0 -0.39952259504E+02 -0.14393986348E+02  0.10341813401E+02  0.43707241813E+02  0.00000000000E+00 0. -1.
</event>
<event>
 7    1  0.2090370E-015  0.9000774E+02  0.7816164E-02  0.1186339E+00
        -11   -1    0    0    0    0  0.00000000000E+00  0.00000000000E+00  0.45593999997E+02  0.45594000000E+02  0.51100000000E-03 0.  1.
         11   -1    0    0    0    0 -0.00000000000E+00 -0.00000000000E+00 -0.45593999997E+02  0.45594000000E+02  0.51100000000E-03 0. -1.
    9900012    2    1    2    0    0 -0.85930089199E+00  0.44368987528E+00  0.67657642479E+00  0.90007739695E+02  0.90000001059E+02 0.  0.
         12    1    1    2    0    0  0.85930089199E+00 -0.44368987528E+00 -0.67657642479E+00  0.11802603048E+01  0.00000000000E+00 0. -1.
         11    1    3    3    0    0 -0.99107266762E+01  0.23291094461E+02 -0.17059267196E+02  0.30524026306E+02  0.51100000000E-03 0. -1.
        -11    1    3    3    0    0 -0.87586369322E-01  0.73187252259E+01 -0.13342893453E+02  0.15218548428E+02  0.51100000000E-03 0.  1.
        -12    1    3    3    0    0  0.91390121535E+01 -0.30166129811E+02  0.31078737073E+02  0.44265164961E+02  0.00000000000E+00 0.  1.
</event>
<event>
 7    1  0.2090370E-015  0.9000765E+02  0.7816164E-02  0.1186339E+00
        -11   -1    0    0    0    0  0.00000000000E+00  0.00000000000E+00  0.45593999997E+02  0.45594000000E+02  0.51100000000E-03 0. -1.
         11   -1    0    0    0    0 -0.00000000000E+00 -0.00000000000E+00 -0.45593999997E+02  0.45594000000E+02  0.51100000000E-03 0.  1.
    9900012    2    1    2    0    0  0.11374380170E+01 -0.30374848273E+00 -0.84830362067E-01  0.90007650656E+02  0.89999910845E+02 0.  0.
         12    1    1    2    0    0 -0.11374380170E+01  0.30374848273E+00  0.84830362067E-01  0.11803493439E+01  0.00000000000E+00 0. -1.
         11    1    3    3    0    0  0.67113089200E+01 -0.80655203426E+01 -0.46441011637E+01  0.11474404634E+02  0.51100000000E-03 0. -1.
        -11    1    3    3    0    0  0.18654789699E+02 -0.84011322280E+01 -0.28109452548E+02  0.34766672608E+02  0.51100000000E-03 0.  1.
         12    1    3    3    0    0 -0.24228660602E+02  0.16162904088E+02  0.32668723350E+02  0.43766573414E+02  0.00000000000E+00 0. -1.
</event>
<event>
 7    1  0.2090370E-015  0.9000775E+02  0.7816164E-02  0.1186339E+00
        -11   -1    0    0    0    0  0.00000000000E+00  0.00000000000E+00  0.45593999997E+02  0.45594000000E+02  0.51100000000E-03 0. -1.
         11   -1    0    0    0    0 -0.00000000000E+00 -0.00000000000E+00 -0.45593999997E+02  0.45594000000E+02  0.51100000000E-03 0.  1.
    9900012    2    1    2    0    0  0.56129839709E+00 -0.10358218162E+01  0.70708476147E-01  0.90007753240E+02  0.90000014783E+02 0.  0.
         12    1    1    2    0    0 -0.56129839709E+00  0.10358218162E+01 -0.70708476147E-01  0.11802467598E+01  0.00000000000E+00 0. -1.
         11    1    3    3    0    0 -0.58787104127E+01  0.23281794183E+00 -0.51511593253E+01  0.78197111817E+01  0.51100000000E-03 0. -1.
        -11    1    3    3    0    0  0.84004041851E+01  0.31110826947E+02 -0.22675392207E+02  0.39403347013E+02  0.51100000000E-03 0.  1.
         12    1    3    3    0    0 -0.19603953753E+01 -0.32379466705E+02  0.27897260008E+02  0.42784695045E+02  0.00000000000E+00 0. -1.
</event>
<event>
 7    1  0.2090370E-015  0.9000800E+02  0.7816164E-02  0.1186339E+00
        -11   -1    0    0    0    0  0.00000000000E+00  0.00000000000E+00  0.45593999997E+02  0.45594000000E+02  0.51100000000E-03 0.  1.
         11   -1    0    0    0    0 -0.00000000000E+00 -0.00000000000E+00 -0.45593999997E+02  0.45594000000E+02  0.51100000000E-03 0. -1.
    9900012    2    1    2    0    0 -0.61067350209E+00 -0.97673914019E-01  0.10049538658E+01  0.90008002292E+02  0.90000267121E+02 0.  0.
         12    1    1    2    0    0  0.61067350209E+00  0.97673914019E-01 -0.10049538658E+01  0.11799977085E+01  0.00000000000E+00 0. -1.
         11    1    3    3    0    0  0.79310470240E+01 -0.80594521801E+00 -0.50374239377E+01  0.94300951629E+01  0.51100000000E-03 0. -1.
        -11    1    3    3    0    0  0.24384460467E+02 -0.74121406589E+00  0.30847473741E+02  0.39328335167E+02  0.51100000000E-03 0.  1.
         12    1    3    3    0    0 -0.32926180993E+02  0.14494853699E+01 -0.24805095937E+02  0.41249571962E+02  0.00000000000E+00 0. -1.
</event>
<event>
 7    1  0.2090370E-015  0.9000765E+02  0.7816164E-02  0.1186339E+00
        -11   -1    0    0    0    0  0.00000000000E+00  0.00000000000E+00  0.45593999997E+02  0.45594000000E+02  0.51100000000E-03 0.  1.
         11   -1    0    0    0    0 -0.00000000000E+00 -0.00000000000E+00 -0.45593999997E+02  0.45594000000E+02  0.51100000000E-03 0. -1.
    9900012    2    1    2    0    0 -0.50869517239E+00 -0.74837677930E+00  0.75788238503E+00  0.90007650776E+02  0.89999910966E+02 0.  0.
         12    1    1    2    0    0  0.50869517239E+00  0.74837677930E+00 -0.75788238503E+00  0.11803492245E+01  0.00000000000E+00 0. -1.
         11    1    3    3    0    0 -0.28919847609E+02  0.22918390762E+02  0.75055932499E+01  0.37655599200E+02  0.51100000000E-03 0. -1.
        -11    1    3    3    0    0  0.10765239333E+00  0.50531109494E+01  0.79614442461E+01  0.94302764567E+01  0.51100000000E-03 0.  1.
        -12    1    3    3    0    0  0.28303500043E+02 -0.28719878491E+02 -0.14709155111E+02  0.42921775118E+02  0.00000000000E+00 0.  1.
</event>
<event>
 7    1  0.2090370E-015  0.9000770E+02  0.7816164E-02  0.1186339E+00
        -11   -1    0    0    0    0  0.00000000000E+00  0.00000000000E+00  0.45593999997E+02  0.45594000000E+02  0.51100000000E-03 0. -1.
         11   -1    0    0    0    0 -0.00000000000E+00 -0.00000000000E+00 -0.45593999997E+02  0.45594000000E+02  0.51100000000E-03 0.  1.
    9900012    2    1    2    0    0  0.51573147998E+00 -0.72841776706E+00 -0.77235690366E+00  0.90007700636E+02  0.89999961484E+02 0.  0.
         12    1    1    2    0    0 -0.51573147998E+00  0.72841776706E+00  0.77235690366E+00  0.11802993643E+01  0.00000000000E+00 0. -1.
         11    1    3    3    0    0 -0.17461127367E+01 -0.87401163565E+01  0.62341420518E+01  0.10876721519E+02  0.51100000000E-03 0. -1.
        -11    1    3    3    0    0  0.35857349589E+02 -0.50521572569E+01  0.12295752583E+02  0.38242114799E+02  0.51100000000E-03 0.  1.
         12    1    3    3    0    0 -0.33595505372E+02  0.13063855846E+02 -0.19302251538E+02  0.40888864318E+02  0.00000000000E+00 0. -1.
</event>
<event>
 7    1  0.2090370E-015  0.9000766E+02  0.7816164E-02  0.1186339E+00
        -11   -1    0    0    0    0  0.00000000000E+00  0.00000000000E+00  0.45593999997E+02  0.45594000000E+02  0.51100000000E-03 0.  1.
         11   -1    0    0    0    0 -0.00000000000E+00 -0.00000000000E+00 -0.45593999997E+02  0.45594000000E+02  0.51100000000E-03 0. -1.
    9900012    2    1    2    0    0  0.68530949983E+00  0.43838623053E+00  0.85520132793E+00  0.90007660681E+02  0.89999921002E+02 0.  0.
         12    1    1    2    0    0 -0.68530949983E+00 -0.43838623053E+00 -0.85520132793E+00  0.11803393194E+01  0.00000000000E+00 0. -1.
         11    1    3    3    0    0 -0.13652697727E+02 -0.27686085322E+02  0.11106129014E+02  0.32806425859E+02  0.51100000000E-03 0. -1.
        -11    1    3    3    0    0 -0.13210442852E+02 -0.80355090412E+00 -0.11057696824E+02  0.17246279416E+02  0.51100000000E-03 0.  1.
        -12    1    3    3    0    0  0.27548450078E+02  0.28928022457E+02  0.80676913789E+00  0.39954955405E+02  0.00000000000E+00 0.  1.
</event>
<event>
 7    1  0.2090370E-015  0.9000770E+02  0.7816164E-02  0.1186339E+00
        -11   -1    0    0    0    0  0.00000000000E+00  0.00000000000E+00  0.45593999997E+02  0.45594000000E+02  0.51100000000E-03 0.  1.
         11   -1    0    0    0    0 -0.00000000000E+00 -0.00000000000E+00 -0.45593999997E+02  0.45594000000E+02  0.51100000000E-03 0. -1.
    9900012    2    1    2    0    0 -0.10831010730E+00 -0.11503998115E+01  0.24073829724E+00  0.90007700998E+02  0.89999961851E+02 0.  0.
         12    1    1    2    0    0  0.10831010730E+00  0.11503998115E+01 -0.24073829724E+00  0.11802990017E+01  0.00000000000E+00 0. -1.
         11    1    3    3    0    0 -0.27159863708E+01 -0.37206523229E+02 -0.39084362200E+01  0.37509703101E+02  0.51100000000E-03 0. -1.
        -11    1    3    3    0    0  0.26826880090E+01 -0.75869053118E+01  0.36889598292E+01  0.88524782996E+01  0.51100000000E-03 0.  1.
        -12    1    3    3    0    0 -0.75011745490E-01  0.43643028729E+02  0.46021468807E+00  0.43645519598E+02  0.00000000000E+00 0.  1.
</event>
<event>
 7    1  0.2090370E-015  0.9000709E+02  0.7816164E-02  0.1186340E+00
        -11   -1    0    0    0    0  0.00000000000E+00  0.00000000000E+00  0.45593999997E+02  0.45594000000E+02  0.51100000000E-03 0.  1.
         11   -1    0    0    0    0 -0.00000000000E+00 -0.00000000000E+00 -0.45593999997E+02  0.45594000000E+02  0.51100000000E-03 0. -1.
    9900012    2    1    2    0    0  0.35509475360E+00  0.53646349879E-01  0.11249774318E+01  0.90007091690E+02  0.89999344498E+02 0.  0.
         12    1    1    2    0    0 -0.35509475360E+00 -0.53646349879E-01 -0.11249774318E+01  0.11809083102E+01  0.00000000000E+00 0. -1.
         11    1    3    3    0    0 -0.38806507094E-01 -0.37278498091E+01 -0.92847105843E+01  0.10005209695E+02  0.51100000000E-03 0. -1.
        -11    1    3    3    0    0 -0.35044610018E+02 -0.15160398170E+02  0.11262776654E+02  0.39809703619E+02  0.51100000000E-03 0.  1.
         12    1    3    3    0    0  0.35438511279E+02  0.18941894329E+02 -0.85308863807E+00  0.40192178376E+02  0.00000000000E+00 0. -1.
</event>
<event>
 7    1  0.2090370E-015  0.9000770E+02  0.7816164E-02  0.1186339E+00
        -11   -1    0    0    0    0  0.00000000000E+00  0.00000000000E+00  0.45593999997E+02  0.45594000000E+02  0.51100000000E-03 0.  1.
         11   -1    0    0    0    0 -0.00000000000E+00 -0.00000000000E+00 -0.45593999997E+02  0.45594000000E+02  0.51100000000E-03 0. -1.
    9900012    2    1    2    0    0 -0.91216830536E+00  0.73215027708E+00 -0.15814380124E+00  0.90007701518E+02  0.89999962378E+02 0.  0.
         12    1    1    2    0    0  0.91216830536E+00 -0.73215027708E+00  0.15814380124E+00  0.11802984823E+01  0.00000000000E+00 0. -1.
         11    1    3    3    0    0  0.36389195163E+01  0.62779944557E+01 -0.35903711426E+02  0.36629652524E+02  0.51100000000E-03 0. -1.
        -11    1    3    3    0    0  0.67448046089E+01  0.11265873067E+01 -0.63216007827E+01  0.93125842218E+01  0.51100000000E-03 0.  1.
        -12    1    3    3    0    0 -0.11295892431E+02 -0.66724314854E+01  0.42067168407E+02  0.44065464772E+02  0.00000000000E+00 0.  1.
</event>
<event>
 7    1  0.2090370E-015  0.9000769E+02  0.7816164E-02  0.1186339E+00
        -11   -1    0    0    0    0  0.00000000000E+00  0.00000000000E+00  0.45593999997E+02  0.45594000000E+02  0.51100000000E-03 0.  1.
         11   -1    0    0    0    0 -0.00000000000E+00 -0.00000000000E+00 -0.45593999997E+02  0.45594000000E+02  0.51100000000E-03 0. -1.
    9900012    2    1    2    0    0  0.83884197835E+00  0.81064037473E+00 -0.17984058916E+00  0.90007688042E+02  0.89999948724E+02 0.  0.
         12    1    1    2    0    0 -0.83884197835E+00 -0.81064037473E+00  0.17984058916E+00  0.11803119585E+01  0.00000000000E+00 0. -1.
         11    1    3    3    0    0  0.10376427183E+02 -0.86644781572E+01 -0.31409959968E+02  0.34195453035E+02  0.51100000000E-03 0. -1.
        -11    1    3    3    0    0  0.69758098762E+01  0.70305550305E+01 -0.82870670618E+01  0.12913795268E+02  0.51100000000E-03 0.  1.
        -12    1    3    3    0    0 -0.16513395081E+02  0.24445635014E+01  0.39517186441E+02  0.42898439739E+02  0.00000000000E+00 0.  1.
</event>
<event>
 7    1  0.2090370E-015  0.9000785E+02  0.7816164E-02  0.1186339E+00
        -11   -1    0    0    0    0  0.00000000000E+00  0.00000000000E+00  0.45593999997E+02  0.45594000000E+02  0.51100000000E-03 0. -1.
         11   -1    0    0    0    0 -0.00000000000E+00 -0.00000000000E+00 -0.45593999997E+02  0.45594000000E+02  0.51100000000E-03 0.  1.
    9900012    2    1    2    0    0 -0.35663315476E+00  0.70464720075E+00 -0.87694852814E+00  0.90007850177E+02  0.90000112999E+02 0.  0.
         12    1    1    2    0    0  0.35663315476E+00 -0.70464720075E+00  0.87694852814E+00  0.11801498234E+01  0.00000000000E+00 0. -1.
         11    1    3    3    0    0 -0.92385736547E+01 -0.71400217237E+01 -0.68739515957E+01  0.13549256961E+02  0.51100000000E-03 0. -1.
        -11    1    3    3    0    0  0.29077878709E+01  0.40919373082E+02 -0.44481846400E+01  0.41263018196E+02  0.51100000000E-03 0.  1.
         12    1    3    3    0    0  0.59741526290E+01 -0.33074704158E+02  0.10445187707E+02  0.35195575020E+02  0.00000000000E+00 0. -1.
</event>
<event>
 7    1  0.2090370E-015  0.9000775E+02  0.7816164E-02  0.1186339E+00
        -11   -1    0    0    0    0  0.00000000000E+00  0.00000000000E+00  0.45593999997E+02  0.45594000000E+02  0.51100000000E-03 0.  1.
         11   -1    0    0    0    0 -0.00000000000E+00 -0.00000000000E+00 -0.45593999997E+02  0.45594000000E+02  0.51100000000E-03 0. -1.
    9900012    2    1    2    0    0 -0.85475738597E+00 -0.75965330327E+00  0.29207806755E+00  0.90007748786E+02  0.90000010270E+02 0.  0.
         12    1    1    2    0    0  0.85475738597E+00  0.75965330327E+00 -0.29207806755E+00  0.11802512138E+01  0.00000000000E+00 0. -1.
         11    1    3    3    0    0  0.27068936029E+02 -0.23695542589E+02  0.19320505026E+02  0.40834886446E+02  0.51100000000E-03 0. -1.
        -11    1    3    3    0    0 -0.61993934948E+01 -0.63146881010E+01 -0.27523222228E+01  0.92673104726E+01  0.51100000000E-03 0.  1.
        -12    1    3    3    0    0 -0.21724299920E+02  0.29250577387E+02 -0.16276104736E+02  0.39905551868E+02  0.00000000000E+00 0.  1.
</event>
<event>
 7    1  0.2090370E-015  0.9000796E+02  0.7816164E-02  0.1186339E+00
        -11   -1    0    0    0    0  0.00000000000E+00  0.00000000000E+00  0.45593999997E+02  0.45594000000E+02  0.51100000000E-03 0. -1.
         11   -1    0    0    0    0 -0.00000000000E+00 -0.00000000000E+00 -0.45593999997E+02  0.45594000000E+02  0.51100000000E-03 0.  1.
    9900012    2    1    2    0    0  0.40980541901E+00  0.91142383555E+00  0.62757836052E+00  0.90007962506E+02  0.90000226810E+02 0.  0.
         12    1    1    2    0    0 -0.40980541901E+00 -0.91142383555E+00 -0.62757836052E+00  0.11800374943E+01  0.00000000000E+00 0. -1.
         11    1    3    3    0    0 -0.30470624247E+02 -0.19759238681E+02  0.92487128909E+00  0.36328251299E+02  0.51100000000E-03 0. -1.
        -11    1    3    3    0    0 -0.50180609977E+01 -0.25100424463E+01  0.83706840143E+01  0.10077182165E+02  0.51100000000E-03 0.  1.
        -12    1    3    3    0    0  0.35898490664E+02  0.23180704963E+02 -0.86679769429E+01  0.43602529042E+02  0.00000000000E+00 0.  1.
</event>
<event>
 7    1  0.2090370E-015  0.9000773E+02  0.7816164E-02  0.1186339E+00
        -11   -1    0    0    0    0  0.00000000000E+00  0.00000000000E+00  0.45593999997E+02  0.45594000000E+02  0.51100000000E-03 0.  1.
         11   -1    0    0    0    0 -0.00000000000E+00 -0.00000000000E+00 -0.45593999997E+02  0.45594000000E+02  0.51100000000E-03 0. -1.
    9900012    2    1    2    0    0  0.86697680243E+00 -0.55038823073E+00  0.58177376537E+00  0.90007730245E+02  0.89999991484E+02 0.  0.
         12    1    1    2    0    0 -0.86697680243E+00  0.55038823073E+00 -0.58177376537E+00  0.11802697550E+01  0.00000000000E+00 0. -1.
         11    1    3    3    0    0  0.44265557198E+01  0.11252846830E+02  0.92518394224E+01  0.15225553858E+02  0.51100000000E-03 0. -1.
        -11    1    3    3    0    0  0.69725322616E+01  0.13855222686E+01  0.30929403338E+02  0.31735845179E+02  0.51100000000E-03 0.  1.
         12    1    3    3    0    0 -0.10532111179E+02 -0.13188757330E+02 -0.39599468995E+02  0.43046331208E+02  0.00000000000E+00 0. -1.
</event>
<event>
 7    1  0.2090370E-015  0.9000765E+02  0.7816164E-02  0.1186339E+00
        -11   -1    0    0    0    0  0.00000000000E+00  0.00000000000E+00  0.45593999997E+02  0.45594000000E+02  0.51100000000E-03 0.  1.
         11   -1    0    0    0    0 -0.00000000000E+00 -0.00000000000E+00 -0.45593999997E+02  0.45594000000E+02  0.51100000000E-03 0. -1.
    9900012    2    1    2    0    0  0.13312518871E+00 -0.39553578536E+00  0.11041097195E+01  0.90007648719E+02  0.89999908882E+02 0.  0.
         12    1    1    2    0    0 -0.13312518871E+00  0.39553578536E+00 -0.11041097195E+01  0.11803512808E+01  0.00000000000E+00 0. -1.
         11    1    3    3    0    0  0.26988479824E+02  0.24069095458E+02  0.26155867661E+01  0.36256595176E+02  0.51100000000E-03 0. -1.
        -11    1    3    3    0    0  0.22161828129E+01  0.53829824097E+01  0.90564225241E+01  0.10765999957E+02  0.51100000000E-03 0.  1.
        -12    1    3    3    0    0 -0.29071537448E+02 -0.29847613654E+02 -0.10567899571E+02  0.42985053585E+02  0.00000000000E+00 0.  1.
</event>
<event>
 7    1  0.2292889E-015  0.9000769E+02  0.7816164E-02  0.1186339E+00
        -11   -1    0    0    0    0  0.00000000000E+00  0.00000000000E+00  0.45593999997E+02  0.45594000000E+02  0.51100000000E-03 0.  1.
         11   -1    0    0    0    0 -0.00000000000E+00 -0.00000000000E+00 -0.45593999997E+02  0.45594000000E+02  0.51100000000E-03 0. -1.
    9900012    2    1    2    0    0  0.38624065557E+00 -0.11145707652E+01 -0.40897145439E-01  0.90007693933E+02  0.89999954693E+02 0.  0.
         12    1    1    2    0    0 -0.38624065557E+00  0.11145707652E+01  0.40897145439E-01  0.11803060667E+01  0.00000000000E+00 0. -1.
         11    1    3    3    0    0  0.33852614539E+02 -0.17185164350E+02 -0.14214677637E+01  0.37991445823E+02  0.51100000000E-03 0. -1.
        -11    1    3    3    0    0  0.59556629309E+01  0.11834725911E+01 -0.67718948288E+01  0.90955532077E+01  0.51100000000E-03 0.  1.
        -12    1    3    3    0    0 -0.39422036814E+02  0.14887120994E+02  0.81524654471E+01  0.42920694903E+02  0.00000000000E+00 0.  1.
</event>
<event>
 7    1  0.2090370E-015  0.9000772E+02  0.7816164E-02  0.1186339E+00
        -11   -1    0    0    0    0  0.00000000000E+00  0.00000000000E+00  0.45593999997E+02  0.45594000000E+02  0.51100000000E-03 0. -1.
         11   -1    0    0    0    0 -0.00000000000E+00 -0.00000000000E+00 -0.45593999997E+02  0.45594000000E+02  0.51100000000E-03 0.  1.
    9900012    2    1    2    0    0  0.71334327193E-01 -0.11663910523E+01  0.16583614775E+00  0.90007721092E+02  0.89999982210E+02 0.  0.
         12    1    1    2    0    0 -0.71334327193E-01  0.11663910523E+01 -0.16583614775E+00  0.11802789081E+01  0.00000000000E+00 0. -1.
         11    1    3    3    0    0 -0.59135818178E+01 -0.64497838195E+01 -0.19071214725E+01  0.89558513725E+01  0.51100000000E-03 0. -1.
        -11    1    3    3    0    0 -0.11314213875E+02 -0.31007187128E+02  0.18250113944E+02  0.37716359162E+02  0.51100000000E-03 0.  1.
         12    1    3    3    0    0  0.17299130020E+02  0.36290579895E+02 -0.16177156324E+02  0.43335510558E+02  0.00000000000E+00 0. -1.
</event>
<event>
 7    1  0.2090370E-015  0.9000780E+02  0.7816164E-02  0.1186339E+00
        -11   -1    0    0    0    0  0.00000000000E+00  0.00000000000E+00  0.45593999997E+02  0.45594000000E+02  0.51100000000E-03 0.  1.
         11   -1    0    0    0    0 -0.00000000000E+00 -0.00000000000E+00 -0.45593999997E+02  0.45594000000E+02  0.51100000000E-03 0. -1.
    9900012    2    1    2    0    0 -0.97902174285E+00  0.65587085604E+00 -0.65019912718E-01  0.90007797584E+02  0.90000059712E+02 0.  0.
         12    1    1    2    0    0  0.97902174285E+00 -0.65587085604E+00  0.65019912718E-01  0.11802024156E+01  0.00000000000E+00 0. -1.
         11    1    3    3    0    0 -0.23871994286E+02 -0.64866318142E+01 -0.31408289770E+02  0.39980359803E+02  0.51100000000E-03 0. -1.
        -11    1    3    3    0    0  0.51665841467E+01 -0.50675522963E+01 -0.42787833122E+01  0.84072388401E+01  0.51100000000E-03 0.  1.
        -12    1    3    3    0    0  0.17726388396E+02  0.12210054967E+02  0.35622053170E+02  0.41620198941E+02  0.00000000000E+00 0.  1.
</event>
<event>
 7    1  0.2090370E-015  0.9000761E+02  0.7816164E-02  0.1186339E+00
        -11   -1    0    0    0    0  0.00000000000E+00  0.00000000000E+00  0.45593999997E+02  0.45594000000E+02  0.51100000000E-03 0.  1.
         11   -1    0    0    0    0 -0.00000000000E+00 -0.00000000000E+00 -0.45593999997E+02  0.45594000000E+02  0.51100000000E-03 0. -1.
    9900012    2    1    2    0    0 -0.78002594834E-01  0.37637103161E+00  0.11160567387E+01  0.90007609301E+02  0.89999868944E+02 0.  0.
         12    1    1    2    0    0  0.78002594834E-01 -0.37637103161E+00 -0.11160567387E+01  0.11803906990E+01  0.00000000000E+00 0. -1.
         11    1    3    3    0    0 -0.11246058384E+02  0.34600926165E+02 -0.12402473417E+02  0.38438512819E+02  0.51100000000E-03 0. -1.
        -11    1    3    3    0    0 -0.34452801144E+01  0.46379247318E+01  0.77266736544E+01  0.96478902828E+01  0.51100000000E-03 0.  1.
        -12    1    3    3    0    0  0.14613335903E+02 -0.38862479865E+02  0.57918565009E+01  0.41921206199E+02  0.00000000000E+00 0.  1.
</event>
<event>
 7    1  0.2090370E-015  0.9000772E+02  0.7816164E-02  0.1186339E+00
        -11   -1    0    0    0    0  0.00000000000E+00  0.00000000000E+00  0.45593999997E+02  0.45594000000E+02  0.51100000000E-03 0.  1.
         11   -1    0    0    0    0 -0.00000000000E+00 -0.00000000000E+00 -0.45593999997E+02  0.45594000000E+02  0.51100000000E-03 0. -1.
    9900012    2    1    2    0    0 -0.10832012615E+01  0.37117472354E+00 -0.28630237307E+00  0.90007718382E+02  0.89999979465E+02 0.  0.
         12    1    1    2    0    0  0.10832012615E+01 -0.37117472354E+00  0.28630237307E+00  0.11802816177E+01  0.00000000000E+00 0. -1.
         11    1    3    3    0    0 -0.20212260057E+02  0.22661445249E+02 -0.20417861072E+02  0.36591878995E+02  0.51100000000E-03 0. -1.
        -11    1    3    3    0    0 -0.83523586107E+01  0.56210259398E+01  0.20508067576E+01  0.10274416557E+02  0.51100000000E-03 0.  1.
        -12    1    3    3    0    0  0.27481417406E+02 -0.27911296466E+02  0.18080751941E+02  0.43141422830E+02  0.00000000000E+00 0.  1.
</event>
<event>
 7    1  0.2090370E-015  0.9000777E+02  0.7816164E-02  0.1186339E+00
        -11   -1    0    0    0    0  0.00000000000E+00  0.00000000000E+00  0.45593999997E+02  0.45594000000E+02  0.51100000000E-03 0. -1.
         11   -1    0    0    0    0 -0.00000000000E+00 -0.00000000000E+00 -0.45593999997E+02  0.45594000000E+02  0.51100000000E-03 0.  1.
    9900012    2    1    2    0    0 -0.19092220995E+00 -0.11637724116E+01 -0.46121447647E-01  0.90007769216E+02  0.90000030969E+02 0.  0.
         12    1    1    2    0    0  0.19092220995E+00  0.11637724116E+01  0.46121447647E-01  0.11802307843E+01  0.00000000000E+00 0. -1.
         11    1    3    3    0    0  0.19688065016E+02  0.34685348737E+01  0.32069299903E+02  0.37790086462E+02  0.51100000000E-03 0. -1.
        -11    1    3    3    0    0 -0.46304866438E+01 -0.61265204014E+00  0.79165280327E+01  0.91917444174E+01  0.51100000000E-03 0.  1.
        -12    1    3    3    0    0 -0.15248500582E+02 -0.40196552451E+01 -0.40031949383E+02  0.43025938337E+02  0.00000000000E+00 0.  1.
</event>
<event>
 7    1  0.2090370E-015  0.9000774E+02  0.7816164E-02  0.1186339E+00
        -11   -1    0    0    0    0  0.00000000000E+00  0.00000000000E+00  0.45593999997E+02  0.45594000000E+02  0.51100000000E-03 0. -1.
         11   -1    0    0    0    0 -0.00000000000E+00 -0.00000000000E+00 -0.45593999997E+02  0.45594000000E+02  0.51100000000E-03 0.  1.
    9900012    2    1    2    0    0 -0.92613225488E+00  0.51470759364E+00  0.51997157909E+00  0.90007739307E+02  0.90000000666E+02 0.  0.
         12    1    1    2    0    0  0.92613225488E+00 -0.51470759364E+00 -0.51997157909E+00  0.11802606930E+01  0.00000000000E+00 0. -1.
         11    1    3    3    0    0  0.40093955601E+01  0.48722295329E+01  0.86782730113E+01  0.10729692265E+02  0.51100000000E-03 0. -1.
        -11    1    3    3    0    0  0.12457487430E+02 -0.23686381869E+02 -0.33562014654E+02  0.42926012010E+02  0.51100000000E-03 0.  1.
         12    1    3    3    0    0 -0.17393015245E+02  0.19328859930E+02  0.25403713222E+02  0.36352035032E+02  0.00000000000E+00 0. -1.
</event>
<event>
 7    1  0.2090370E-015  0.9000779E+02  0.7816164E-02  0.1186339E+00
        -11   -1    0    0    0    0  0.00000000000E+00  0.00000000000E+00  0.45593999997E+02  0.45594000000E+02  0.51100000000E-03 0.  1.
         11   -1    0    0    0    0 -0.00000000000E+00 -0.00000000000E+00 -0.45593999997E+02  0.45594000000E+02  0.51100000000E-03 0. -1.
    9900012    2    1    2    0    0 -0.48244098919E+00  0.85702951282E+00  0.65242396338E+00  0.90007785646E+02  0.90000047616E+02 0.  0.
         12    1    1    2    0    0  0.48244098919E+00 -0.85702951282E+00 -0.65242396338E+00  0.11802143542E+01  0.00000000000E+00 0. -1.
         11    1    3    3    0    0 -0.16191553548E+02 -0.31282507254E+02  0.10144903728E+02  0.36656251012E+02  0.51100000000E-03 0. -1.
        -11    1    3    3    0    0  0.32703366777E+01 -0.86548038379E+01  0.13404148501E+01  0.93486599943E+01  0.51100000000E-03 0.  1.
        -12    1    3    3    0    0  0.12438775881E+02  0.40794340604E+02 -0.10832894615E+02  0.44002874639E+02  0.00000000000E+00 0.  1.
</event>
<event>
 7    1  0.2090370E-015  0.9000772E+02  0.7816164E-02  0.1186339E+00
        -11   -1    0    0    0    0  0.00000000000E+00  0.00000000000E+00  0.45593999997E+02  0.45594000000E+02  0.51100000000E-03 0.  1.
         11   -1    0    0    0    0 -0.00000000000E+00 -0.00000000000E+00 -0.45593999997E+02  0.45594000000E+02  0.51100000000E-03 0. -1.
    9900012    2    1    2    0    0 -0.71501443558E+00 -0.91121602129E+00 -0.22691663832E+00  0.90007723998E+02  0.89999985155E+02 0.  0.
         12    1    1    2    0    0  0.71501443558E+00  0.91121602129E+00  0.22691663832E+00  0.11802760022E+01  0.00000000000E+00 0. -1.
         11    1    3    3    0    0 -0.45328790461E+01  0.17022569849E+01 -0.71517918748E+01  0.86367122547E+01  0.51100000000E-03 0. -1.
        -11    1    3    3    0    0 -0.83425034519E+01 -0.24793614329E+02 -0.27954218463E+02  0.38285232212E+02  0.51100000000E-03 0.  1.
         12    1    3    3    0    0  0.12160368062E+02  0.22180141323E+02  0.34879093700E+02  0.43085779531E+02  0.00000000000E+00 0. -1.
</event>
<event>
 7    1  0.2090370E-015  0.9000776E+02  0.7816164E-02  0.1186339E+00
        -11   -1    0    0    0    0  0.00000000000E+00  0.00000000000E+00  0.45593999997E+02  0.45594000000E+02  0.51100000000E-03 0.  1.
         11   -1    0    0    0    0 -0.00000000000E+00 -0.00000000000E+00 -0.45593999997E+02  0.45594000000E+02  0.51100000000E-03 0. -1.
    9900012    2    1    2    0    0  0.55968606288E+00 -0.32755277862E+00 -0.98611815050E+00  0.90007759212E+02  0.90000020833E+02 0.  0.
         12    1    1    2    0    0 -0.55968606288E+00  0.32755277862E+00  0.98611815050E+00  0.11802407884E+01  0.00000000000E+00 0. -1.
         11    1    3    3    0    0  0.11597777343E+02 -0.40181925656E+01 -0.31860159038E+02  0.34142701196E+02  0.51100000000E-03 0. -1.
        -11    1    3    3    0    0 -0.67578112467E+01  0.25178747544E+01 -0.11328845653E+02  0.13429462022E+02  0.51100000000E-03 0.  1.
        -12    1    3    3    0    0 -0.42802800336E+01  0.11727650326E+01  0.42202886540E+02  0.42435595993E+02  0.00000000000E+00 0.  1.
</event>
<event>
 7    1  0.2090370E-015  0.9000783E+02  0.7816164E-02  0.1186339E+00
        -11   -1    0    0    0    0  0.00000000000E+00  0.00000000000E+00  0.45593999997E+02  0.45594000000E+02  0.51100000000E-03 0.  1.
         11   -1    0    0    0    0 -0.00000000000E+00 -0.00000000000E+00 -0.45593999997E+02  0.45594000000E+02  0.51100000000E-03 0. -1.
    9900012    2    1    2    0    0  0.16767136453E+00 -0.70324591587E+00  0.93280774351E+00  0.90007831033E+02  0.90000093602E+02 0.  0.
         12    1    1    2    0    0 -0.16767136453E+00  0.70324591587E+00 -0.93280774351E+00  0.11801689671E+01  0.00000000000E+00 0. -1.
         11    1    3    3    0    0 -0.15991789236E+02 -0.15881442709E+02 -0.18734308642E+02  0.29307539406E+02  0.51100000000E-03 0. -1.
        -11    1    3    3    0    0 -0.18485332830E+02  0.11744358728E+01  0.13277650933E+02  0.22789972444E+02  0.51100000000E-03 0.  1.
        -12    1    3    3    0    0  0.34644793430E+02  0.14003760920E+02  0.63894654533E+01  0.37910319183E+02  0.00000000000E+00 0.  1.
</event>
<event>
 7    1  0.2090370E-015  0.9000772E+02  0.7816164E-02  0.1186339E+00
        -11   -1    0    0    0    0  0.00000000000E+00  0.00000000000E+00  0.45593999997E+02  0.45594000000E+02  0.51100000000E-03 0.  1.
         11   -1    0    0    0    0 -0.00000000000E+00 -0.00000000000E+00 -0.45593999997E+02  0.45594000000E+02  0.51100000000E-03 0. -1.
    9900012    2    1    2    0    0  0.56243036565E+00 -0.34441978414E+00  0.97882754322E+00  0.90007721955E+02  0.89999983085E+02 0.  0.
         12    1    1    2    0    0 -0.56243036565E+00  0.34441978414E+00 -0.97882754322E+00  0.11802780449E+01  0.00000000000E+00 0. -1.
         11    1    3    3    0    0  0.27330687582E+02  0.10579286383E+02 -0.98745789654E+01  0.30925638136E+02  0.51100000000E-03 0. -1.
        -11    1    3    3    0    0  0.73421444652E+01 -0.47299304818E+01 -0.13947370592E+02  0.16456259429E+02  0.51100000000E-03 0.  1.
        -12    1    3    3    0    0 -0.34110401682E+02 -0.61937756853E+01  0.24800777101E+02  0.42625824390E+02  0.00000000000E+00 0.  1.
</event>
<event>
 7    1  0.2090370E-015  0.9000793E+02  0.7816164E-02  0.1186339E+00
        -11   -1    0    0    0    0  0.00000000000E+00  0.00000000000E+00  0.45593999997E+02  0.45594000000E+02  0.51100000000E-03 0. -1.
         11   -1    0    0    0    0 -0.00000000000E+00 -0.00000000000E+00 -0.45593999997E+02  0.45594000000E+02  0.51100000000E-03 0.  1.
    9900012    2    1    2    0    0 -0.11788199840E+01 -0.43540806596E-02 -0.54194051243E-01  0.90007926906E+02  0.90000190741E+02 0.  0.
         12    1    1    2    0    0  0.11788199840E+01  0.43540806596E-02  0.54194051243E-01  0.11800730943E+01  0.00000000000E+00 0. -1.
         11    1    3    3    0    0  0.18306043264E+02  0.84356478361E+01 -0.11082539843E+02  0.23002044779E+02  0.51100000000E-03 0. -1.
        -11    1    3    3    0    0 -0.16206166728E+02 -0.27381828440E+01 -0.25254426595E+02  0.30131769749E+02  0.51100000000E-03 0.  1.
        -12    1    3    3    0    0 -0.32786965197E+01 -0.57018190728E+01  0.36282772386E+02  0.36874112378E+02  0.00000000000E+00 0.  1.
</event>
<event>
 7    1  0.2090370E-015  0.9000773E+02  0.7816164E-02  0.1186339E+00
        -11   -1    0    0    0    0  0.00000000000E+00  0.00000000000E+00  0.45593999997E+02  0.45594000000E+02  0.51100000000E-03 0.  1.
         11   -1    0    0    0    0 -0.00000000000E+00 -0.00000000000E+00 -0.45593999997E+02  0.45594000000E+02  0.51100000000E-03 0. -1.
    9900012    2    1    2    0    0  0.71671023110E+00 -0.50007535263E+00  0.79327313822E+00  0.90007732579E+02  0.89999993849E+02 0.  0.
         12    1    1    2    0    0 -0.71671023110E+00  0.50007535263E+00 -0.79327313822E+00  0.11802674212E+01  0.00000000000E+00 0. -1.
         11    1    3    3    0    0  0.10831759346E+02 -0.23127559842E+01  0.61252260108E+01  0.12656786508E+02  0.51100000000E-03 0. -1.
        -11    1    3    3    0    0  0.19351116100E+02  0.26919379693E+02  0.11565029514E+02  0.35112228714E+02  0.51100000000E-03 0.  1.
         12    1    3    3    0    0 -0.29466165214E+02 -0.25106699061E+02 -0.16896982387E+02  0.42238717357E+02  0.00000000000E+00 0. -1.
</event>
<event>
 7    1  0.2090370E-015  0.9000776E+02  0.7816164E-02  0.1186339E+00
        -11   -1    0    0    0    0  0.00000000000E+00  0.00000000000E+00  0.45593999997E+02  0.45594000000E+02  0.51100000000E-03 0.  1.
         11   -1    0    0    0    0 -0.00000000000E+00 -0.00000000000E+00 -0.45593999997E+02  0.45594000000E+02  0.51100000000E-03 0. -1.
    9900012    2    1    2    0    0  0.41528598784E-01  0.10968734045E+01  0.43372058106E+00  0.90007758740E+02  0.90000020355E+02 0.  0.
         12    1    1    2    0    0 -0.41528598784E-01 -0.10968734045E+01 -0.43372058106E+00  0.11802412603E+01  0.00000000000E+00 0. -1.
         11    1    3    3    0    0 -0.65328829974E+01 -0.53971518589E+01  0.28903115627E+01  0.89533071899E+01  0.51100000000E-03 0. -1.
        -11    1    3    3    0    0 -0.32237597621E+02 -0.14731774805E+01  0.17478642396E+02  0.36700625234E+02  0.51100000000E-03 0.  1.
         12    1    3    3    0    0  0.38812009217E+02  0.79672027439E+01 -0.19935233378E+02  0.44353826316E+02  0.00000000000E+00 0. -1.
</event>
<event>
 7    1  0.2090370E-015  0.9000889E+02  0.7816164E-02  0.1186337E+00
        -11   -1    0    0    0    0  0.00000000000E+00  0.00000000000E+00  0.45593999997E+02  0.45594000000E+02  0.51100000000E-03 0.  1.
         11   -1    0    0    0    0 -0.00000000000E+00 -0.00000000000E+00 -0.45593999997E+02  0.45594000000E+02  0.51100000000E-03 0. -1.
    9900012    2    1    2    0    0  0.36697690630E+00 -0.71555768973E+00  0.86232029051E+00  0.90008893923E+02  0.90001170515E+02 0.  0.
         12    1    1    2    0    0 -0.36697690630E+00  0.71555768973E+00 -0.86232029051E+00  0.11791060769E+01  0.00000000000E+00 0. -1.
         11    1    3    3    0    0 -0.27143144878E+02  0.11896706210E+02 -0.24965261323E+02  0.38749789750E+02  0.51100000000E-03 0. -1.
        -11    1    3    3    0    0  0.19837920550E+01 -0.18940323745E+01 -0.74687540554E+01  0.79564487653E+01  0.51100000000E-03 0.  1.
        -12    1    3    3    0    0  0.25526329729E+02 -0.10718231525E+02  0.33296335669E+02  0.43302655408E+02  0.00000000000E+00 0.  1.
</event>
<event>
 7    1  0.2090370E-015  0.9000773E+02  0.7816164E-02  0.1186339E+00
        -11   -1    0    0    0    0  0.00000000000E+00  0.00000000000E+00  0.45593999997E+02  0.45594000000E+02  0.51100000000E-03 0. -1.
         11   -1    0    0    0    0 -0.00000000000E+00 -0.00000000000E+00 -0.45593999997E+02  0.45594000000E+02  0.51100000000E-03 0.  1.
    9900012    2    1    2    0    0  0.10460817548E+01 -0.54868928409E-01 -0.54382155748E+00  0.90007729047E+02  0.89999990270E+02 0.  0.
         12    1    1    2    0    0 -0.10460817548E+01  0.54868928409E-01  0.54382155748E+00  0.11802709534E+01  0.00000000000E+00 0. -1.
         11    1    3    3    0    0  0.80245106419E+01  0.32025130758E+01  0.73339243547E+01  0.11332930236E+02  0.51100000000E-03 0. -1.
        -11    1    3    3    0    0  0.16876411803E+02 -0.26275206602E+02  0.18512970927E+02  0.36303303570E+02  0.51100000000E-03 0.  1.
         12    1    3    3    0    0 -0.23854840690E+02  0.23017824598E+02 -0.26390716839E+02  0.42371495240E+02  0.00000000000E+00 0. -1.
</event>
<event>
 7    1  0.2090370E-015  0.9000762E+02  0.7816164E-02  0.1186339E+00
        -11   -1    0    0    0    0  0.00000000000E+00  0.00000000000E+00  0.45593999997E+02  0.45594000000E+02  0.51100000000E-03 0. -1.
         11   -1    0    0    0    0 -0.00000000000E+00 -0.00000000000E+00 -0.45593999997E+02  0.45594000000E+02  0.51100000000E-03 0.  1.
    9900012    2    1    2    0    0 -0.47764324080E+00 -0.57461947689E+00 -0.91376341912E+00  0.90007621165E+02  0.89999880964E+02 0.  0.
         12    1    1    2    0    0  0.47764324080E+00  0.57461947689E+00  0.91376341912E+00  0.11803788353E+01  0.00000000000E+00 0. -1.
         11    1    3    3    0    0 -0.20900850290E+02 -0.68166743472E+01 -0.11046312487E+02  0.24603528443E+02  0.51100000000E-03 0. -1.
        -11    1    3    3    0    0  0.11703884037E+02 -0.79983073897E+01 -0.23733826588E+02  0.27645042004E+02  0.51100000000E-03 0.  1.
        -12    1    3    3    0    0  0.87193230121E+01  0.14240362260E+02  0.33866375655E+02  0.37759050718E+02  0.00000000000E+00 0.  1.
</event>
<event>
 7    1  0.2090370E-015  0.9000778E+02  0.7816164E-02  0.1186339E+00
        -11   -1    0    0    0    0  0.00000000000E+00  0.00000000000E+00  0.45593999997E+02  0.45594000000E+02  0.51100000000E-03 0. -1.
         11   -1    0    0    0    0 -0.00000000000E+00 -0.00000000000E+00 -0.45593999997E+02  0.45594000000E+02  0.51100000000E-03 0.  1.
    9900012    2    1    2    0    0  0.10549709021E+01 -0.51095360866E-01 -0.52664301636E+00  0.90007776628E+02  0.90000038480E+02 0.  0.
         12    1    1    2    0    0 -0.10549709021E+01  0.51095360866E-01  0.52664301636E+00  0.11802233716E+01  0.00000000000E+00 0. -1.
         11    1    3    3    0    0  0.66568661502E+01 -0.62030739686E+01  0.42380804573E+00  0.91088751842E+01  0.51100000000E-03 0. -1.
        -11    1    3    3    0    0  0.30964403840E+02 -0.17049113757E+02 -0.98364805811E+01  0.36690910803E+02  0.51100000000E-03 0.  1.
         12    1    3    3    0    0 -0.36566299088E+02  0.23201092365E+02  0.88860295190E+01  0.44207990641E+02  0.00000000000E+00 0. -1.
</event>
<event>
 7    1  0.2090370E-015  0.9000776E+02  0.7816164E-02  0.1186339E+00
        -11   -1    0    0    0    0  0.00000000000E+00  0.00000000000E+00  0.45593999997E+02  0.45594000000E+02  0.51100000000E-03 0. -1.
         11   -1    0    0    0    0 -0.00000000000E+00 -0.00000000000E+00 -0.45593999997E+02  0.45594000000E+02  0.51100000000E-03 0.  1.
    9900012    2    1    2    0    0 -0.97156461444E+00  0.55153448315E+00 -0.38057523057E+00  0.90007760367E+02  0.90000022003E+02 0.  0.
         12    1    1    2    0    0  0.97156461444E+00 -0.55153448315E+00  0.38057523057E+00  0.11802396334E+01  0.00000000000E+00 0. -1.
         11    1    3    3    0    0  0.73990417262E+01 -0.55622769686E+01 -0.69511950931E+00  0.92826685244E+01  0.51100000000E-03 0. -1.
        -11    1    3    3    0    0  0.32917715754E+02  0.16996588782E+02 -0.61061065246E+01  0.37546565460E+02  0.51100000000E-03 0.  1.
         12    1    3    3    0    0 -0.41288322094E+02 -0.10882777331E+02  0.64206508034E+01  0.43178526382E+02  0.00000000000E+00 0. -1.
</event>
<event>
 7    1  0.2090370E-015  0.9000767E+02  0.7816164E-02  0.1186339E+00
        -11   -1    0    0    0    0  0.00000000000E+00  0.00000000000E+00  0.45593999997E+02  0.45594000000E+02  0.51100000000E-03 0. -1.
         11   -1    0    0    0    0 -0.00000000000E+00 -0.00000000000E+00 -0.45593999997E+02  0.45594000000E+02  0.51100000000E-03 0.  1.
    9900012    2    1    2    0    0  0.33478914778E+00 -0.11272020511E+01 -0.10256395728E+00  0.90007666317E+02  0.89999926713E+02 0.  0.
         12    1    1    2    0    0 -0.33478914778E+00  0.11272020511E+01  0.10256395728E+00  0.11803336828E+01  0.00000000000E+00 0. -1.
         11    1    3    3    0    0 -0.14702996721E+01 -0.90558470686E+01  0.66097846498E+01  0.11307493119E+02  0.51100000000E-03 0. -1.
        -11    1    3    3    0    0 -0.30496821371E+02 -0.45461914916E+00 -0.26067034795E+02  0.40121728472E+02  0.51100000000E-03 0.  1.
         12    1    3    3    0    0  0.32301910191E+02  0.83832641667E+01  0.19354686188E+02  0.38578444726E+02  0.00000000000E+00 0. -1.
</event>
<event>
 7    1  0.2090370E-015  0.9000778E+02  0.7816164E-02  0.1186339E+00
        -11   -1    0    0    0    0  0.00000000000E+00  0.00000000000E+00  0.45593999997E+02  0.45594000000E+02  0.51100000000E-03 0.  1.
         11   -1    0    0    0    0 -0.00000000000E+00 -0.00000000000E+00 -0.45593999997E+02  0.45594000000E+02  0.51100000000E-03 0. -1.
    9900012    2    1    2    0    0 -0.33123233803E+00  0.10205048219E+01  0.49171573943E+00  0.90007775732E+02  0.90000037572E+02 0.  0.
         12    1    1    2    0    0  0.33123233803E+00 -0.10205048219E+01 -0.49171573943E+00  0.11802242675E+01  0.00000000000E+00 0. -1.
         11    1    3    3    0    0  0.98014227415E+00  0.95110591667E+01  0.38611192586E+01  0.10311603539E+02  0.51100000000E-03 0. -1.
        -11    1    3    3    0    0 -0.94164587677E+00  0.59000534795E+00  0.37657933505E+02  0.37674324936E+02  0.51100000000E-03 0.  1.
         12    1    3    3    0    0 -0.36972873541E+00 -0.90805596928E+01 -0.41027337024E+02  0.42021847258E+02  0.00000000000E+00 0. -1.
</event>
<event>
 7    1  0.2090370E-015  0.9000781E+02  0.7816164E-02  0.1186339E+00
        -11   -1    0    0    0    0  0.00000000000E+00  0.00000000000E+00  0.45593999997E+02  0.45594000000E+02  0.51100000000E-03 0. -1.
         11   -1    0    0    0    0 -0.00000000000E+00 -0.00000000000E+00 -0.45593999997E+02  0.45594000000E+02  0.51100000000E-03 0.  1.
    9900012    2    1    2    0    0 -0.74618927653E+00  0.90503822126E+00 -0.13021276281E+00  0.90007810192E+02  0.90000072487E+02 0.  0.
         12    1    1    2    0    0  0.74618927653E+00 -0.90503822126E+00  0.13021276281E+00  0.11801898076E+01  0.00000000000E+00 0. -1.
         11    1    3    3    0    0 -0.27100285346E+02 -0.27672067083E+02  0.12567902354E+02  0.40720031094E+02  0.51100000000E-03 0. -1.
        -11    1    3    3    0    0  0.21101318386E-01  0.43726713584E+01  0.71511481365E+01  0.83821011689E+01  0.51100000000E-03 0.  1.
        -12    1    3    3    0    0  0.26332994751E+02  0.24204433945E+02 -0.19849263253E+02  0.40905677930E+02  0.00000000000E+00 0.  1.
</event>
<event>
 7    1  0.2090370E-015  0.9000776E+02  0.7816164E-02  0.1186339E+00
        -11   -1    0    0    0    0  0.00000000000E+00  0.00000000000E+00  0.45593999997E+02  0.45594000000E+02  0.51100000000E-03 0.  1.
         11   -1    0    0    0    0 -0.00000000000E+00 -0.00000000000E+00 -0.45593999997E+02  0.45594000000E+02  0.51100000000E-03 0. -1.
    9900012    2    1    2    0    0 -0.63243796359E+00 -0.71473006095E+00  0.69436445709E+00  0.90007763228E+02  0.90000024903E+02 0.  0.
         12    1    1    2    0    0  0.63243796359E+00  0.71473006095E+00 -0.69436445709E+00  0.11802367716E+01  0.00000000000E+00 0. -1.
         11    1    3    3    0    0  0.17993139540E+02 -0.15703519920E+02 -0.34583839188E+02  0.42028508677E+02  0.51100000000E-03 0. -1.
        -11    1    3    3    0    0 -0.91048043650E+01  0.68868208900E+00  0.44698524861E+00  0.91417471863E+01  0.51100000000E-03 0.  1.
        -12    1    3    3    0    0 -0.95207731383E+01  0.14300107770E+02  0.34831218396E+02  0.38837507365E+02  0.00000000000E+00 0.  1.
</event>
<event>
 7    1  0.2090370E-015  0.9000780E+02  0.7816164E-02  0.1186339E+00
        -11   -1    0    0    0    0  0.00000000000E+00  0.00000000000E+00  0.45593999997E+02  0.45594000000E+02  0.51100000000E-03 0. -1.
         11   -1    0    0    0    0 -0.00000000000E+00 -0.00000000000E+00 -0.45593999997E+02  0.45594000000E+02  0.51100000000E-03 0.  1.
    9900012    2    1    2    0    0  0.68331003547E+00 -0.95507094215E+00 -0.11749574384E+00  0.90007797323E+02  0.90000059448E+02 0.  0.
         12    1    1    2    0    0 -0.68331003547E+00  0.95507094215E+00  0.11749574384E+00  0.11802026771E+01  0.00000000000E+00 0. -1.
         11    1    3    3    0    0  0.93929982943E+01  0.10870875253E+02  0.41279006150E+01  0.14948040322E+02  0.51100000000E-03 0. -1.
        -11    1    3    3    0    0 -0.31517948593E+02  0.17101792566E+02 -0.11208176167E+02  0.37569610135E+02  0.51100000000E-03 0.  1.
         12    1    3    3    0    0  0.22808260334E+02 -0.28927738762E+02  0.69627798078E+01  0.37490146865E+02  0.00000000000E+00 0. -1.
</event>
<event>
 7    1  0.2090370E-015  0.9000775E+02  0.7816164E-02  0.1186339E+00
        -11   -1    0    0    0    0  0.00000000000E+00  0.00000000000E+00  0.45593999997E+02  0.45594000000E+02  0.51100000000E-03 0.  1.
         11   -1    0    0    0    0 -0.00000000000E+00 -0.00000000000E+00 -0.45593999997E+02  0.45594000000E+02  0.51100000000E-03 0. -1.
    9900012    2    1    2    0    0  0.23382519345E-01  0.22048400573E+00  0.11592334241E+01  0.90007753386E+02  0.90000014930E+02 0.  0.
         12    1    1    2    0    0 -0.23382519345E-01 -0.22048400573E+00 -0.11592334241E+01  0.11802466143E+01  0.00000000000E+00 0. -1.
         11    1    3    3    0    0  0.40706663846E+02 -0.85335849560E+01 -0.67913440512E+01  0.42142341036E+02  0.51100000000E-03 0. -1.
        -11    1    3    3    0    0 -0.78413720395E+01 -0.65555899195E+01 -0.17145671531E+01  0.10363523312E+02  0.51100000000E-03 0.  1.
        -12    1    3    3    0    0 -0.32841909288E+02  0.15309658881E+02  0.96651446283E+01  0.37501889038E+02  0.00000000000E+00 0.  1.
</event>
<event>
 7    1  0.2109286E-015  0.9000767E+02  0.7816164E-02  0.1186339E+00
        -11   -1    0    0    0    0  0.00000000000E+00  0.00000000000E+00  0.45593999997E+02  0.45594000000E+02  0.51100000000E-03 0.  1.
         11   -1    0    0    0    0 -0.00000000000E+00 -0.00000000000E+00 -0.45593999997E+02  0.45594000000E+02  0.51100000000E-03 0. -1.
    9900012    2    1    2    0    0  0.58901219031E+00 -0.56271067388E+00  0.85415984661E+00  0.90007674746E+02  0.89999935252E+02 0.  0.
         12    1    1    2    0    0 -0.58901219031E+00  0.56271067388E+00 -0.85415984661E+00  0.11803252545E+01  0.00000000000E+00 0. -1.
         11    1    3    3    0    0  0.16592243254E+02  0.33843074758E+02 -0.12720029629E+02  0.39780087975E+02  0.51100000000E-03 0. -1.
        -11    1    3    3    0    0 -0.87590212265E+01  0.30925942692E+01 -0.10149094471E+01  0.93442299633E+01  0.51100000000E-03 0.  1.
        -12    1    3    3    0    0 -0.72442098372E+01 -0.37498379702E+02  0.14589098923E+02  0.40883356807E+02  0.00000000000E+00 0.  1.
</event>
<event>
 7    1  0.2090370E-015  0.9000769E+02  0.7816164E-02  0.1186339E+00
        -11   -1    0    0    0    0  0.00000000000E+00  0.00000000000E+00  0.45593999997E+02  0.45594000000E+02  0.51100000000E-03 0.  1.
         11   -1    0    0    0    0 -0.00000000000E+00 -0.00000000000E+00 -0.45593999997E+02  0.45594000000E+02  0.51100000000E-03 0. -1.
    9900012    2    1    2    0    0  0.21198535393E+00 -0.58115266917E+00  0.10052130947E+01  0.90007690896E+02  0.89999951616E+02 0.  0.
         12    1    1    2    0    0 -0.21198535393E+00  0.58115266917E+00 -0.10052130947E+01  0.11803091039E+01  0.00000000000E+00 0. -1.
         11    1    3    3    0    0 -0.21641460723E+02  0.26245983496E+02  0.22051267281E+02  0.40539645544E+02  0.51100000000E-03 0. -1.
        -11    1    3    3    0    0  0.71160753379E+01  0.56570687609E+01 -0.46053743524E+01  0.10190703036E+02  0.51100000000E-03 0.  1.
        -12    1    3    3    0    0  0.14737370739E+02 -0.32484204926E+02 -0.16440679834E+02  0.39277342316E+02  0.00000000000E+00 0.  1.
</event>
<event>
 7    1  0.2090370E-015  0.9000771E+02  0.7816164E-02  0.1186339E+00
        -11   -1    0    0    0    0  0.00000000000E+00  0.00000000000E+00  0.45593999997E+02  0.45594000000E+02  0.51100000000E-03 0.  1.
         11   -1    0    0    0    0 -0.00000000000E+00 -0.00000000000E+00 -0.45593999997E+02  0.45594000000E+02  0.51100000000E-03 0. -1.
    9900012    2    1    2    0    0 -0.36403328564E+00  0.11128971909E+01 -0.14839144764E+00  0.90007711725E+02  0.89999972720E+02 0.  0.
         12    1    1    2    0    0  0.36403328564E+00 -0.11128971909E+01  0.14839144764E+00  0.11802882751E+01  0.00000000000E+00 0. -1.
         11    1    3    3    0    0  0.69025605362E+01  0.85135357125E+00 -0.80306940014E+01  0.10623661858E+02  0.51100000000E-03 0. -1.
        -11    1    3    3    0    0  0.34807725041E+02  0.21517857060E+01  0.12428505833E+02  0.37022637153E+02  0.51100000000E-03 0.  1.
         12    1    3    3    0    0 -0.42074318863E+02 -0.18902420863E+01 -0.45462032789E+01  0.42361412714E+02  0.00000000000E+00 0. -1.
</event>
<event>
 7    1  0.2090370E-015  0.9000868E+02  0.7816164E-02  0.1186337E+00
        -11   -1    0    0    0    0  0.00000000000E+00  0.00000000000E+00  0.45593999997E+02  0.45594000000E+02  0.51100000000E-03 0.  1.
         11   -1    0    0    0    0 -0.00000000000E+00 -0.00000000000E+00 -0.45593999997E+02  0.45594000000E+02  0.51100000000E-03 0. -1.
    9900012    2    1    2    0    0 -0.11380078689E+01 -0.81503119875E-02 -0.30931363324E+00  0.90008676778E+02  0.90000950507E+02 0.  0.
         12    1    1    2    0    0  0.11380078689E+01  0.81503119875E-02  0.30931363324E+00  0.11793232216E+01  0.00000000000E+00 0. -1.
         11    1    3    3    0    0  0.35975887673E+02 -0.48560087646E+00 -0.16177058847E+02  0.39448669626E+02  0.51100000000E-03 0. -1.
        -11    1    3    3    0    0 -0.24987556489E+01 -0.30105974161E+01 -0.76320785737E+01  0.85764853064E+01  0.51100000000E-03 0.  1.
        -12    1    3    3    0    0 -0.34615139893E+02  0.34880479805E+01  0.23499823788E+02  0.41983521846E+02  0.00000000000E+00 0.  1.
</event>
<event>
 7    1  0.2090370E-015  0.9000774E+02  0.7816164E-02  0.1186339E+00
        -11   -1    0    0    0    0  0.00000000000E+00  0.00000000000E+00  0.45593999997E+02  0.45594000000E+02  0.51100000000E-03 0. -1.
         11   -1    0    0    0    0 -0.00000000000E+00 -0.00000000000E+00 -0.45593999997E+02  0.45594000000E+02  0.51100000000E-03 0.  1.
    9900012    2    1    2    0    0  0.24552000449E+00 -0.67203332590E+00 -0.93867365562E+00  0.90007738548E+02  0.89999999897E+02 0.  0.
         12    1    1    2    0    0 -0.24552000449E+00  0.67203332590E+00  0.93867365562E+00  0.11802614522E+01  0.00000000000E+00 0. -1.
         11    1    3    3    0    0 -0.97049732415E+01 -0.28915889976E+01  0.36482047699E+02  0.37861426243E+02  0.51100000000E-03 0. -1.
        -11    1    3    3    0    0 -0.44720295767E+01  0.53337324023E+01  0.41024931305E+01  0.80794925596E+01  0.51100000000E-03 0.  1.
        -12    1    3    3    0    0  0.14422522823E+02 -0.31141767306E+01 -0.41523214485E+02  0.44066819745E+02  0.00000000000E+00 0.  1.
</event>
<event>
 7    1  0.2634855E-015  0.9000743E+02  0.7816164E-02  0.1186340E+00
        -11   -1    0    0    0    0  0.00000000000E+00  0.00000000000E+00  0.45593999997E+02  0.45594000000E+02  0.51100000000E-03 0.  1.
         11   -1    0    0    0    0 -0.00000000000E+00 -0.00000000000E+00 -0.45593999997E+02  0.45594000000E+02  0.51100000000E-03 0. -1.
    9900012    2    1    2    0    0  0.11293011877E+01  0.34249243554E+00  0.33545984086E-01  0.90007429132E+02  0.89999686396E+02 0.  0.
         12    1    1    2    0    0 -0.11293011877E+01 -0.34249243554E+00 -0.33545984086E-01  0.11805708679E+01  0.00000000000E+00 0. -1.
         11    1    3    3    0    0  0.31151312196E+02  0.32195049360E+01 -0.24381339857E+02  0.39689031193E+02  0.51100000000E-03 0. -1.
        -11    1    3    3    0    0  0.59967426668E+01  0.35328183641E+01  0.67372057140E+01  0.96866748319E+01  0.51100000000E-03 0.  1.
        -12    1    3    3    0    0 -0.36018753675E+02 -0.64098308646E+01  0.17677680127E+02  0.40631723107E+02  0.00000000000E+00 0.  1.
</event>
<event>
 7    1  0.2090370E-015  0.9000770E+02  0.7816164E-02  0.1186339E+00
        -11   -1    0    0    0    0  0.00000000000E+00  0.00000000000E+00  0.45593999997E+02  0.45594000000E+02  0.51100000000E-03 0. -1.
         11   -1    0    0    0    0 -0.00000000000E+00 -0.00000000000E+00 -0.45593999997E+02  0.45594000000E+02  0.51100000000E-03 0.  1.
    9900012    2    1    2    0    0 -0.64516585200E+00  0.24157568796E+00  0.95839221306E+00  0.90007697741E+02  0.89999958551E+02 0.  0.
         12    1    1    2    0    0  0.64516585200E+00 -0.24157568796E+00 -0.95839221306E+00  0.11803022594E+01  0.00000000000E+00 0. -1.
         11    1    3    3    0    0 -0.64798588275E+01 -0.41812932521E+01  0.77365193872E+01  0.10923621935E+02  0.51100000000E-03 0. -1.
        -11    1    3    3    0    0 -0.97666580472E+01 -0.32462055932E+02  0.10469384773E+02  0.35479299635E+02  0.51100000000E-03 0.  1.
         12    1    3    3    0    0  0.15601351023E+02  0.36884924872E+02 -0.17247511947E+02  0.43604776171E+02  0.00000000000E+00 0. -1.
</event>
<event>
 7    1  0.2090370E-015  0.9000779E+02  0.7816164E-02  0.1186339E+00
        -11   -1    0    0    0    0  0.00000000000E+00  0.00000000000E+00  0.45593999997E+02  0.45594000000E+02  0.51100000000E-03 0. -1.
         11   -1    0    0    0    0 -0.00000000000E+00 -0.00000000000E+00 -0.45593999997E+02  0.45594000000E+02  0.51100000000E-03 0.  1.
    9900012    2    1    2    0    0  0.72165781282E+00 -0.85887982457E+00 -0.36664656131E+00  0.90007790589E+02  0.90000052625E+02 0.  0.
         12    1    1    2    0    0 -0.72165781282E+00  0.85887982457E+00  0.36664656131E+00  0.11802094106E+01  0.00000000000E+00 0. -1.
         11    1    3    3    0    0 -0.72389781812E+01  0.11761185654E+02 -0.53397482006E+01  0.14806795879E+02  0.51100000000E-03 0. -1.
        -11    1    3    3    0    0  0.12153625020E+02  0.13257397212E+02 -0.27875613267E+02  0.33174071158E+02  0.51100000000E-03 0.  1.
         12    1    3    3    0    0 -0.41929890256E+01 -0.25877462691E+02  0.32848714906E+02  0.42026923552E+02  0.00000000000E+00 0. -1.
</event>
<event>
 7    1  0.2090370E-015  0.9000777E+02  0.7816164E-02  0.1186339E+00
        -11   -1    0    0    0    0  0.00000000000E+00  0.00000000000E+00  0.45593999997E+02  0.45594000000E+02  0.51100000000E-03 0.  1.
         11   -1    0    0    0    0 -0.00000000000E+00 -0.00000000000E+00 -0.45593999997E+02  0.45594000000E+02  0.51100000000E-03 0. -1.
    9900012    2    1    2    0    0 -0.73926861894E+00 -0.66520506147E+00  0.63555688507E+00  0.90007767642E+02  0.90000029375E+02 0.  0.
         12    1    1    2    0    0  0.73926861894E+00  0.66520506147E+00 -0.63555688507E+00  0.11802323580E+01  0.00000000000E+00 0. -1.
         11    1    3    3    0    0 -0.50651519723E+01  0.26695425288E+02 -0.30667422597E+02  0.40973068043E+02  0.51100000000E-03 0. -1.
        -11    1    3    3    0    0 -0.54768195861E+01 -0.88221370788E+01 -0.10955234529E+01  0.10441543340E+02  0.51100000000E-03 0.  1.
        -12    1    3    3    0    0  0.98027029394E+01 -0.18538493271E+02  0.32398502935E+02  0.38593156260E+02  0.00000000000E+00 0.  1.
</event>
<event>
 7    1  0.3319636E-015  0.9000768E+02  0.7816164E-02  0.1186339E+00
        -11   -1    0    0    0    0  0.00000000000E+00  0.00000000000E+00  0.45593999997E+02  0.45594000000E+02  0.51100000000E-03 0. -1.
         11   -1    0    0    0    0 -0.00000000000E+00 -0.00000000000E+00 -0.45593999997E+02  0.45594000000E+02  0.51100000000E-03 0.  1.
    9900012    2    1    2    0    0  0.48346336273E+00  0.48036887957E+00 -0.96366845894E+00  0.90007683101E+02  0.89999943718E+02 0.  0.
         12    1    1    2    0    0 -0.48346336273E+00 -0.48036887957E+00  0.96366845894E+00  0.11803168991E+01  0.00000000000E+00 0. -1.
         11    1    3    3    0    0  0.24479155434E+02 -0.22354880405E+02  0.20370516009E+02  0.38909223218E+02  0.51100000000E-03 0. -1.
        -11    1    3    3    0    0 -0.67112941701E+01 -0.38960459202E+01  0.54614308658E+01  0.94893556479E+01  0.51100000000E-03 0.  1.
        -12    1    3    3    0    0 -0.17284397901E+02  0.26731295205E+02 -0.26795615334E+02  0.41609104235E+02  0.00000000000E+00 0.  1.
</event>
<event>
 7    1  0.2090370E-015  0.9000760E+02  0.7816164E-02  0.1186339E+00
        -11   -1    0    0    0    0  0.00000000000E+00  0.00000000000E+00  0.45593999997E+02  0.45594000000E+02  0.51100000000E-03 0.  1.
         11   -1    0    0    0    0 -0.00000000000E+00 -0.00000000000E+00 -0.45593999997E+02  0.45594000000E+02  0.51100000000E-03 0. -1.
    9900012    2    1    2    0    0 -0.81195712454E+00 -0.79302707425E+00  0.32432335590E+00  0.90007596700E+02  0.89999856176E+02 0.  0.
         12    1    1    2    0    0  0.81195712454E+00  0.79302707425E+00 -0.32432335590E+00  0.11804033005E+01  0.00000000000E+00 0. -1.
         11    1    3    3    0    0 -0.20465811215E+01 -0.57341292962E+01  0.74174805248E+01  0.95962362762E+01  0.51100000000E-03 0. -1.
        -11    1    3    3    0    0  0.27855108577E+02  0.29760978533E+01  0.25776602457E+02  0.38068326293E+02  0.51100000000E-03 0.  1.
         12    1    3    3    0    0 -0.26620484580E+02  0.19650043686E+01 -0.32869759626E+02  0.42343034130E+02  0.00000000000E+00 0. -1.
</event>
<event>
 7    1  0.2090370E-015  0.9000769E+02  0.7816164E-02  0.1186339E+00
        -11   -1    0    0    0    0  0.00000000000E+00  0.00000000000E+00  0.45593999997E+02  0.45594000000E+02  0.51100000000E-03 0.  1.
         11   -1    0    0    0    0 -0.00000000000E+00 -0.00000000000E+00 -0.45593999997E+02  0.45594000000E+02  0.51100000000E-03 0. -1.
    9900012    2    1    2    0    0 -0.96690822503E+00  0.56426694205E+00 -0.37392917861E+00  0.90007689986E+02  0.89999950694E+02 0.  0.
         12    1    1    2    0    0  0.96690822503E+00 -0.56426694205E+00  0.37392917861E+00  0.11803100136E+01  0.00000000000E+00 0. -1.
         11    1    3    3    0    0  0.73864732951E+01  0.14036734493E+01  0.32958149097E+01  0.82093046643E+01  0.51100000000E-03 0. -1.
        -11    1    3    3    0    0  0.13823782030E+02 -0.68941621596E+01 -0.37693584474E+02  0.40736135460E+02  0.51100000000E-03 0.  1.
         12    1    3    3    0    0 -0.22177163550E+02  0.60547556524E+01  0.34023840386E+02  0.41062249862E+02  0.00000000000E+00 0. -1.
</event>
<event>
 7    1  0.2090370E-015  0.9000768E+02  0.7816164E-02  0.1186339E+00
        -11   -1    0    0    0    0  0.00000000000E+00  0.00000000000E+00  0.45593999997E+02  0.45594000000E+02  0.51100000000E-03 0.  1.
         11   -1    0    0    0    0 -0.00000000000E+00 -0.00000000000E+00 -0.45593999997E+02  0.45594000000E+02  0.51100000000E-03 0. -1.
    9900012    2    1    2    0    0  0.40024254952E+00 -0.63973831824E+00 -0.90757585084E+00  0.90007680916E+02  0.89999941504E+02 0.  0.
         12    1    1    2    0    0 -0.40024254952E+00  0.63973831824E+00  0.90757585084E+00  0.11803190837E+01  0.00000000000E+00 0. -1.
         11    1    3    3    0    0  0.27720668611E+02  0.83516462875E+01 -0.24600292421E+02  0.37991576058E+02  0.51100000000E-03 0. -1.
        -11    1    3    3    0    0 -0.38147641565E+01 -0.56307513129E+01 -0.92045304609E+01  0.11444700397E+02  0.51100000000E-03 0.  1.
        -12    1    3    3    0    0 -0.23505661904E+02 -0.33606332929E+01  0.32897247031E+02  0.40571404461E+02  0.00000000000E+00 0.  1.
</event>
<event>
 7    1  0.2090370E-015  0.9000788E+02  0.7816164E-02  0.1186339E+00
        -11   -1    0    0    0    0  0.00000000000E+00  0.00000000000E+00  0.45593999997E+02  0.45594000000E+02  0.51100000000E-03 0. -1.
         11   -1    0    0    0    0 -0.00000000000E+00 -0.00000000000E+00 -0.45593999997E+02  0.45594000000E+02  0.51100000000E-03 0.  1.
    9900012    2    1    2    0    0 -0.94117817780E+00 -0.51480865797E+00 -0.49177919886E+00  0.90007876660E+02  0.90000139832E+02 0.  0.
         12    1    1    2    0    0  0.94117817780E+00  0.51480865797E+00  0.49177919886E+00  0.11801233398E+01  0.00000000000E+00 0. -1.
         11    1    3    3    0    0 -0.11353726404E+02 -0.16950400846E+01  0.13046052139E+02  0.17377564295E+02  0.51100000000E-03 0. -1.
        -11    1    3    3    0    0  0.19112235475E+02  0.32284046647E+02  0.23711140470E+00  0.37517908189E+02  0.51100000000E-03 0.  1.
         12    1    3    3    0    0 -0.86996872488E+01 -0.31103815221E+02 -0.13774942742E+02  0.35112404177E+02  0.00000000000E+00 0. -1.
</event>
<event>
 7    1  0.2090370E-015  0.9000778E+02  0.7816164E-02  0.1186339E+00
        -11   -1    0    0    0    0  0.00000000000E+00  0.00000000000E+00  0.45593999997E+02  0.45594000000E+02  0.51100000000E-03 0. -1.
         11   -1    0    0    0    0 -0.00000000000E+00 -0.00000000000E+00 -0.45593999997E+02  0.45594000000E+02  0.51100000000E-03 0.  1.
    9900012    2    1    2    0    0 -0.18836152186E+00  0.83897342007E-01 -0.11620701431E+01  0.90007777206E+02  0.90000039065E+02 0.  0.
         12    1    1    2    0    0  0.18836152186E+00 -0.83897342007E-01  0.11620701431E+01  0.11802227944E+01  0.00000000000E+00 0. -1.
         11    1    3    3    0    0 -0.41264099783E+01  0.61096471485E+01 -0.67452231524E+01  0.99926514612E+01  0.51100000000E-03 0. -1.
        -11    1    3    3    0    0  0.18578003967E+02  0.25283859722E+02  0.25227213210E+02  0.40259509193E+02  0.51100000000E-03 0.  1.
         12    1    3    3    0    0 -0.14639955511E+02 -0.31309609529E+02 -0.19644060201E+02  0.39755616551E+02  0.00000000000E+00 0. -1.
</event>
<event>
 7    1  0.2090370E-015  0.9000769E+02  0.7816164E-02  0.1186339E+00
        -11   -1    0    0    0    0  0.00000000000E+00  0.00000000000E+00  0.45593999997E+02  0.45594000000E+02  0.51100000000E-03 0.  1.
         11   -1    0    0    0    0 -0.00000000000E+00 -0.00000000000E+00 -0.45593999997E+02  0.45594000000E+02  0.51100000000E-03 0. -1.
    9900012    2    1    2    0    0  0.99846132695E+00 -0.37942996967E+00 -0.50222563094E+00  0.90007693808E+02  0.89999954566E+02 0.  0.
         12    1    1    2    0    0 -0.99846132695E+00  0.37942996967E+00  0.50222563094E+00  0.11803061923E+01  0.00000000000E+00 0. -1.
         11    1    3    3    0    0 -0.25885000358E+02 -0.20298022046E+02 -0.23626074879E+02  0.40499806876E+02  0.51100000000E-03 0. -1.
        -11    1    3    3    0    0 -0.36990858366E+01 -0.12678468207E+01  0.88212765391E+01  0.96491238787E+01  0.51100000000E-03 0.  1.
        -12    1    3    3    0    0  0.30582547522E+02  0.21186438897E+02  0.14302572709E+02  0.39858763053E+02  0.00000000000E+00 0.  1.
</event>
<event>
 7    1  0.2090370E-015  0.9000757E+02  0.7816164E-02  0.1186339E+00
        -11   -1    0    0    0    0  0.00000000000E+00  0.00000000000E+00  0.45593999997E+02  0.45594000000E+02  0.51100000000E-03 0. -1.
         11   -1    0    0    0    0 -0.00000000000E+00 -0.00000000000E+00 -0.45593999997E+02  0.45594000000E+02  0.51100000000E-03 0.  1.
    9900012    2    1    2    0    0 -0.10984179087E+01  0.38785514797E+00 -0.19093886095E+00  0.90007571617E+02  0.89999830763E+02 0.  0.
         12    1    1    2    0    0  0.10984179087E+01 -0.38785514797E+00  0.19093886095E+00  0.11804283827E+01  0.00000000000E+00 0. -1.
         11    1    3    3    0    0  0.71388246655E+01 -0.60125007372E+01 -0.25264397737E+01  0.96693268075E+01  0.51100000000E-03 0. -1.
        -11    1    3    3    0    0  0.17502062133E+02 -0.25421634942E+02 -0.16819139927E+02  0.35149184488E+02  0.51100000000E-03 0.  1.
         12    1    3    3    0    0 -0.25739304707E+02  0.31821990827E+02  0.19154640840E+02  0.45189060321E+02  0.00000000000E+00 0. -1.
</event>
<event>
 7    1  0.2090370E-015  0.9000765E+02  0.7816164E-02  0.1186339E+00
        -11   -1    0    0    0    0  0.00000000000E+00  0.00000000000E+00  0.45593999997E+02  0.45594000000E+02  0.51100000000E-03 0.  1.
         11   -1    0    0    0    0 -0.00000000000E+00 -0.00000000000E+00 -0.45593999997E+02  0.45594000000E+02  0.51100000000E-03 0. -1.
    9900012    2    1    2    0    0  0.96630620231E+00  0.48655960738E+00  0.47195073509E+00  0.90007650296E+02  0.89999910480E+02 0.  0.
         12    1    1    2    0    0 -0.96630620231E+00 -0.48655960738E+00 -0.47195073509E+00  0.11803497043E+01  0.00000000000E+00 0. -1.
         11    1    3    3    0    0 -0.76514372116E+01  0.37202399292E+02  0.12146228470E+02  0.39875981126E+02  0.51100000000E-03 0. -1.
        -11    1    3    3    0    0  0.86007242165E+01  0.25004792770E+01  0.76585339122E+00  0.89895153007E+01  0.51100000000E-03 0.  1.
        -12    1    3    3    0    0  0.17019197372E-01 -0.39216318961E+02 -0.12440131126E+02  0.41142153869E+02  0.00000000000E+00 0.  1.
</event>
<event>
 7    1  0.2090370E-015  0.9000776E+02  0.7816164E-02  0.1186339E+00
        -11   -1    0    0    0    0  0.00000000000E+00  0.00000000000E+00  0.45593999997E+02  0.45594000000E+02  0.51100000000E-03 0.  1.
         11   -1    0    0    0    0 -0.00000000000E+00 -0.00000000000E+00 -0.45593999997E+02  0.45594000000E+02  0.51100000000E-03 0. -1.
    9900012    2    1    2    0    0  0.93396585660E+00 -0.25284129922E+00  0.67583113158E+00  0.90007759066E+02  0.90000020686E+02 0.  0.
         12    1    1    2    0    0 -0.93396585660E+00  0.25284129922E+00 -0.67583113158E+00  0.11802409340E+01  0.00000000000E+00 0. -1.
         11    1    3    3    0    0  0.33743944182E+02 -0.12913097595E+02 -0.10261796480E+02  0.37559370678E+02  0.51100000000E-03 0. -1.
        -11    1    3    3    0    0  0.53244657041E+01  0.11650388381E+02  0.53984079849E+01  0.13900514145E+02  0.51100000000E-03 0.  1.
        -12    1    3    3    0    0 -0.38134444029E+02  0.10098679150E+01  0.55392196266E+01  0.38547874244E+02  0.00000000000E+00 0.  1.
</event>
<event>
 7    1  0.2090370E-015  0.9000770E+02  0.7816164E-02  0.1186339E+00
        -11   -1    0    0    0    0  0.00000000000E+00  0.00000000000E+00  0.45593999997E+02  0.45594000000E+02  0.51100000000E-03 0.  1.
         11   -1    0    0    0    0 -0.00000000000E+00 -0.00000000000E+00 -0.45593999997E+02  0.45594000000E+02  0.51100000000E-03 0. -1.
    9900012    2    1    2    0    0  0.84280198013E+00 -0.63053018593E+00  0.53405795980E+00  0.90007702835E+02  0.89999963712E+02 0.  0.
         12    1    1    2    0    0 -0.84280198013E+00  0.63053018593E+00 -0.53405795980E+00  0.11802971649E+01  0.00000000000E+00 0. -1.
         11    1    3    3    0    0 -0.46185859252E+01  0.46631854279E+01 -0.68048687653E+01  0.94542516075E+01  0.51100000000E-03 0. -1.
        -11    1    3    3    0    0 -0.26173996443E+02  0.83912036732E+01  0.28910615486E+02  0.39891278207E+02  0.51100000000E-03 0.  1.
         12    1    3    3    0    0  0.31635384349E+02 -0.13684919287E+02 -0.21571688761E+02  0.40662173021E+02  0.00000000000E+00 0. -1.
</event>
<event>
 7    1  0.2090370E-015  0.9000762E+02  0.7816164E-02  0.1186339E+00
        -11   -1    0    0    0    0  0.00000000000E+00  0.00000000000E+00  0.45593999997E+02  0.45594000000E+02  0.51100000000E-03 0. -1.
         11   -1    0    0    0    0 -0.00000000000E+00 -0.00000000000E+00 -0.45593999997E+02  0.45594000000E+02  0.51100000000E-03 0.  1.
    9900012    2    1    2    0    0  0.84364906422E+00  0.10935066938E+00 -0.81829095404E+00  0.90007618114E+02  0.89999877873E+02 0.  0.
         12    1    1    2    0    0 -0.84364906422E+00 -0.10935066938E+00  0.81829095404E+00  0.11803818865E+01  0.00000000000E+00 0. -1.
         11    1    3    3    0    0 -0.12171121028E+02  0.28982117619E+01 -0.60630655173E+00  0.12526109787E+02  0.51100000000E-03 0. -1.
        -11    1    3    3    0    0  0.15594991523E+02  0.35218582817E+02 -0.58936812607E+01  0.38965212887E+02  0.51100000000E-03 0.  1.
         12    1    3    3    0    0 -0.25802214308E+01 -0.38007443910E+02  0.56816968584E+01  0.38516295439E+02  0.00000000000E+00 0. -1.
</event>
<event>
 7    1  0.2090370E-015  0.9000772E+02  0.7816164E-02  0.1186339E+00
        -11   -1    0    0    0    0  0.00000000000E+00  0.00000000000E+00  0.45593999997E+02  0.45594000000E+02  0.51100000000E-03 0.  1.
         11   -1    0    0    0    0 -0.00000000000E+00 -0.00000000000E+00 -0.45593999997E+02  0.45594000000E+02  0.51100000000E-03 0. -1.
    9900012    2    1    2    0    0  0.11002095350E+01 -0.15456208851E+00  0.39838751857E+00  0.90007719069E+02  0.89999980161E+02 0.  0.
         12    1    1    2    0    0 -0.11002095350E+01  0.15456208851E+00 -0.39838751857E+00  0.11802809305E+01  0.00000000000E+00 0. -1.
         11    1    3    3    0    0  0.89752664669E+01 -0.25268967896E+01 -0.37584928949E+01  0.10053202706E+02  0.51100000000E-03 0. -1.
        -11    1    3    3    0    0  0.32614300601E+02  0.13755462918E+02 -0.77656882160E+01  0.36238257098E+02  0.51100000000E-03 0.  1.
         12    1    3    3    0    0 -0.40489357533E+02 -0.11383128217E+02  0.11922568629E+02  0.43716259266E+02  0.00000000000E+00 0. -1.
</event>
<event>
 7    1  0.2090370E-015  0.9000748E+02  0.7816164E-02  0.1186340E+00
        -11   -1    0    0    0    0  0.00000000000E+00  0.00000000000E+00  0.45593999997E+02  0.45594000000E+02  0.51100000000E-03 0.  1.
         11   -1    0    0    0    0 -0.00000000000E+00 -0.00000000000E+00 -0.45593999997E+02  0.45594000000E+02  0.51100000000E-03 0. -1.
    9900012    2    1    2    0    0 -0.12828418205E+00 -0.93468868635E+00  0.70959003902E+00  0.90007484098E+02  0.89999742088E+02 0.  0.
         12    1    1    2    0    0  0.12828418205E+00  0.93468868635E+00 -0.70959003902E+00  0.11805159022E+01  0.00000000000E+00 0. -1.
         11    1    3    3    0    0 -0.12377649414E+02 -0.28269951413E+02 -0.16695923644E+02  0.35087750348E+02  0.51100000000E-03 0. -1.
        -11    1    3    3    0    0 -0.81618884119E+01 -0.74015749276E+01 -0.32299147069E-01  0.11018202093E+02  0.51100000000E-03 0.  1.
        -12    1    3    3    0    0  0.20411253644E+02  0.34736837654E+02  0.17437812830E+02  0.43901531657E+02  0.00000000000E+00 0.  1.
</event>
<event>
 7    1  0.2090370E-015  0.9000769E+02  0.7816164E-02  0.1186339E+00
        -11   -1    0    0    0    0  0.00000000000E+00  0.00000000000E+00  0.45593999997E+02  0.45594000000E+02  0.51100000000E-03 0.  1.
         11   -1    0    0    0    0 -0.00000000000E+00 -0.00000000000E+00 -0.45593999997E+02  0.45594000000E+02  0.51100000000E-03 0. -1.
    9900012    2    1    2    0    0 -0.21965460363E+00  0.85124877055E+00  0.78755853250E+00  0.90007694507E+02  0.89999955275E+02 0.  0.
         12    1    1    2    0    0  0.21965460363E+00 -0.85124877055E+00 -0.78755853250E+00  0.11803054928E+01  0.00000000000E+00 0. -1.
         11    1    3    3    0    0 -0.27260198344E+01 -0.85712975182E+01 -0.16435880154E+01  0.91432875438E+01  0.51100000000E-03 0. -1.
        -11    1    3    3    0    0  0.22824351024E+02 -0.12384675295E+02  0.30406854957E+02  0.39986347801E+02  0.51100000000E-03 0.  1.
         12    1    3    3    0    0 -0.20317985794E+02  0.21807221584E+02 -0.27975708409E+02  0.40878059162E+02  0.00000000000E+00 0. -1.
</event>
<event>
 7    1  0.2090370E-015  0.9000787E+02  0.7816164E-02  0.1186339E+00
        -11   -1    0    0    0    0  0.00000000000E+00  0.00000000000E+00  0.45593999997E+02  0.45594000000E+02  0.51100000000E-03 0.  1.
         11   -1    0    0    0    0 -0.00000000000E+00 -0.00000000000E+00 -0.45593999997E+02  0.45594000000E+02  0.51100000000E-03 0. -1.
    9900012    2    1    2    0    0 -0.38826247576E+00  0.90530574774E+00 -0.64991138513E+00  0.90007868204E+02  0.90000131264E+02 0.  0.
         12    1    1    2    0    0  0.38826247576E+00 -0.90530574774E+00  0.64991138513E+00  0.11801317958E+01  0.00000000000E+00 0. -1.
         11    1    3    3    0    0 -0.73748676974E+01 -0.43906370732E+01 -0.26626057192E+01  0.89864251480E+01  0.51100000000E-03 0. -1.
        -11    1    3    3    0    0 -0.10956988810E+02  0.40151638387E+02  0.36845210214E+01  0.41782596429E+02  0.51100000000E-03 0.  1.
         12    1    3    3    0    0  0.17943594032E+02 -0.34855695566E+02 -0.16718266873E+01  0.39238846627E+02  0.00000000000E+00 0. -1.
</event>
<event>
 7    1  0.2090370E-015  0.9000768E+02  0.7816164E-02  0.1186339E+00
        -11   -1    0    0    0    0  0.00000000000E+00  0.00000000000E+00  0.45593999997E+02  0.45594000000E+02  0.51100000000E-03 0. -1.
         11   -1    0    0    0    0 -0.00000000000E+00 -0.00000000000E+00 -0.45593999997E+02  0.45594000000E+02  0.51100000000E-03 0.  1.
    9900012    2    1    2    0    0  0.47820127164E+00 -0.48128573309E+00 -0.96583832301E+00  0.90007679671E+02  0.89999940243E+02 0.  0.
         12    1    1    2    0    0 -0.47820127164E+00  0.48128573309E+00  0.96583832301E+00  0.11803203291E+01  0.00000000000E+00 0. -1.
         11    1    3    3    0    0 -0.64069169580E+01 -0.24858478734E+01 -0.64783654161E+01  0.94444292196E+01  0.51100000000E-03 0. -1.
        -11    1    3    3    0    0  0.23371283701E+02  0.27051213402E+02 -0.20201625325E+02  0.41062034952E+02  0.51100000000E-03 0.  1.
         12    1    3    3    0    0 -0.16486165471E+02 -0.25046651262E+02  0.25714152418E+02  0.39501215500E+02  0.00000000000E+00 0. -1.
</event>
<event>
 7    1  0.2090370E-015  0.9000779E+02  0.7816164E-02  0.1186339E+00
        -11   -1    0    0    0    0  0.00000000000E+00  0.00000000000E+00  0.45593999997E+02  0.45594000000E+02  0.51100000000E-03 0.  1.
         11   -1    0    0    0    0 -0.00000000000E+00 -0.00000000000E+00 -0.45593999997E+02  0.45594000000E+02  0.51100000000E-03 0. -1.
    9900012    2    1    2    0    0 -0.11460330005E+01 -0.97375008815E-01 -0.26462402855E+00  0.90007788406E+02  0.90000050413E+02 0.  0.
         12    1    1    2    0    0  0.11460330005E+01  0.97375008815E-01  0.26462402855E+00  0.11802115942E+01  0.00000000000E+00 0. -1.
         11    1    3    3    0    0  0.35081387129E+02  0.14271207017E+02 -0.12666106572E+02  0.39934963735E+02  0.51100000000E-03 0. -1.
        -11    1    3    3    0    0  0.36558359717E+01 -0.18362224609E+01  0.67411999143E+01  0.78854693027E+01  0.51100000000E-03 0.  1.
        -12    1    3    3    0    0 -0.39883256101E+02 -0.12532359564E+02  0.56602826291E+01  0.42187355368E+02  0.00000000000E+00 0.  1.
</event>
<event>
 7    1  0.2090370E-015  0.9000775E+02  0.7816164E-02  0.1186339E+00
        -11   -1    0    0    0    0  0.00000000000E+00  0.00000000000E+00  0.45593999997E+02  0.45594000000E+02  0.51100000000E-03 0.  1.
         11   -1    0    0    0    0 -0.00000000000E+00 -0.00000000000E+00 -0.45593999997E+02  0.45594000000E+02  0.51100000000E-03 0. -1.
    9900012    2    1    2    0    0  0.49538196961E+00  0.17629121018E-01 -0.10711131806E+01  0.90007746838E+02  0.90000008296E+02 0.  0.
         12    1    1    2    0    0 -0.49538196961E+00 -0.17629121018E-01  0.10711131806E+01  0.11802531624E+01  0.00000000000E+00 0. -1.
         11    1    3    3    0    0 -0.57993365691E+01  0.10178683354E+02  0.26521841568E+01  0.12011327176E+02  0.51100000000E-03 0. -1.
        -11    1    3    3    0    0  0.10049166920E+02  0.32629743032E+02 -0.72267604002E+01  0.34898595277E+02  0.51100000000E-03 0.  1.
         12    1    3    3    0    0 -0.37544483813E+01 -0.42790797266E+02  0.35034630628E+01  0.43097824385E+02  0.00000000000E+00 0. -1.
</event>
<event>
 7    1  0.2090370E-015  0.9000774E+02  0.7816164E-02  0.1186339E+00
        -11   -1    0    0    0    0  0.00000000000E+00  0.00000000000E+00  0.45593999997E+02  0.45594000000E+02  0.51100000000E-03 0.  1.
         11   -1    0    0    0    0 -0.00000000000E+00 -0.00000000000E+00 -0.45593999997E+02  0.45594000000E+02  0.51100000000E-03 0. -1.
    9900012    2    1    2    0    0  0.44912743734E+00  0.75387546181E+00  0.78928925622E+00  0.90007736810E+02  0.89999998136E+02 0.  0.
         12    1    1    2    0    0 -0.44912743734E+00 -0.75387546181E+00 -0.78928925622E+00  0.11802631897E+01  0.00000000000E+00 0. -1.
         11    1    3    3    0    0 -0.31187940238E+02  0.11103175294E+02  0.18112039058E+02  0.37736111047E+02  0.51100000000E-03 0. -1.
        -11    1    3    3    0    0 -0.57983595742E+01  0.60658276831E+01 -0.38488677988E+01  0.92319566088E+01  0.51100000000E-03 0.  1.
        -12    1    3    3    0    0  0.37435427249E+02 -0.16415127516E+02 -0.13473882003E+02  0.43039669154E+02  0.00000000000E+00 0.  1.
</event>
<event>
 7    1  0.2095058E-015  0.9000769E+02  0.7816164E-02  0.1186339E+00
        -11   -1    0    0    0    0  0.00000000000E+00  0.00000000000E+00  0.45593999997E+02  0.45594000000E+02  0.51100000000E-03 0. -1.
         11   -1    0    0    0    0 -0.00000000000E+00 -0.00000000000E+00 -0.45593999997E+02  0.45594000000E+02  0.51100000000E-03 0.  1.
    9900012    2    1    2    0    0  0.74834460537E+00 -0.49450318430E+00 -0.76718765331E+00  0.90007690743E+02  0.89999951460E+02 0.  0.
         12    1    1    2    0    0 -0.74834460537E+00  0.49450318430E+00  0.76718765331E+00  0.11803092574E+01  0.00000000000E+00 0. -1.
         11    1    3    3    0    0  0.38555280408E+00  0.29372869083E+02  0.22336208543E+02  0.36902849503E+02  0.51100000000E-03 0. -1.
        -11    1    3    3    0    0  0.54687651171E+01  0.19219710043E+01  0.69576881551E+01  0.90559808509E+01  0.51100000000E-03 0.  1.
        -12    1    3    3    0    0 -0.51059733158E+01 -0.31789343271E+02 -0.30061084352E+02  0.44048860388E+02  0.00000000000E+00 0.  1.
</event>
<event>
 7    1  0.2090370E-015  0.9000781E+02  0.7816164E-02  0.1186339E+00
        -11   -1    0    0    0    0  0.00000000000E+00  0.00000000000E+00  0.45593999997E+02  0.45594000000E+02  0.51100000000E-03 0.  1.
         11   -1    0    0    0    0 -0.00000000000E+00 -0.00000000000E+00 -0.45593999997E+02  0.45594000000E+02  0.51100000000E-03 0. -1.
    9900012    2    1    2    0    0  0.58111258311E+00  0.35252944086E+00  0.96482131502E+00  0.90007809757E+02  0.90000072045E+02 0.  0.
         12    1    1    2    0    0 -0.58111258311E+00 -0.35252944086E+00 -0.96482131502E+00  0.11801902435E+01  0.00000000000E+00 0. -1.
         11    1    3    3    0    0  0.33371683819E+02 -0.46220968966E+01 -0.16433850601E+02  0.37484723641E+02  0.51100000000E-03 0. -1.
        -11    1    3    3    0    0  0.56414514780E+01  0.50280431010E+01 -0.39842816606E+01  0.85429323313E+01  0.51100000000E-03 0.  1.
        -12    1    3    3    0    0 -0.38432022714E+02 -0.53416763598E-01  0.21382953577E+02  0.43980153784E+02  0.00000000000E+00 0.  1.
</event>
<event>
 7    1  0.2090370E-015  0.9000777E+02  0.7816164E-02  0.1186339E+00
        -11   -1    0    0    0    0  0.00000000000E+00  0.00000000000E+00  0.45593999997E+02  0.45594000000E+02  0.51100000000E-03 0. -1.
         11   -1    0    0    0    0 -0.00000000000E+00 -0.00000000000E+00 -0.45593999997E+02  0.45594000000E+02  0.51100000000E-03 0.  1.
    9900012    2    1    2    0    0 -0.96689610203E+00  0.59698267454E-01 -0.67416524387E+00  0.90007766662E+02  0.90000028382E+02 0.  0.
         12    1    1    2    0    0  0.96689610203E+00 -0.59698267454E-01  0.67416524387E+00  0.11802333377E+01  0.00000000000E+00 0. -1.
         11    1    3    3    0    0 -0.40876375155E+01  0.31702055248E+02 -0.22773996115E+02  0.39247725880E+02  0.51100000000E-03 0. -1.
        -11    1    3    3    0    0  0.55908840793E+00  0.69062501090E+01  0.48052463125E+01  0.84320378794E+01  0.51100000000E-03 0.  1.
        -12    1    3    3    0    0  0.25616530055E+01 -0.38548607090E+02  0.17294584559E+02  0.42328002903E+02  0.00000000000E+00 0.  1.
</event>
<event>
 7    1  0.2090370E-015  0.9000665E+02  0.7816164E-02  0.1186341E+00
        -11   -1    0    0    0    0  0.00000000000E+00  0.00000000000E+00  0.45593999997E+02  0.45594000000E+02  0.51100000000E-03 0. -1.
         11   -1    0    0    0    0 -0.00000000000E+00 -0.00000000000E+00 -0.45593999997E+02  0.45594000000E+02  0.51100000000E-03 0.  1.
    9900012    2    1    2    0    0 -0.20453315906E+00  0.11362583425E+01  0.25036270859E+00  0.90006645557E+02  0.89998892472E+02 0.  0.
         12    1    1    2    0    0  0.20453315906E+00 -0.11362583425E+01 -0.25036270859E+00  0.11813544430E+01  0.00000000000E+00 0. -1.
         11    1    3    3    0    0  0.15027182352E+02  0.98157903520E+01  0.15306268731E+02  0.23589146072E+02  0.51100000000E-03 0. -1.
        -11    1    3    3    0    0  0.33176984875E+01  0.13025422132E+02 -0.30948180585E+02  0.33741052544E+02  0.51100000000E-03 0.  1.
         12    1    3    3    0    0 -0.18549413998E+02 -0.21704954141E+02  0.15892274563E+02  0.32676446942E+02  0.00000000000E+00 0. -1.
</event>
<event>
 7    1  0.2090370E-015  0.9000854E+02  0.7816164E-02  0.1186337E+00
        -11   -1    0    0    0    0  0.00000000000E+00  0.00000000000E+00  0.45593999997E+02  0.45594000000E+02  0.51100000000E-03 0. -1.
         11   -1    0    0    0    0 -0.00000000000E+00 -0.00000000000E+00 -0.45593999997E+02  0.45594000000E+02  0.51100000000E-03 0.  1.
    9900012    2    1    2    0    0 -0.35385958286E+00 -0.10914779294E+01 -0.27309738159E+00  0.90008541287E+02  0.90000813229E+02 0.  0.
         12    1    1    2    0    0  0.35385958286E+00  0.10914779294E+01  0.27309738159E+00  0.11794587126E+01  0.00000000000E+00 0. -1.
         11    1    3    3    0    0  0.95089249046E+01  0.17675167297E+01 -0.18023760755E+01  0.98383092048E+01  0.51100000000E-03 0. -1.
        -11    1    3    3    0    0 -0.85693519619E+01  0.33576353234E+02 -0.17743651705E+02  0.38931253071E+02  0.51100000000E-03 0.  1.
         12    1    3    3    0    0 -0.12934325255E+01 -0.36435347893E+02  0.19272930399E+02  0.41238979012E+02  0.00000000000E+00 0. -1.
</event>
<event>
 7    1  0.2090370E-015  0.9000768E+02  0.7816164E-02  0.1186339E+00
        -11   -1    0    0    0    0  0.00000000000E+00  0.00000000000E+00  0.45593999997E+02  0.45594000000E+02  0.51100000000E-03 0.  1.
         11   -1    0    0    0    0 -0.00000000000E+00 -0.00000000000E+00 -0.45593999997E+02  0.45594000000E+02  0.51100000000E-03 0. -1.
    9900012    2    1    2    0    0 -0.40192528172E+00 -0.12856605673E+00  0.11023128161E+01  0.90007675169E+02  0.89999935681E+02 0.  0.
         12    1    1    2    0    0  0.40192528172E+00  0.12856605673E+00 -0.11023128161E+01  0.11803248314E+01  0.00000000000E+00 0. -1.
         11    1    3    3    0    0 -0.49601450983E+01  0.36369127858E+02 -0.20689579785E+01  0.36764073331E+02  0.51100000000E-03 0. -1.
        -11    1    3    3    0    0  0.63542303989E+01  0.68964718694E+01 -0.17329150820E+01  0.95362761679E+01  0.51100000000E-03 0.  1.
        -12    1    3    3    0    0 -0.17960105823E+01 -0.43394165784E+02  0.49041858765E+01  0.43707325670E+02  0.00000000000E+00 0.  1.
</event>
<event>
 7    1  0.2090370E-015  0.9000772E+02  0.7816164E-02  0.1186339E+00
        -11   -1    0    0    0    0  0.00000000000E+00  0.00000000000E+00  0.45593999997E+02  0.45594000000E+02  0.51100000000E-03 0. -1.
         11   -1    0    0    0    0 -0.00000000000E+00 -0.00000000000E+00 -0.45593999997E+02  0.45594000000E+02  0.51100000000E-03 0.  1.
    9900012    2    1    2    0    0 -0.78956726073E+00  0.70330397501E-01 -0.87447264192E+00  0.90007718158E+02  0.89999979238E+02 0.  0.
         12    1    1    2    0    0  0.78956726073E+00 -0.70330397501E-01  0.87447264192E+00  0.11802818416E+01  0.00000000000E+00 0. -1.
         11    1    3    3    0    0  0.20944882695E+01 -0.34578568250E+02  0.58999616192E+01  0.35140771345E+02  0.51100000000E-03 0. -1.
        -11    1    3    3    0    0  0.15767965396E+02  0.80840732446E+00 -0.13241654398E+01  0.15844105197E+02  0.51100000000E-03 0.  1.
        -12    1    3    3    0    0 -0.18652020926E+02  0.33840491323E+02 -0.54502688213E+01  0.39022841617E+02  0.00000000000E+00 0.  1.
</event>
<event>
 7    1  0.2090370E-015  0.9000780E+02  0.7816164E-02  0.1186339E+00
        -11   -1    0    0    0    0  0.00000000000E+00  0.00000000000E+00  0.45593999997E+02  0.45594000000E+02  0.51100000000E-03 0. -1.
         11   -1    0    0    0    0 -0.00000000000E+00 -0.00000000000E+00 -0.45593999997E+02  0.45594000000E+02  0.51100000000E-03 0.  1.
    9900012    2    1    2    0    0 -0.58814544638E+00  0.46647210615E+00 -0.91069648283E+00  0.90007796892E+02  0.90000059011E+02 0.  0.
         12    1    1    2    0    0  0.58814544638E+00 -0.46647210615E+00  0.91069648283E+00  0.11802031078E+01  0.00000000000E+00 0. -1.
         11    1    3    3    0    0 -0.36589657953E+02  0.94091493067E+01 -0.12464487160E+02  0.39783144675E+02  0.51100000000E-03 0. -1.
        -11    1    3    3    0    0 -0.14622074238E+01 -0.45157908193E+01 -0.67837972888E+01  0.82795122556E+01  0.51100000000E-03 0.  1.
        -12    1    3    3    0    0  0.37463719930E+02 -0.44268863813E+01  0.18337587966E+02  0.41945139962E+02  0.00000000000E+00 0.  1.
</event>
<event>
 7    1  0.2090370E-015  0.9000775E+02  0.7816164E-02  0.1186339E+00
        -11   -1    0    0    0    0  0.00000000000E+00  0.00000000000E+00  0.45593999997E+02  0.45594000000E+02  0.51100000000E-03 0.  1.
         11   -1    0    0    0    0 -0.00000000000E+00 -0.00000000000E+00 -0.45593999997E+02  0.45594000000E+02  0.51100000000E-03 0. -1.
    9900012    2    1    2    0    0 -0.11293319368E+01  0.28364334643E+00  0.19270223016E+00  0.90007754974E+02  0.90000016540E+02 0.  0.
         12    1    1    2    0    0  0.11293319368E+01 -0.28364334643E+00 -0.19270223016E+00  0.11802450258E+01  0.00000000000E+00 0. -1.
         11    1    3    3    0    0 -0.43139830123E+01 -0.10400974573E+02 -0.11118688224E+02  0.15824536315E+02  0.51100000000E-03 0. -1.
        -11    1    3    3    0    0 -0.16828987097E+02 -0.17169360127E+02  0.27269320676E+02  0.36354058704E+02  0.51100000000E-03 0.  1.
         12    1    3    3    0    0  0.20013638172E+02  0.27853978047E+02 -0.15957930222E+02  0.37829159955E+02  0.00000000000E+00 0. -1.
</event>
<event>
 7    1  0.2090370E-015  0.9000779E+02  0.7816164E-02  0.1186339E+00
        -11   -1    0    0    0    0  0.00000000000E+00  0.00000000000E+00  0.45593999997E+02  0.45594000000E+02  0.51100000000E-03 0.  1.
         11   -1    0    0    0    0 -0.00000000000E+00 -0.00000000000E+00 -0.45593999997E+02  0.45594000000E+02  0.51100000000E-03 0. -1.
    9900012    2    1    2    0    0  0.11223871964E+00 -0.49019879382E+00  0.10677144523E+01  0.90007785384E+02  0.90000047351E+02 0.  0.
         12    1    1    2    0    0 -0.11223871964E+00  0.49019879382E+00 -0.10677144523E+01  0.11802146158E+01  0.00000000000E+00 0. -1.
         11    1    3    3    0    0  0.35996052701E+02 -0.11500869073E+02  0.25860979230E+01  0.37877086771E+02  0.51100000000E-03 0. -1.
        -11    1    3    3    0    0  0.71494541393E+01  0.47085383083E+01 -0.11442592384E+01  0.86368024729E+01  0.51100000000E-03 0.  1.
        -12    1    3    3    0    0 -0.43033268121E+02  0.63021319707E+01 -0.37412423232E+00  0.43493896141E+02  0.00000000000E+00 0.  1.
</event>
<event>
 7    1  0.2090370E-015  0.9000783E+02  0.7816164E-02  0.1186339E+00
        -11   -1    0    0    0    0  0.00000000000E+00  0.00000000000E+00  0.45593999997E+02  0.45594000000E+02  0.51100000000E-03 0. -1.
         11   -1    0    0    0    0 -0.00000000000E+00 -0.00000000000E+00 -0.45593999997E+02  0.45594000000E+02  0.51100000000E-03 0.  1.
    9900012    2    1    2    0    0  0.83730715721E+00  0.66398987791E-01 -0.82903414344E+00  0.90007834879E+02  0.90000097500E+02 0.  0.
         12    1    1    2    0    0 -0.83730715721E+00 -0.66398987791E-01  0.82903414344E+00  0.11801651207E+01  0.00000000000E+00 0. -1.
         11    1    3    3    0    0  0.23432576721E+01  0.40698966446E+01  0.86753371127E+01  0.98649069685E+01  0.51100000000E-03 0. -1.
        -11    1    3    3    0    0 -0.26568143708E+02  0.28101054712E+02 -0.72972140947E+01  0.39354604175E+02  0.51100000000E-03 0.  1.
         12    1    3    3    0    0  0.25062193193E+02 -0.32104552369E+02 -0.22071571615E+01  0.40788323736E+02  0.00000000000E+00 0. -1.
</event>
<event>
 7    1  0.2090370E-015  0.9000794E+02  0.7816164E-02  0.1186339E+00
        -11   -1    0    0    0    0  0.00000000000E+00  0.00000000000E+00  0.45593999997E+02  0.45594000000E+02  0.51100000000E-03 0. -1.
         11   -1    0    0    0    0 -0.00000000000E+00 -0.00000000000E+00 -0.45593999997E+02  0.45594000000E+02  0.51100000000E-03 0.  1.
    9900012    2    1    2    0    0 -0.10462127847E+01  0.41378034749E+00 -0.35603349682E+00  0.90007942706E+02  0.90000206749E+02 0.  0.
         12    1    1    2    0    0  0.10462127847E+01 -0.41378034749E+00  0.35603349682E+00  0.11800572943E+01  0.00000000000E+00 0. -1.
         11    1    3    3    0    0  0.29164686278E+01  0.93306937375E+01 -0.15943334027E+01  0.99050257012E+01  0.51100000000E-03 0. -1.
        -11    1    3    3    0    0 -0.32155257742E+02  0.18671703205E+02  0.12250015266E+02  0.39149150378E+02  0.51100000000E-03 0.  1.
         12    1    3    3    0    0  0.28192576329E+02 -0.27588616595E+02 -0.11011715360E+02  0.40953766627E+02  0.00000000000E+00 0. -1.
</event>
<event>
 7    1  0.2090370E-015  0.9000824E+02  0.7816164E-02  0.1186338E+00
        -11   -1    0    0    0    0  0.00000000000E+00  0.00000000000E+00  0.45593999997E+02  0.45594000000E+02  0.51100000000E-03 0.  1.
         11   -1    0    0    0    0 -0.00000000000E+00 -0.00000000000E+00 -0.45593999997E+02  0.45594000000E+02  0.51100000000E-03 0. -1.
    9900012    2    1    2    0    0  0.33269602702E-01 -0.10147763662E+01  0.60079367843E+00  0.90008241133E+02  0.90000509115E+02 0.  0.
         12    1    1    2    0    0 -0.33269602702E-01  0.10147763662E+01 -0.60079367843E+00  0.11797588669E+01  0.00000000000E+00 0. -1.
         11    1    3    3    0    0  0.79598411472E+01 -0.67228942396E+01 -0.36348717146E+00  0.10425377750E+02  0.51100000000E-03 0. -1.
        -11    1    3    3    0    0  0.23620911203E+02  0.30767302324E+02 -0.39759058733E+01  0.38992078248E+02  0.51100000000E-03 0.  1.
         12    1    3    3    0    0 -0.31547482747E+02 -0.25059184450E+02  0.49401867232E+01  0.40590785135E+02  0.00000000000E+00 0. -1.
</event>
<event>
 7    1  0.2090370E-015  0.9000814E+02  0.7816164E-02  0.1186338E+00
        -11   -1    0    0    0    0  0.00000000000E+00  0.00000000000E+00  0.45593999997E+02  0.45594000000E+02  0.51100000000E-03 0. -1.
         11   -1    0    0    0    0 -0.00000000000E+00 -0.00000000000E+00 -0.45593999997E+02  0.45594000000E+02  0.51100000000E-03 0.  1.
    9900012    2    1    2    0    0  0.11214769486E+01  0.28333227021E+00 -0.23256639464E+00  0.90008137784E+02  0.90000404402E+02 0.  0.
         12    1    1    2    0    0 -0.11214769486E+01 -0.28333227021E+00  0.23256639464E+00  0.11798622163E+01  0.00000000000E+00 0. -1.
         11    1    3    3    0    0 -0.14990316289E+02  0.55093731753E+01 -0.37638232838E+01  0.16408203473E+02  0.51100000000E-03 0. -1.
        -11    1    3    3    0    0 -0.80412553605E+01  0.26408393859E+01 -0.30205726548E+02  0.31369120755E+02  0.51100000000E-03 0.  1.
         12    1    3    3    0    0  0.24153048599E+02 -0.78668802910E+01  0.33736983437E+02  0.42230813555E+02  0.00000000000E+00 0. -1.
</event>
<event>
 7    1  0.2090370E-015  0.9000773E+02  0.7816164E-02  0.1186339E+00
        -11   -1    0    0    0    0  0.00000000000E+00  0.00000000000E+00  0.45593999997E+02  0.45594000000E+02  0.51100000000E-03 0.  1.
         11   -1    0    0    0    0 -0.00000000000E+00 -0.00000000000E+00 -0.45593999997E+02  0.45594000000E+02  0.51100000000E-03 0. -1.
    9900012    2    1    2    0    0  0.20314503535E+00  0.11204120692E+01  0.31054395162E+00  0.90007733650E+02  0.89999994935E+02 0.  0.
         12    1    1    2    0    0 -0.20314503535E+00 -0.11204120692E+01 -0.31054395162E+00  0.11802663497E+01  0.00000000000E+00 0. -1.
         11    1    3    3    0    0 -0.15002470966E+02 -0.11128574721E+02 -0.23700274987E+02  0.30176519765E+02  0.51100000000E-03 0. -1.
        -11    1    3    3    0    0  0.93884407187E+00 -0.11656552582E+01 -0.15585388735E+02  0.15657091769E+02  0.51100000000E-03 0.  1.
        -12    1    3    3    0    0  0.14266771930E+02  0.13414642048E+02  0.39596207674E+02  0.44174122116E+02  0.00000000000E+00 0.  1.
</event>
<event>
 7    1  0.2241419E-015  0.9000763E+02  0.7816164E-02  0.1186339E+00
        -11   -1    0    0    0    0  0.00000000000E+00  0.00000000000E+00  0.45593999997E+02  0.45594000000E+02  0.51100000000E-03 0.  1.
         11   -1    0    0    0    0 -0.00000000000E+00 -0.00000000000E+00 -0.45593999997E+02  0.45594000000E+02  0.51100000000E-03 0. -1.
    9900012    2    1    2    0    0  0.99502444553E+00 -0.25450910354E+00 -0.58174620653E+00  0.90007628372E+02  0.89999888267E+02 0.  0.
         12    1    1    2    0    0 -0.99502444553E+00  0.25450910354E+00  0.58174620653E+00  0.11803716278E+01  0.00000000000E+00 0. -1.
         11    1    3    3    0    0  0.22883930536E+02 -0.29380971512E+02  0.10004058688E+02  0.38561599477E+02  0.51100000000E-03 0. -1.
        -11    1    3    3    0    0  0.53484182009E+00 -0.26238728666E+00  0.94025970372E+01  0.94214507463E+01  0.51100000000E-03 0.  1.
        -12    1    3    3    0    0 -0.22423747910E+02  0.29388849695E+02 -0.19988401932E+02  0.42024578148E+02  0.00000000000E+00 0.  1.
</event>
<event>
 7    1  0.2574996E-015  0.9000759E+02  0.7816164E-02  0.1186339E+00
        -11   -1    0    0    0    0  0.00000000000E+00  0.00000000000E+00  0.45593999997E+02  0.45594000000E+02  0.51100000000E-03 0.  1.
         11   -1    0    0    0    0 -0.00000000000E+00 -0.00000000000E+00 -0.45593999997E+02  0.45594000000E+02  0.51100000000E-03 0. -1.
    9900012    2    1    2    0    0 -0.14910213223E+00  0.11151523628E+01  0.35717382926E+00  0.90007589316E+02  0.89999848695E+02 0.  0.
         12    1    1    2    0    0  0.14910213223E+00 -0.11151523628E+01 -0.35717382926E+00  0.11804106838E+01  0.00000000000E+00 0. -1.
         11    1    3    3    0    0  0.15594624136E+02 -0.27073935193E+02 -0.17486722618E+02  0.35804688757E+02  0.51100000000E-03 0. -1.
        -11    1    3    3    0    0  0.10421030314E+01 -0.94055541526E+01  0.35276367671E+00  0.94696816270E+01  0.51100000000E-03 0.  1.
        -12    1    3    3    0    0 -0.16785829300E+02  0.37594641708E+02  0.17491132770E+02  0.44733218932E+02  0.00000000000E+00 0.  1.
</event>
<event>
 7    1  0.2090370E-015  0.9000775E+02  0.7816164E-02  0.1186339E+00
        -11   -1    0    0    0    0  0.00000000000E+00  0.00000000000E+00  0.45593999997E+02  0.45594000000E+02  0.51100000000E-03 0. -1.
         11   -1    0    0    0    0 -0.00000000000E+00 -0.00000000000E+00 -0.45593999997E+02  0.45594000000E+02  0.51100000000E-03 0.  1.
    9900012    2    1    2    0    0 -0.10354448050E+01 -0.56606445908E+00  0.20378778948E-01  0.90007749937E+02  0.90000011436E+02 0.  0.
         12    1    1    2    0    0  0.10354448050E+01  0.56606445908E+00 -0.20378778948E-01  0.11802500628E+01  0.00000000000E+00 0. -1.
         11    1    3    3    0    0 -0.28831587641E+02 -0.16422169647E+02 -0.19635885771E+02  0.38555364246E+02  0.51100000000E-03 0. -1.
        -11    1    3    3    0    0 -0.84300551918E+01  0.16027442805E+01  0.27552749072E+01  0.90125556775E+01  0.51100000000E-03 0.  1.
        -12    1    3    3    0    0  0.36226198028E+02  0.14253360908E+02  0.16900989643E+02  0.42439830014E+02  0.00000000000E+00 0.  1.
</event>
<event>
 7    1  0.2090370E-015  0.9000769E+02  0.7816164E-02  0.1186339E+00
        -11   -1    0    0    0    0  0.00000000000E+00  0.00000000000E+00  0.45593999997E+02  0.45594000000E+02  0.51100000000E-03 0.  1.
         11   -1    0    0    0    0 -0.00000000000E+00 -0.00000000000E+00 -0.45593999997E+02  0.45594000000E+02  0.51100000000E-03 0. -1.
    9900012    2    1    2    0    0  0.10421124024E+01  0.55295586272E+00  0.37089406670E-01  0.90007688995E+02  0.89999949689E+02 0.  0.
         12    1    1    2    0    0 -0.10421124024E+01 -0.55295586272E+00 -0.37089406670E-01  0.11803110054E+01  0.00000000000E+00 0. -1.
         11    1    3    3    0    0  0.31027464874E+01  0.29019433842E+00 -0.99675078859E+01  0.10443297479E+02  0.51100000000E-03 0. -1.
        -11    1    3    3    0    0 -0.36785981403E+02 -0.51924814066E+01 -0.10837007163E+02  0.38698979514E+02  0.51100000000E-03 0.  1.
         12    1    3    3    0    0  0.34725347318E+02  0.54552429309E+01  0.20841604455E+02  0.40865412001E+02  0.00000000000E+00 0. -1.
</event>
<event>
 7    1  0.2090370E-015  0.9000815E+02  0.7816164E-02  0.1186338E+00
        -11   -1    0    0    0    0  0.00000000000E+00  0.00000000000E+00  0.45593999997E+02  0.45594000000E+02  0.51100000000E-03 0. -1.
         11   -1    0    0    0    0 -0.00000000000E+00 -0.00000000000E+00 -0.45593999997E+02  0.45594000000E+02  0.51100000000E-03 0.  1.
    9900012    2    1    2    0    0  0.37147956851E+00  0.75612516034E+00 -0.82602453880E+00  0.90008153033E+02  0.90000419852E+02 0.  0.
         12    1    1    2    0    0 -0.37147956851E+00 -0.75612516034E+00  0.82602453880E+00  0.11798469675E+01  0.00000000000E+00 0. -1.
         11    1    3    3    0    0  0.46682122559E+01  0.68981700770E+01  0.40951279176E+01  0.92815423826E+01  0.51100000000E-03 0. -1.
        -11    1    3    3    0    0  0.11933929213E+02  0.34651601495E+02 -0.32097365774E+01  0.36789326737E+02  0.51100000000E-03 0.  1.
         12    1    3    3    0    0 -0.16230661901E+02 -0.40793646412E+02 -0.17114158790E+01  0.43937283912E+02  0.00000000000E+00 0. -1.
</event>
<event>
 7    1  0.2090370E-015  0.9000804E+02  0.7816164E-02  0.1186338E+00
        -11   -1    0    0    0    0  0.00000000000E+00  0.00000000000E+00  0.45593999997E+02  0.45594000000E+02  0.51100000000E-03 0.  1.
         11   -1    0    0    0    0 -0.00000000000E+00 -0.00000000000E+00 -0.45593999997E+02  0.45594000000E+02  0.51100000000E-03 0. -1.
    9900012    2    1    2    0    0  0.10124192326E+01  0.57085732816E+00  0.20357042537E+00  0.90008037412E+02  0.90000302705E+02 0.  0.
         12    1    1    2    0    0 -0.10124192326E+01 -0.57085732816E+00 -0.20357042537E+00  0.11799625883E+01  0.00000000000E+00 0. -1.
         11    1    3    3    0    0 -0.44666554435E+01 -0.21786009051E+02 -0.16850495371E+02  0.27901978348E+02  0.51100000000E-03 0. -1.
        -11    1    3    3    0    0 -0.14915660344E+02 -0.11599984646E+02 -0.20995268524E+00  0.18896577671E+02  0.51100000000E-03 0.  1.
        -12    1    3    3    0    0  0.20394735020E+02  0.33956851025E+02  0.17264018481E+02  0.43209481393E+02  0.00000000000E+00 0.  1.
</event>
<event>
 7    1  0.2090370E-015  0.9000777E+02  0.7816164E-02  0.1186339E+00
        -11   -1    0    0    0    0  0.00000000000E+00  0.00000000000E+00  0.45593999997E+02  0.45594000000E+02  0.51100000000E-03 0.  1.
         11   -1    0    0    0    0 -0.00000000000E+00 -0.00000000000E+00 -0.45593999997E+02  0.45594000000E+02  0.51100000000E-03 0. -1.
    9900012    2    1    2    0    0 -0.10710010259E+01  0.49323424582E+00 -0.51187079051E-01  0.90007769795E+02  0.90000031557E+02 0.  0.
         12    1    1    2    0    0  0.10710010259E+01 -0.49323424582E+00  0.51187079051E-01  0.11802302046E+01  0.00000000000E+00 0. -1.
         11    1    3    3    0    0 -0.11479199690E+01  0.13518827962E+01  0.10928509220E+02  0.11071477832E+02  0.51100000000E-03 0. -1.
        -11    1    3    3    0    0 -0.12543127554E+02  0.31637161277E+02  0.13208480729E+02  0.36506218456E+02  0.51100000000E-03 0.  1.
         12    1    3    3    0    0  0.12620046497E+02 -0.32495809827E+02 -0.24188177028E+02  0.42430073508E+02  0.00000000000E+00 0. -1.
</event>
<event>
 7    1  0.2090370E-015  0.9000811E+02  0.7816164E-02  0.1186338E+00
        -11   -1    0    0    0    0  0.00000000000E+00  0.00000000000E+00  0.45593999997E+02  0.45594000000E+02  0.51100000000E-03 0. -1.
         11   -1    0    0    0    0 -0.00000000000E+00 -0.00000000000E+00 -0.45593999997E+02  0.45594000000E+02  0.51100000000E-03 0.  1.
    9900012    2    1    2    0    0 -0.52541183948E+00  0.61688850282E-01 -0.10546503942E+01  0.90008105696E+02  0.90000371890E+02 0.  0.
         12    1    1    2    0    0  0.52541183948E+00 -0.61688850282E-01  0.10546503942E+01  0.11798943043E+01  0.00000000000E+00 0. -1.
         11    1    3    3    0    0  0.18389740538E+02 -0.13069065820E+02 -0.32172001765E+02  0.39294029270E+02  0.51100000000E-03 0. -1.
        -11    1    3    3    0    0 -0.52558460924E+01 -0.12451733610E+01 -0.63414995567E+01  0.83300055063E+01  0.51100000000E-03 0.  1.
        -12    1    3    3    0    0 -0.13659306285E+02  0.14375928031E+02  0.37458850927E+02  0.42384070920E+02  0.00000000000E+00 0.  1.
</event>
<event>
 7    1  0.2090370E-015  0.9000776E+02  0.7816164E-02  0.1186339E+00
        -11   -1    0    0    0    0  0.00000000000E+00  0.00000000000E+00  0.45593999997E+02  0.45594000000E+02  0.51100000000E-03 0. -1.
         11   -1    0    0    0    0 -0.00000000000E+00 -0.00000000000E+00 -0.45593999997E+02  0.45594000000E+02  0.51100000000E-03 0.  1.
    9900012    2    1    2    0    0  0.60245610713E+00 -0.90588046776E+00  0.45760200324E+00  0.90007757493E+02  0.90000019092E+02 0.  0.
         12    1    1    2    0    0 -0.60245610713E+00  0.90588046776E+00 -0.45760200324E+00  0.11802425074E+01  0.00000000000E+00 0. -1.
         11    1    3    3    0    0 -0.89098786495E+01 -0.13569512872E+01 -0.20941953838E+01  0.92527244048E+01  0.51100000000E-03 0. -1.
        -11    1    3    3    0    0 -0.14150219785E+02  0.26298562885E+02 -0.22741953571E+02  0.37537176003E+02  0.51100000000E-03 0.  1.
         12    1    3    3    0    0  0.23662554542E+02 -0.25847492065E+02  0.25293750958E+02  0.43217857085E+02  0.00000000000E+00 0. -1.
</event>
<event>
 7    1  0.2090370E-015  0.9000774E+02  0.7816164E-02  0.1186339E+00
        -11   -1    0    0    0    0  0.00000000000E+00  0.00000000000E+00  0.45593999997E+02  0.45594000000E+02  0.51100000000E-03 0. -1.
         11   -1    0    0    0    0 -0.00000000000E+00 -0.00000000000E+00 -0.45593999997E+02  0.45594000000E+02  0.51100000000E-03 0.  1.
    9900012    2    1    2    0    0 -0.26503480906E+00  0.10214149815E+01 -0.52866823550E+00  0.90007736420E+02  0.89999997741E+02 0.  0.
         12    1    1    2    0    0  0.26503480906E+00 -0.10214149815E+01  0.52866823550E+00  0.11802635798E+01  0.00000000000E+00 0. -1.
         11    1    3    3    0    0  0.33902634080E+00 -0.76092945680E+01 -0.59895239861E+01  0.96897213852E+01  0.51100000000E-03 0. -1.
        -11    1    3    3    0    0 -0.34396729959E+02  0.22145890650E+02 -0.76785115709E+01  0.41623731749E+02  0.51100000000E-03 0.  1.
         12    1    3    3    0    0  0.33792668809E+02 -0.13515181101E+02  0.13139367322E+02  0.38694283286E+02  0.00000000000E+00 0. -1.
</event>
<event>
 7    1  0.2090370E-015  0.9000808E+02  0.7816164E-02  0.1186338E+00
        -11   -1    0    0    0    0  0.00000000000E+00  0.00000000000E+00  0.45593999997E+02  0.45594000000E+02  0.51100000000E-03 0. -1.
         11   -1    0    0    0    0 -0.00000000000E+00 -0.00000000000E+00 -0.45593999997E+02  0.45594000000E+02  0.51100000000E-03 0.  1.
    9900012    2    1    2    0    0 -0.46868424560E+00 -0.10601018454E+01 -0.22076204883E+00  0.90008077661E+02  0.90000343485E+02 0.  0.
         12    1    1    2    0    0  0.46868424560E+00  0.10601018454E+01  0.22076204883E+00  0.11799223394E+01  0.00000000000E+00 0. -1.
         11    1    3    3    0    0 -0.71548221028E+01  0.24849042892E+01  0.43885670432E+01  0.87536135169E+01  0.51100000000E-03 0. -1.
        -11    1    3    3    0    0 -0.32130485114E+02 -0.21133107721E+02 -0.75138069901E+00  0.38464800647E+02  0.51100000000E-03 0.  1.
         12    1    3    3    0    0  0.38816622972E+02  0.17588101586E+02 -0.38579483930E+01  0.42789663496E+02  0.00000000000E+00 0. -1.
</event>
<event>
 7    1  0.2090370E-015  0.9000774E+02  0.7816164E-02  0.1186339E+00
        -11   -1    0    0    0    0  0.00000000000E+00  0.00000000000E+00  0.45593999997E+02  0.45594000000E+02  0.51100000000E-03 0. -1.
         11   -1    0    0    0    0 -0.00000000000E+00 -0.00000000000E+00 -0.45593999997E+02  0.45594000000E+02  0.51100000000E-03 0.  1.
    9900012    2    1    2    0    0  0.10353654105E+01  0.71174498169E-01 -0.56210981518E+00  0.90007739526E+02  0.90000000888E+02 0.  0.
         12    1    1    2    0    0 -0.10353654105E+01 -0.71174498169E-01  0.56210981518E+00  0.11802604741E+01  0.00000000000E+00 0. -1.
         11    1    3    3    0    0  0.48814849745E+01 -0.92899109623E+01 -0.10063948696E+02  0.14540096453E+02  0.51100000000E-03 0. -1.
        -11    1    3    3    0    0  0.36335995374E+01  0.26447386896E+02 -0.24790395932E+02  0.36431182385E+02  0.51100000000E-03 0.  1.
         12    1    3    3    0    0 -0.74797191014E+01 -0.17086301435E+02  0.34292234813E+02  0.39036460688E+02  0.00000000000E+00 0. -1.
</event>
<event>
 7    1  0.2090370E-015  0.9000772E+02  0.7816164E-02  0.1186339E+00
        -11   -1    0    0    0    0  0.00000000000E+00  0.00000000000E+00  0.45593999997E+02  0.45594000000E+02  0.51100000000E-03 0. -1.
         11   -1    0    0    0    0 -0.00000000000E+00 -0.00000000000E+00 -0.45593999997E+02  0.45594000000E+02  0.51100000000E-03 0.  1.
    9900012    2    1    2    0    0  0.95098694464E+00 -0.68297487670E+00 -0.14908115952E+00  0.90007722048E+02  0.89999983179E+02 0.  0.
         12    1    1    2    0    0 -0.95098694464E+00  0.68297487670E+00  0.14908115952E+00  0.11802779517E+01  0.00000000000E+00 0. -1.
         11    1    3    3    0    0 -0.21601483514E+02  0.19503616461E+02  0.23744624086E+02  0.37560914769E+02  0.51100000000E-03 0. -1.
        -11    1    3    3    0    0  0.11201942929E+00  0.92006624468E+01 -0.18072651651E+01  0.93771501774E+01  0.51100000000E-03 0.  1.
        -12    1    3    3    0    0  0.22440451029E+02 -0.29387253785E+02 -0.22086440081E+02  0.43069657101E+02  0.00000000000E+00 0.  1.
</event>
<event>
 7    1  0.2090370E-015  0.9000779E+02  0.7816164E-02  0.1186339E+00
        -11   -1    0    0    0    0  0.00000000000E+00  0.00000000000E+00  0.45593999997E+02  0.45594000000E+02  0.51100000000E-03 0. -1.
         11   -1    0    0    0    0 -0.00000000000E+00 -0.00000000000E+00 -0.45593999997E+02  0.45594000000E+02  0.51100000000E-03 0.  1.
    9900012    2    1    2    0    0  0.10607637519E+01 -0.50612680491E+00 -0.10729884475E+00  0.90007789374E+02  0.90000051394E+02 0.  0.
         12    1    1    2    0    0 -0.10607637519E+01  0.50612680491E+00  0.10729884475E+00  0.11802106262E+01  0.00000000000E+00 0. -1.
         11    1    3    3    0    0  0.50040176649E+00  0.27325341620E+02  0.27399942726E+02  0.38699890933E+02  0.51100000000E-03 0. -1.
        -11    1    3    3    0    0  0.60051118615E+00 -0.53319596075E+01  0.77842474984E+01  0.94543596461E+01  0.51100000000E-03 0.  1.
        -12    1    3    3    0    0 -0.40149200723E-01 -0.22499508817E+02 -0.35291489069E+02  0.41853538795E+02  0.00000000000E+00 0.  1.
</event>
<event>
 7    1  0.2090370E-015  0.9000788E+02  0.7816164E-02  0.1186339E+00
        -11   -1    0    0    0    0  0.00000000000E+00  0.00000000000E+00  0.45593999997E+02  0.45594000000E+02  0.51100000000E-03 0.  1.
         11   -1    0    0    0    0 -0.00000000000E+00 -0.00000000000E+00 -0.45593999997E+02  0.45594000000E+02  0.51100000000E-03 0. -1.
    9900012    2    1    2    0    0 -0.95389045034E+00 -0.48175855500E+00  0.50068193074E+00  0.90007881069E+02  0.90000144299E+02 0.  0.
         12    1    1    2    0    0  0.95389045034E+00  0.48175855500E+00 -0.50068193074E+00  0.11801189314E+01  0.00000000000E+00 0. -1.
         11    1    3    3    0    0 -0.27188345320E+02 -0.35039522316E+01 -0.40685829681E+01  0.27713483543E+02  0.51100000000E-03 0. -1.
        -11    1    3    3    0    0  0.19247994402E+02 -0.15099142620E+02 -0.19558610082E+02  0.31321057213E+02  0.51100000000E-03 0.  1.
         12    1    3    3    0    0  0.69864604673E+01  0.18121336297E+02  0.24127874980E+02  0.30973340313E+02  0.00000000000E+00 0. -1.
</event>
<event>
 7    1  0.2090370E-015  0.9000773E+02  0.7816164E-02  0.1186339E+00
        -11   -1    0    0    0    0  0.00000000000E+00  0.00000000000E+00  0.45593999997E+02  0.45594000000E+02  0.51100000000E-03 0. -1.
         11   -1    0    0    0    0 -0.00000000000E+00 -0.00000000000E+00 -0.45593999997E+02  0.45594000000E+02  0.51100000000E-03 0.  1.
    9900012    2    1    2    0    0 -0.66874786519E-01  0.10661569520E+01  0.50186739989E+00  0.90007731484E+02  0.89999992739E+02 0.  0.
         12    1    1    2    0    0  0.66874786519E-01 -0.10661569520E+01 -0.50186739989E+00  0.11802685162E+01  0.00000000000E+00 0. -1.
         11    1    3    3    0    0  0.26170855455E+02 -0.20560825822E+02 -0.16880406406E+02  0.37317681525E+02  0.51100000000E-03 0. -1.
        -11    1    3    3    0    0  0.91095142614E+01  0.47300272815E+01  0.13272666001E+01  0.10349784783E+02  0.51100000000E-03 0.  1.
        -12    1    3    3    0    0 -0.35347244503E+02  0.16896955492E+02  0.16055007205E+02  0.42340265176E+02  0.00000000000E+00 0.  1.
</event>
<event>
 7    1  0.2090370E-015  0.9000773E+02  0.7816164E-02  0.1186339E+00
        -11   -1    0    0    0    0  0.00000000000E+00  0.00000000000E+00  0.45593999997E+02  0.45594000000E+02  0.51100000000E-03 0. -1.
         11   -1    0    0    0    0 -0.00000000000E+00 -0.00000000000E+00 -0.45593999997E+02  0.45594000000E+02  0.51100000000E-03 0.  1.
    9900012    2    1    2    0    0 -0.50423341435E-01 -0.10808178747E+01 -0.47151883194E+00  0.90007728929E+02  0.89999990151E+02 0.  0.
         12    1    1    2    0    0  0.50423341435E-01  0.10808178747E+01  0.47151883194E+00  0.11802710708E+01  0.00000000000E+00 0. -1.
         11    1    3    3    0    0 -0.27525791956E+02  0.75316722703E+01  0.30024691812E+02  0.41423150878E+02  0.51100000000E-03 0. -1.
        -11    1    3    3    0    0  0.12060520446E+02  0.41918605699E+01 -0.84413562521E+00  0.12796109318E+02  0.51100000000E-03 0.  1.
        -12    1    3    3    0    0  0.15414848169E+02 -0.12804350715E+02 -0.29652075019E+02  0.35788468733E+02  0.00000000000E+00 0.  1.
</event>
<event>
 7    1  0.2090370E-015  0.9000768E+02  0.7816164E-02  0.1186339E+00
        -11   -1    0    0    0    0  0.00000000000E+00  0.00000000000E+00  0.45593999997E+02  0.45594000000E+02  0.51100000000E-03 0.  1.
         11   -1    0    0    0    0 -0.00000000000E+00 -0.00000000000E+00 -0.45593999997E+02  0.45594000000E+02  0.51100000000E-03 0. -1.
    9900012    2    1    2    0    0 -0.95265462057E+00 -0.11344136210E+00  0.68754993903E+00  0.90007684497E+02  0.89999945132E+02 0.  0.
         12    1    1    2    0    0  0.95265462057E+00  0.11344136210E+00 -0.68754993903E+00  0.11803155033E+01  0.00000000000E+00 0. -1.
         11    1    3    3    0    0 -0.83448552804E+01 -0.36138362361E+02  0.41119919384E+01  0.37316568998E+02  0.51100000000E-03 0. -1.
        -11    1    3    3    0    0 -0.87336762628E+01 -0.27654084492E+01  0.40608174946E+01  0.10020719732E+02  0.51100000000E-03 0.  1.
        -12    1    3    3    0    0  0.16125876923E+02  0.38790329448E+02 -0.74852594940E+01  0.42670395767E+02  0.00000000000E+00 0.  1.
</event>
<event>
 7    1  0.2090370E-015  0.9000782E+02  0.7816164E-02  0.1186339E+00
        -11   -1    0    0    0    0  0.00000000000E+00  0.00000000000E+00  0.45593999997E+02  0.45594000000E+02  0.51100000000E-03 0.  1.
         11   -1    0    0    0    0 -0.00000000000E+00 -0.00000000000E+00 -0.45593999997E+02  0.45594000000E+02  0.51100000000E-03 0. -1.
    9900012    2    1    2    0    0  0.10188142175E+01 -0.25383690395E+00  0.53889761693E+00  0.90007819410E+02  0.90000081826E+02 0.  0.
         12    1    1    2    0    0 -0.10188142175E+01  0.25383690395E+00 -0.53889761693E+00  0.11801805900E+01  0.00000000000E+00 0. -1.
         11    1    3    3    0    0 -0.73609831489E+01 -0.32260172994E+02 -0.13516238086E+02  0.35743412355E+02  0.51100000000E-03 0. -1.
        -11    1    3    3    0    0 -0.71910364552E+01 -0.72011962452E+01  0.18065436807E+01  0.10335948577E+02  0.51100000000E-03 0.  1.
        -12    1    3    3    0    0  0.15570833822E+02  0.39207532335E+02  0.12248592022E+02  0.43928458478E+02  0.00000000000E+00 0.  1.
</event>
<event>
 7    1  0.2090370E-015  0.9000766E+02  0.7816164E-02  0.1186339E+00
        -11   -1    0    0    0    0  0.00000000000E+00  0.00000000000E+00  0.45593999997E+02  0.45594000000E+02  0.51100000000E-03 0.  1.
         11   -1    0    0    0    0 -0.00000000000E+00 -0.00000000000E+00 -0.45593999997E+02  0.45594000000E+02  0.51100000000E-03 0. -1.
    9900012    2    1    2    0    0  0.10425265454E+01  0.21008672136E+00  0.51205667743E+00  0.90007661036E+02  0.89999921362E+02 0.  0.
         12    1    1    2    0    0 -0.10425265454E+01 -0.21008672136E+00 -0.51205667743E+00  0.11803389637E+01  0.00000000000E+00 0. -1.
         11    1    3    3    0    0 -0.15989237426E+01  0.60891164822E+01 -0.75218077249E+01  0.98087455049E+01  0.51100000000E-03 0. -1.
        -11    1    3    3    0    0 -0.37060362331E+01  0.36625799920E+02  0.42175931641E+01  0.37053637024E+02  0.51100000000E-03 0.  1.
         12    1    3    3    0    0  0.63474865211E+01 -0.42504829681E+02  0.38162712382E+01  0.43145278508E+02  0.00000000000E+00 0. -1.
</event>
<event>
 7    1  0.2090370E-015  0.9000771E+02  0.7816164E-02  0.1186339E+00
        -11   -1    0    0    0    0  0.00000000000E+00  0.00000000000E+00  0.45593999997E+02  0.45594000000E+02  0.51100000000E-03 0. -1.
         11   -1    0    0    0    0 -0.00000000000E+00 -0.00000000000E+00 -0.45593999997E+02  0.45594000000E+02  0.51100000000E-03 0.  1.
    9900012    2    1    2    0    0  0.42942823669E+00 -0.55099055440E+00 -0.95136101871E+00  0.90007708939E+02  0.89999969897E+02 0.  0.
         12    1    1    2    0    0 -0.42942823669E+00  0.55099055440E+00  0.95136101871E+00  0.11802910613E+01  0.00000000000E+00 0. -1.
         11    1    3    3    0    0 -0.42920123001E+01  0.35473921984E+01 -0.66039587093E+01  0.86381497955E+01  0.51100000000E-03 0. -1.
        -11    1    3    3    0    0  0.70787168628E+01  0.28232933453E+02 -0.23778824974E+02  0.37585093869E+02  0.51100000000E-03 0.  1.
         12    1    3    3    0    0 -0.23572763260E+01 -0.32331316205E+02  0.29431422665E+02  0.43784465274E+02  0.00000000000E+00 0. -1.
</event>
<event>
 7    1  0.2090370E-015  0.9000772E+02  0.7816164E-02  0.1186339E+00
        -11   -1    0    0    0    0  0.00000000000E+00  0.00000000000E+00  0.45593999997E+02  0.45594000000E+02  0.51100000000E-03 0. -1.
         11   -1    0    0    0    0 -0.00000000000E+00 -0.00000000000E+00 -0.45593999997E+02  0.45594000000E+02  0.51100000000E-03 0.  1.
    9900012    2    1    2    0    0 -0.13266140014E+00 -0.78101302411E+00  0.87491346060E+00  0.90007722933E+02  0.89999984076E+02 0.  0.
         12    1    1    2    0    0  0.13266140014E+00  0.78101302411E+00 -0.87491346060E+00  0.11802770668E+01  0.00000000000E+00 0. -1.
         11    1    3    3    0    0 -0.29355409964E+02 -0.20649235611E+02  0.17952485839E+02  0.40130073181E+02  0.51100000000E-03 0. -1.
        -11    1    3    3    0    0  0.33738044056E+01 -0.35123315465E+00  0.79252902391E+01  0.86206813264E+01  0.51100000000E-03 0.  1.
        -12    1    3    3    0    0  0.25848944159E+02  0.20219455741E+02 -0.25002862617E+02  0.41256968425E+02  0.00000000000E+00 0.  1.
</event>
<event>
 7    1  0.2090370E-015  0.9000798E+02  0.7816164E-02  0.1186339E+00
        -11   -1    0    0    0    0  0.00000000000E+00  0.00000000000E+00  0.45593999997E+02  0.45594000000E+02  0.51100000000E-03 0. -1.
         11   -1    0    0    0    0 -0.00000000000E+00 -0.00000000000E+00 -0.45593999997E+02  0.45594000000E+02  0.51100000000E-03 0.  1.
    9900012    2    1    2    0    0  0.43110350809E-01 -0.93224615114E+00 -0.72215970485E+00  0.90007976260E+02  0.90000240746E+02 0.  0.
         12    1    1    2    0    0 -0.43110350809E-01  0.93224615114E+00  0.72215970485E+00  0.11800237404E+01  0.00000000000E+00 0. -1.
         11    1    3    3    0    0  0.48047284028E+01 -0.34748240732E+01  0.38200558263E+02  0.38658019469E+02  0.51100000000E-03 0. -1.
        -11    1    3    3    0    0  0.10191817840E+02 -0.41148426572E+01 -0.22907717818E+01  0.11227320099E+02  0.51100000000E-03 0.  1.
        -12    1    3    3    0    0 -0.14953435892E+02  0.66574205792E+01 -0.36631946186E+02  0.40122636692E+02  0.00000000000E+00 0.  1.
</event>
<event>
 7    1  0.2090370E-015  0.9000769E+02  0.7816164E-02  0.1186339E+00
        -11   -1    0    0    0    0  0.00000000000E+00  0.00000000000E+00  0.45593999997E+02  0.45594000000E+02  0.51100000000E-03 0. -1.
         11   -1    0    0    0    0 -0.00000000000E+00 -0.00000000000E+00 -0.45593999997E+02  0.45594000000E+02  0.51100000000E-03 0.  1.
    9900012    2    1    2    0    0 -0.89008083140E-03 -0.34819804695E+00 -0.11277853182E+01  0.90007685467E+02  0.89999946115E+02 0.  0.
         12    1    1    2    0    0  0.89008083140E-03  0.34819804695E+00  0.11277853182E+01  0.11803145327E+01  0.00000000000E+00 0. -1.
         11    1    3    3    0    0  0.64698821424E+01 -0.95043804701E+01  0.21801151413E+01  0.11702372637E+02  0.51100000000E-03 0. -1.
        -11    1    3    3    0    0  0.23215459620E+02 -0.14620412527E+02 -0.22703421874E+02  0.35611225658E+02  0.51100000000E-03 0.  1.
         12    1    3    3    0    0 -0.29686231843E+02  0.23776594950E+02  0.19395521415E+02  0.42694087172E+02  0.00000000000E+00 0. -1.
</event>
<event>
 7    1  0.2090370E-015  0.9000777E+02  0.7816164E-02  0.1186339E+00
        -11   -1    0    0    0    0  0.00000000000E+00  0.00000000000E+00  0.45593999997E+02  0.45594000000E+02  0.51100000000E-03 0. -1.
         11   -1    0    0    0    0 -0.00000000000E+00 -0.00000000000E+00 -0.45593999997E+02  0.45594000000E+02  0.51100000000E-03 0.  1.
    9900012    2    1    2    0    0 -0.89109842522E+00 -0.44289082838E+00 -0.63460665959E+00  0.90007773623E+02  0.90000035435E+02 0.  0.
         12    1    1    2    0    0  0.89109842522E+00  0.44289082838E+00  0.63460665959E+00  0.11802263773E+01  0.00000000000E+00 0. -1.
         11    1    3    3    0    0  0.50048190443E+01  0.72514658538E+01 -0.35557772436E+01  0.95013432083E+01  0.51100000000E-03 0. -1.
        -11    1    3    3    0    0 -0.34356323544E+02  0.18844899864E+02  0.11130828693E+02  0.40735519710E+02  0.51100000000E-03 0.  1.
         12    1    3    3    0    0  0.28460406075E+02 -0.26539256546E+02 -0.82096581095E+01  0.39770910704E+02  0.00000000000E+00 0. -1.
</event>
<event>
 7    1  0.2090370E-015  0.9000773E+02  0.7816164E-02  0.1186339E+00
        -11   -1    0    0    0    0  0.00000000000E+00  0.00000000000E+00  0.45593999997E+02  0.45594000000E+02  0.51100000000E-03 0.  1.
         11   -1    0    0    0    0 -0.00000000000E+00 -0.00000000000E+00 -0.45593999997E+02  0.45594000000E+02  0.51100000000E-03 0. -1.
    9900012    2    1    2    0    0  0.11999800510E+00 -0.35647176590E+00  0.11187382993E+01  0.90007725869E+02  0.89999987051E+02 0.  0.
         12    1    1    2    0    0 -0.11999800510E+00  0.35647176590E+00 -0.11187382993E+01  0.11802741306E+01  0.00000000000E+00 0. -1.
         11    1    3    3    0    0  0.77735086941E+01 -0.31784596366E+01 -0.10097129857E+02  0.13133243114E+02  0.51100000000E-03 0. -1.
        -11    1    3    3    0    0  0.19071843598E+02  0.51535086811E+01  0.35540101315E+02  0.40661931480E+02  0.51100000000E-03 0.  1.
         12    1    3    3    0    0 -0.26725354287E+02 -0.23315208104E+01 -0.24324233159E+02  0.36212551275E+02  0.00000000000E+00 0. -1.
</event>
<event>
 7    1  0.2090370E-015  0.9000782E+02  0.7816164E-02  0.1186339E+00
        -11   -1    0    0    0    0  0.00000000000E+00  0.00000000000E+00  0.45593999997E+02  0.45594000000E+02  0.51100000000E-03 0. -1.
         11   -1    0    0    0    0 -0.00000000000E+00 -0.00000000000E+00 -0.45593999997E+02  0.45594000000E+02  0.51100000000E-03 0.  1.
    9900012    2    1    2    0    0  0.39298501845E+00 -0.99630955948E+00  0.49572688714E+00  0.90007824119E+02  0.90000086598E+02 0.  0.
         12    1    1    2    0    0 -0.39298501845E+00  0.99630955948E+00 -0.49572688714E+00  0.11801758808E+01  0.00000000000E+00 0. -1.
         11    1    3    3    0    0 -0.72605699395E+01 -0.58835452315E+01  0.38953270276E+01  0.10124502617E+02  0.51100000000E-03 0. -1.
        -11    1    3    3    0    0  0.57532813241E+01 -0.27134828263E+02 -0.28033996352E+02  0.39437344010E+02  0.51100000000E-03 0.  1.
         12    1    3    3    0    0  0.19002736338E+01  0.32022063935E+02  0.24634396212E+02  0.40445977491E+02  0.00000000000E+00 0. -1.
</event>
<event>
 7    1  0.2090370E-015  0.9000791E+02  0.7816164E-02  0.1186339E+00
        -11   -1    0    0    0    0  0.00000000000E+00  0.00000000000E+00  0.45593999997E+02  0.45594000000E+02  0.51100000000E-03 0.  1.
         11   -1    0    0    0    0 -0.00000000000E+00 -0.00000000000E+00 -0.45593999997E+02  0.45594000000E+02  0.51100000000E-03 0. -1.
    9900012    2    1    2    0    0 -0.10820622977E+01 -0.23495927951E+00 -0.40811373449E+00  0.90007906148E+02  0.90000169709E+02 0.  0.
         12    1    1    2    0    0  0.10820622977E+01  0.23495927951E+00  0.40811373449E+00  0.11800938519E+01  0.00000000000E+00 0. -1.
         11    1    3    3    0    0  0.20135663551E+02 -0.21444333017E+02 -0.25606322855E+02  0.38999847892E+02  0.51100000000E-03 0. -1.
        -11    1    3    3    0    0 -0.88134437540E-02 -0.77003181566E+01  0.10317951433E+01  0.77691427370E+01  0.51100000000E-03 0.  1.
        -12    1    3    3    0    0 -0.21208912405E+02  0.28909691894E+02  0.24166413977E+02  0.43238915519E+02  0.00000000000E+00 0.  1.
</event>
<event>
 7    1  0.2090370E-015  0.9000776E+02  0.7816164E-02  0.1186339E+00
        -11   -1    0    0    0    0  0.00000000000E+00  0.00000000000E+00  0.45593999997E+02  0.45594000000E+02  0.51100000000E-03 0.  1.
         11   -1    0    0    0    0 -0.00000000000E+00 -0.00000000000E+00 -0.45593999997E+02  0.45594000000E+02  0.51100000000E-03 0. -1.
    9900012    2    1    2    0    0  0.52295393107E+00 -0.24855470653E+00  0.10284434948E+01  0.90007764312E+02  0.90000026001E+02 0.  0.
         12    1    1    2    0    0 -0.52295393107E+00  0.24855470653E+00 -0.10284434948E+01  0.11802356875E+01  0.00000000000E+00 0. -1.
         11    1    3    3    0    0 -0.79022146058E+01 -0.37613030719E+01  0.25057629444E+01  0.91033644697E+01  0.51100000000E-03 0. -1.
        -11    1    3    3    0    0 -0.15039781808E+02  0.30452367724E+02 -0.21257874203E+02  0.40067929229E+02  0.51100000000E-03 0.  1.
         12    1    3    3    0    0  0.23464950345E+02 -0.26939619358E+02  0.19780554753E+02  0.40836470614E+02  0.00000000000E+00 0. -1.
</event>
<event>
 7    1  0.2090370E-015  0.9000745E+02  0.7816164E-02  0.1186340E+00
        -11   -1    0    0    0    0  0.00000000000E+00  0.00000000000E+00  0.45593999997E+02  0.45594000000E+02  0.51100000000E-03 0.  1.
         11   -1    0    0    0    0 -0.00000000000E+00 -0.00000000000E+00 -0.45593999997E+02  0.45594000000E+02  0.51100000000E-03 0. -1.
    9900012    2    1    2    0    0  0.78293701323E+00  0.13567043671E+00  0.87309806706E+00  0.90007450523E+02  0.89999708069E+02 0.  0.
         12    1    1    2    0    0 -0.78293701323E+00 -0.13567043671E+00 -0.87309806706E+00  0.11805494775E+01  0.00000000000E+00 0. -1.
         11    1    3    3    0    0  0.91992343271E+01 -0.57160750668E+01  0.14874699014E+01  0.10932154104E+02  0.51100000000E-03 0. -1.
        -11    1    3    3    0    0 -0.36770444500E+02 -0.98593891528E+01  0.17546793432E+02  0.41918529354E+02  0.51100000000E-03 0.  1.
         12    1    3    3    0    0  0.28354147186E+02  0.15711134656E+02 -0.18161165267E+02  0.37156767065E+02  0.00000000000E+00 0. -1.
</event>
<event>
 7    1  0.3053007E-015  0.9000760E+02  0.7816164E-02  0.1186339E+00
        -11   -1    0    0    0    0  0.00000000000E+00  0.00000000000E+00  0.45593999997E+02  0.45594000000E+02  0.51100000000E-03 0.  1.
         11   -1    0    0    0    0 -0.00000000000E+00 -0.00000000000E+00 -0.45593999997E+02  0.45594000000E+02  0.51100000000E-03 0. -1.
    9900012    2    1    2    0    0 -0.10958578398E+01  0.24828412740E+00 -0.36166848197E+00  0.90007596042E+02  0.89999855510E+02 0.  0.
         12    1    1    2    0    0  0.10958578398E+01 -0.24828412740E+00  0.36166848197E+00  0.11804039579E+01  0.00000000000E+00 0. -1.
         11    1    3    3    0    0  0.10079876134E+00 -0.38791631913E+02  0.91396277537E+01  0.39853903981E+02  0.51100000000E-03 0. -1.
        -11    1    3    3    0    0  0.86912654028E+01  0.13909445701E+01  0.29530890254E+01  0.92840484786E+01  0.51100000000E-03 0.  1.
        -12    1    3    3    0    0 -0.98879220040E+01  0.37648971470E+02 -0.12454385261E+02  0.40869643582E+02  0.00000000000E+00 0.  1.
</event>
<event>
 7    1  0.2090370E-015  0.9000783E+02  0.7816164E-02  0.1186339E+00
        -11   -1    0    0    0    0  0.00000000000E+00  0.00000000000E+00  0.45593999997E+02  0.45594000000E+02  0.51100000000E-03 0. -1.
         11   -1    0    0    0    0 -0.00000000000E+00 -0.00000000000E+00 -0.45593999997E+02  0.45594000000E+02  0.51100000000E-03 0.  1.
    9900012    2    1    2    0    0  0.67605670416E+00 -0.12356300206E+00 -0.95941793748E+00  0.90007829139E+02  0.90000091683E+02 0.  0.
         12    1    1    2    0    0 -0.67605670416E+00  0.12356300206E+00  0.95941793748E+00  0.11801708611E+01  0.00000000000E+00 0. -1.
         11    1    3    3    0    0  0.27485859005E+02  0.14636061566E+02  0.12269144931E+02  0.33469667776E+02  0.51100000000E-03 0. -1.
        -11    1    3    3    0    0  0.70256303388E+01  0.43093335223E+00  0.10402911431E+02  0.12560483737E+02  0.51100000000E-03 0.  1.
        -12    1    3    3    0    0 -0.33835432640E+02 -0.15190557920E+02 -0.23631474300E+02  0.43977677626E+02  0.00000000000E+00 0.  1.
</event>
<event>
 7    1  0.2090370E-015  0.9000773E+02  0.7816164E-02  0.1186339E+00
        -11   -1    0    0    0    0  0.00000000000E+00  0.00000000000E+00  0.45593999997E+02  0.45594000000E+02  0.51100000000E-03 0. -1.
         11   -1    0    0    0    0 -0.00000000000E+00 -0.00000000000E+00 -0.45593999997E+02  0.45594000000E+02  0.51100000000E-03 0.  1.
    9900012    2    1    2    0    0 -0.97968377724E+00  0.65438822863E+00  0.71017974450E-01  0.90007725536E+02  0.89999986713E+02 0.  0.
         12    1    1    2    0    0  0.97968377724E+00 -0.65438822863E+00 -0.71017974450E-01  0.11802744638E+01  0.00000000000E+00 0. -1.
         11    1    3    3    0    0  0.49188509110E+01  0.27973834841E+01 -0.61525266468E+01  0.83590689100E+01  0.51100000000E-03 0. -1.
        -11    1    3    3    0    0  0.25343820525E+02 -0.29896011902E+02 -0.11718881845E+01  0.39210382408E+02  0.51100000000E-03 0.  1.
         12    1    3    3    0    0 -0.31242355213E+02  0.27753016646E+02  0.73954328058E+01  0.42438274218E+02  0.00000000000E+00 0. -1.
</event>
<event>
 7    1  0.2090370E-015  0.9000777E+02  0.7816164E-02  0.1186339E+00
        -11   -1    0    0    0    0  0.00000000000E+00  0.00000000000E+00  0.45593999997E+02  0.45594000000E+02  0.51100000000E-03 0.  1.
         11   -1    0    0    0    0 -0.00000000000E+00 -0.00000000000E+00 -0.45593999997E+02  0.45594000000E+02  0.51100000000E-03 0. -1.
    9900012    2    1    2    0    0 -0.82952734475E+00 -0.81109448332E+00 -0.21667760411E+00  0.90007771607E+02  0.90000033392E+02 0.  0.
         12    1    1    2    0    0  0.82952734475E+00  0.81109448332E+00  0.21667760411E+00  0.11802283934E+01  0.00000000000E+00 0. -1.
         11    1    3    3    0    0  0.47489238959E+01 -0.51088220828E+01 -0.18990361805E+01  0.72290165250E+01  0.51100000000E-03 0. -1.
        -11    1    3    3    0    0  0.33807142832E+02  0.13264929827E+02  0.16319990043E+02  0.39814863368E+02  0.51100000000E-03 0.  1.
         12    1    3    3    0    0 -0.39385594072E+02 -0.89672022277E+01 -0.14637631466E+02  0.42963891713E+02  0.00000000000E+00 0. -1.
</event>
<event>
 7    1  0.2090370E-015  0.9000772E+02  0.7816164E-02  0.1186339E+00
        -11   -1    0    0    0    0  0.00000000000E+00  0.00000000000E+00  0.45593999997E+02  0.45594000000E+02  0.51100000000E-03 0.  1.
         11   -1    0    0    0    0 -0.00000000000E+00 -0.00000000000E+00 -0.45593999997E+02  0.45594000000E+02  0.51100000000E-03 0. -1.
    9900012    2    1    2    0    0  0.45985118964E+00 -0.57342569102E+00  0.92345787650E+00  0.90007722664E+02  0.89999983803E+02 0.  0.
         12    1    1    2    0    0 -0.45985118964E+00  0.57342569102E+00 -0.92345787650E+00  0.11802773358E+01  0.00000000000E+00 0. -1.
         11    1    3    3    0    0  0.62964612466E+01 -0.66714124637E+01  0.37109536128E+01  0.98956730680E+01  0.51100000000E-03 0. -1.
        -11    1    3    3    0    0 -0.27908248228E+02 -0.19105943413E+02  0.20280557369E+02  0.39436130646E+02  0.51100000000E-03 0.  1.
         12    1    3    3    0    0  0.22071638171E+02  0.25203930186E+02 -0.23068053106E+02  0.40675918950E+02  0.00000000000E+00 0. -1.
</event>
<event>
 7    1  0.2090370E-015  0.9000779E+02  0.7816164E-02  0.1186339E+00
        -11   -1    0    0    0    0  0.00000000000E+00  0.00000000000E+00  0.45593999997E+02  0.45594000000E+02  0.51100000000E-03 0.  1.
         11   -1    0    0    0    0 -0.00000000000E+00 -0.00000000000E+00 -0.45593999997E+02  0.45594000000E+02  0.51100000000E-03 0. -1.
    9900012    2    1    2    0    0  0.44668410144E+00 -0.52955145060E+00  0.95547752919E+00  0.90007792927E+02  0.90000054994E+02 0.  0.
         12    1    1    2    0    0 -0.44668410144E+00  0.52955145060E+00 -0.95547752919E+00  0.11802070725E+01  0.00000000000E+00 0. -1.
         11    1    3    3    0    0  0.32303186354E+00 -0.24039077602E+02 -0.33255031702E+02  0.41035091511E+02  0.51100000000E-03 0. -1.
        -11    1    3    3    0    0 -0.10368488993E+01  0.79309828018E+01 -0.30575673134E+01  0.85629587164E+01  0.51100000000E-03 0.  1.
        -12    1    3    3    0    0  0.11605011372E+01  0.15578543350E+02  0.37268076544E+02  0.40409742700E+02  0.00000000000E+00 0.  1.
</event>
<event>
 7    1  0.2090370E-015  0.9000764E+02  0.7816164E-02  0.1186339E+00
        -11   -1    0    0    0    0  0.00000000000E+00  0.00000000000E+00  0.45593999997E+02  0.45594000000E+02  0.51100000000E-03 0.  1.
         11   -1    0    0    0    0 -0.00000000000E+00 -0.00000000000E+00 -0.45593999997E+02  0.45594000000E+02  0.51100000000E-03 0. -1.
    9900012    2    1    2    0    0  0.11383376739E+01  0.24378332458E+00  0.19492632714E+00  0.90007644442E+02  0.89999904549E+02 0.  0.
         12    1    1    2    0    0 -0.11383376739E+01 -0.24378332458E+00 -0.19492632714E+00  0.11803555576E+01  0.00000000000E+00 0. -1.
         11    1    3    3    0    0 -0.60035738231E+01 -0.17070152227E+01  0.51817345126E+01  0.81121620078E+01  0.51100000000E-03 0. -1.
        -11    1    3    3    0    0 -0.28097806299E+01 -0.75104144807E+01  0.36928088823E+02  0.37788687954E+02  0.51100000000E-03 0.  1.
         12    1    3    3    0    0  0.99516921269E+01  0.94612130280E+01 -0.41914897009E+02  0.44106794481E+02  0.00000000000E+00 0. -1.
</event>
<event>
 7    1  0.2090370E-015  0.9000781E+02  0.7816164E-02  0.1186339E+00
        -11   -1    0    0    0    0  0.00000000000E+00  0.00000000000E+00  0.45593999997E+02  0.45594000000E+02  0.51100000000E-03 0.  1.
         11   -1    0    0    0    0 -0.00000000000E+00 -0.00000000000E+00 -0.45593999997E+02  0.45594000000E+02  0.51100000000E-03 0. -1.
    9900012    2    1    2    0    0  0.96196582166E+00  0.19397189267E-01  0.68344459289E+00  0.90007808912E+02  0.90000071189E+02 0.  0.
         12    1    1    2    0    0 -0.96196582166E+00 -0.19397189267E-01 -0.68344459289E+00  0.11801910881E+01  0.00000000000E+00 0. -1.
         11    1    3    3    0    0  0.95483418730E+00 -0.73362236065E+01  0.12037682394E+02  0.14129319970E+02  0.51100000000E-03 0. -1.
        -11    1    3    3    0    0 -0.16148538034E+02 -0.30138124112E+01  0.27788901417E+02  0.32281285416E+02  0.51100000000E-03 0.  1.
         12    1    3    3    0    0  0.16155669668E+02  0.10369433207E+02 -0.39143139218E+02  0.43597203526E+02  0.00000000000E+00 0. -1.
</event>
<event>
 7    1  0.2090370E-015  0.9000782E+02  0.7816164E-02  0.1186339E+00
        -11   -1    0    0    0    0  0.00000000000E+00  0.00000000000E+00  0.45593999997E+02  0.45594000000E+02  0.51100000000E-03 0. -1.
         11   -1    0    0    0    0 -0.00000000000E+00 -0.00000000000E+00 -0.45593999997E+02  0.45594000000E+02  0.51100000000E-03 0.  1.
    9900012    2    1    2    0    0  0.11496145418E+01 -0.23226801588E+00 -0.13137394315E+00  0.90007821565E+02  0.90000084009E+02 0.  0.
         12    1    1    2    0    0 -0.11496145418E+01  0.23226801588E+00  0.13137394315E+00  0.11801784352E+01  0.00000000000E+00 0. -1.
         11    1    3    3    0    0 -0.55096726620E+01  0.50154599833E+01 -0.12997529926E+01  0.75631137629E+01  0.51100000000E-03 0. -1.
        -11    1    3    3    0    0 -0.22747959270E+02  0.24662799390E+02  0.16997689612E+02  0.37611763813E+02  0.51100000000E-03 0.  1.
         12    1    3    3    0    0  0.29407246473E+02 -0.29910527389E+02 -0.15829310562E+02  0.44832943989E+02  0.00000000000E+00 0. -1.
</event>
<event>
 7    1  0.2090370E-015  0.9000776E+02  0.7816164E-02  0.1186339E+00
        -11   -1    0    0    0    0  0.00000000000E+00  0.00000000000E+00  0.45593999997E+02  0.45594000000E+02  0.51100000000E-03 0.  1.
         11   -1    0    0    0    0 -0.00000000000E+00 -0.00000000000E+00 -0.45593999997E+02  0.45594000000E+02  0.51100000000E-03 0. -1.
    9900012    2    1    2    0    0 -0.25854913906E+00 -0.20673971009E+00  0.11328666278E+01  0.90007756059E+02  0.90000017639E+02 0.  0.
         12    1    1    2    0    0  0.25854913906E+00  0.20673971009E+00 -0.11328666278E+01  0.11802439415E+01  0.00000000000E+00 0. -1.
         11    1    3    3    0    0  0.51938332334E+01 -0.63935612683E+01  0.70817436033E+01  0.10862993237E+02  0.51100000000E-03 0. -1.
        -11    1    3    3    0    0  0.22060485574E+02  0.32168153642E+02  0.59930919942E+01  0.39463556409E+02  0.51100000000E-03 0.  1.
         12    1    3    3    0    0 -0.27512867946E+02 -0.25981332084E+02 -0.11941968970E+02  0.39681206413E+02  0.00000000000E+00 0. -1.
</event>
<event>
 7    1  0.2090370E-015  0.9000769E+02  0.7816164E-02  0.1186339E+00
        -11   -1    0    0    0    0  0.00000000000E+00  0.00000000000E+00  0.45593999997E+02  0.45594000000E+02  0.51100000000E-03 0. -1.
         11   -1    0    0    0    0 -0.00000000000E+00 -0.00000000000E+00 -0.45593999997E+02  0.45594000000E+02  0.51100000000E-03 0.  1.
    9900012    2    1    2    0    0  0.80942469311E+00  0.85899074896E+00 -0.96185920941E-02  0.90007692431E+02  0.89999953171E+02 0.  0.
         12    1    1    2    0    0 -0.80942469311E+00 -0.85899074896E+00  0.96185920941E-02  0.11803075692E+01  0.00000000000E+00 0. -1.
         11    1    3    3    0    0  0.26512849943E+02 -0.34883076191E+01  0.24561003670E+02  0.36308985165E+02  0.51100000000E-03 0. -1.
        -11    1    3    3    0    0  0.93437151109E+01 -0.18076335288E+01  0.14358374789E+01  0.96246652189E+01  0.51100000000E-03 0.  1.
        -12    1    3    3    0    0 -0.35047140361E+02  0.61549318969E+01 -0.26006459741E+02  0.44074042047E+02  0.00000000000E+00 0.  1.
</event>
<event>
 7    1  0.2090370E-015  0.9000775E+02  0.7816164E-02  0.1186339E+00
        -11   -1    0    0    0    0  0.00000000000E+00  0.00000000000E+00  0.45593999997E+02  0.45594000000E+02  0.51100000000E-03 0.  1.
         11   -1    0    0    0    0 -0.00000000000E+00 -0.00000000000E+00 -0.45593999997E+02  0.45594000000E+02  0.51100000000E-03 0. -1.
    9900012    2    1    2    0    0 -0.71084077669E+00 -0.51150436019E+00  0.79124298473E+00  0.90007747154E+02  0.90000008616E+02 0.  0.
         12    1    1    2    0    0  0.71084077669E+00  0.51150436019E+00 -0.79124298473E+00  0.11802528463E+01  0.00000000000E+00 0. -1.
         11    1    3    3    0    0  0.25058924392E+01  0.77718514306E+01 -0.58474432078E+01  0.10043593177E+02  0.51100000000E-03 0. -1.
        -11    1    3    3    0    0 -0.19685286823E+02  0.29521123556E+02 -0.76965713002E+01  0.36307636433E+02  0.51100000000E-03 0.  1.
         12    1    3    3    0    0  0.16468553607E+02 -0.37804479347E+02  0.14335257493E+02  0.43656517543E+02  0.00000000000E+00 0. -1.
</event>
<event>
 7    1  0.2090370E-015  0.9000782E+02  0.7816164E-02  0.1186339E+00
        -11   -1    0    0    0    0  0.00000000000E+00  0.00000000000E+00  0.45593999997E+02  0.45594000000E+02  0.51100000000E-03 0.  1.
         11   -1    0    0    0    0 -0.00000000000E+00 -0.00000000000E+00 -0.45593999997E+02  0.45594000000E+02  0.51100000000E-03 0. -1.
    9900012    2    1    2    0    0  0.33787197367E+00  0.21519665308E+00  0.11101212380E+01  0.90007815170E+02  0.90000077530E+02 0.  0.
         12    1    1    2    0    0 -0.33787197367E+00 -0.21519665308E+00 -0.11101212380E+01  0.11801848300E+01  0.00000000000E+00 0. -1.
         11    1    3    3    0    0 -0.21748676629E+01 -0.50365956043E+01  0.69709455758E+01  0.88708188525E+01  0.51100000000E-03 0. -1.
        -11    1    3    3    0    0 -0.36234204200E+02 -0.12449143541E+02 -0.35064856849E+01  0.38473291658E+02  0.51100000000E-03 0.  1.
         12    1    3    3    0    0  0.38746943836E+02  0.17700935798E+02 -0.23543386530E+01  0.42663704659E+02  0.00000000000E+00 0. -1.
</event>
<event>
 7    1  0.2090370E-015  0.9000766E+02  0.7816164E-02  0.1186339E+00
        -11   -1    0    0    0    0  0.00000000000E+00  0.00000000000E+00  0.45593999997E+02  0.45594000000E+02  0.51100000000E-03 0.  1.
         11   -1    0    0    0    0 -0.00000000000E+00 -0.00000000000E+00 -0.45593999997E+02  0.45594000000E+02  0.51100000000E-03 0. -1.
    9900012    2    1    2    0    0 -0.93631036085E+00  0.71637602751E+00  0.57788448508E-01  0.90007656317E+02  0.89999916581E+02 0.  0.
         12    1    1    2    0    0  0.93631036085E+00 -0.71637602751E+00 -0.57788448508E-01  0.11803436828E+01  0.00000000000E+00 0. -1.
         11    1    3    3    0    0 -0.76436336010E+01 -0.47495023358E+01  0.18082575829E+02  0.20198080501E+02  0.51100000000E-03 0. -1.
        -11    1    3    3    0    0  0.10282853183E+02  0.11644407911E+02  0.23227816600E+02  0.27943886083E+02  0.51100000000E-03 0.  1.
         12    1    3    3    0    0 -0.35755299423E+01 -0.61785295472E+01 -0.41252603980E+02  0.41865689733E+02  0.00000000000E+00 0. -1.
</event>
<event>
 7    1  0.2090370E-015  0.9000765E+02  0.7816164E-02  0.1186339E+00
        -11   -1    0    0    0    0  0.00000000000E+00  0.00000000000E+00  0.45593999997E+02  0.45594000000E+02  0.51100000000E-03 0.  1.
         11   -1    0    0    0    0 -0.00000000000E+00 -0.00000000000E+00 -0.45593999997E+02  0.45594000000E+02  0.51100000000E-03 0. -1.
    9900012    2    1    2    0    0 -0.13007663486E+00 -0.83505532888E+00  0.82401336867E+00  0.90007646085E+02  0.89999906213E+02 0.  0.
         12    1    1    2    0    0  0.13007663486E+00  0.83505532888E+00 -0.82401336867E+00  0.11803539151E+01  0.00000000000E+00 0. -1.
         11    1    3    3    0    0 -0.44401153267E+01 -0.76333384730E+01 -0.27218383298E+01  0.92407188309E+01  0.51100000000E-03 0. -1.
        -11    1    3    3    0    0 -0.23334440301E+02 -0.21411650445E+02  0.20563299396E+02  0.37759822050E+02  0.51100000000E-03 0.  1.
         12    1    3    3    0    0  0.27644478993E+02  0.28209933589E+02 -0.17017447698E+02  0.43007105204E+02  0.00000000000E+00 0. -1.
</event>
<event>
 7    1  0.2090370E-015  0.9000747E+02  0.7816164E-02  0.1186340E+00
        -11   -1    0    0    0    0  0.00000000000E+00  0.00000000000E+00  0.45593999997E+02  0.45594000000E+02  0.51100000000E-03 0.  1.
         11   -1    0    0    0    0 -0.00000000000E+00 -0.00000000000E+00 -0.45593999997E+02  0.45594000000E+02  0.51100000000E-03 0. -1.
    9900012    2    1    2    0    0 -0.63421249688E+00 -0.40126276415E+00  0.91127686879E+00  0.90007465024E+02  0.89999722762E+02 0.  0.
         12    1    1    2    0    0  0.63421249688E+00  0.40126276415E+00 -0.91127686879E+00  0.11805349756E+01  0.00000000000E+00 0. -1.
         11    1    3    3    0    0 -0.10994026367E+02  0.53845265092E+01  0.26020915692E+01  0.12515295533E+02  0.51100000000E-03 0. -1.
        -11    1    3    3    0    0  0.23601659458E+02  0.30056661916E+02 -0.71959819422E+01  0.38887316841E+02  0.51100000000E-03 0.  1.
         12    1    3    3    0    0 -0.13241845588E+02 -0.35842451189E+02  0.55051672418E+01  0.38604852650E+02  0.00000000000E+00 0. -1.
</event>
<event>
 7    1  0.2090370E-015  0.9000770E+02  0.7816164E-02  0.1186339E+00
        -11   -1    0    0    0    0  0.00000000000E+00  0.00000000000E+00  0.45593999997E+02  0.45594000000E+02  0.51100000000E-03 0.  1.
         11   -1    0    0    0    0 -0.00000000000E+00 -0.00000000000E+00 -0.45593999997E+02  0.45594000000E+02  0.51100000000E-03 0. -1.
    9900012    2    1    2    0    0 -0.87713875652E+00 -0.74702565994E+00  0.25631590320E+00  0.90007695981E+02  0.89999956768E+02 0.  0.
         12    1    1    2    0    0  0.87713875652E+00  0.74702565994E+00 -0.25631590320E+00  0.11803040189E+01  0.00000000000E+00 0. -1.
         11    1    3    3    0    0  0.21872301718E+02 -0.12500578527E+02 -0.27692123775E+02  0.37436823655E+02  0.51100000000E-03 0. -1.
        -11    1    3    3    0    0 -0.72715436752E+00 -0.12047027854E+02  0.67150036914E+01  0.13811260204E+02  0.51100000000E-03 0.  1.
        -12    1    3    3    0    0 -0.22022286107E+02  0.23800580721E+02  0.21233435987E+02  0.38759612122E+02  0.00000000000E+00 0.  1.
</event>
<event>
 7    1  0.2090370E-015  0.9000788E+02  0.7816164E-02  0.1186339E+00
        -11   -1    0    0    0    0  0.00000000000E+00  0.00000000000E+00  0.45593999997E+02  0.45594000000E+02  0.51100000000E-03 0. -1.
         11   -1    0    0    0    0 -0.00000000000E+00 -0.00000000000E+00 -0.45593999997E+02  0.45594000000E+02  0.51100000000E-03 0.  1.
    9900012    2    1    2    0    0  0.36874776222E+00  0.11030730232E+01  0.19985837874E+00  0.90007877812E+02  0.90000140999E+02 0.  0.
         12    1    1    2    0    0 -0.36874776222E+00 -0.11030730232E+01 -0.19985837874E+00  0.11801221878E+01  0.00000000000E+00 0. -1.
         11    1    3    3    0    0  0.90744224918E+01  0.28428160241E+02 -0.18225013460E+02  0.34966506176E+02  0.51100000000E-03 0. -1.
        -11    1    3    3    0    0  0.24584185587E+01  0.10138108027E+02 -0.24640353990E+01  0.10718979750E+02  0.51100000000E-03 0.  1.
        -12    1    3    3    0    0 -0.11164093288E+02 -0.37463195245E+02  0.20888907238E+02  0.44322391886E+02  0.00000000000E+00 0.  1.
</event>
<event>
 7    1  0.2090370E-015  0.9000796E+02  0.7816164E-02  0.1186339E+00
        -11   -1    0    0    0    0  0.00000000000E+00  0.00000000000E+00  0.45593999997E+02  0.45594000000E+02  0.51100000000E-03 0.  1.
         11   -1    0    0    0    0 -0.00000000000E+00 -0.00000000000E+00 -0.45593999997E+02  0.45594000000E+02  0.51100000000E-03 0. -1.
    9900012    2    1    2    0    0 -0.41467838160E+00 -0.58115332365E+00  0.93957581592E+00  0.90007957603E+02  0.90000221843E+02 0.  0.
         12    1    1    2    0    0  0.41467838160E+00  0.58115332365E+00 -0.93957581592E+00  0.11800423974E+01  0.00000000000E+00 0. -1.
         11    1    3    3    0    0 -0.28135257727E+02  0.24663714565E+02  0.13424378918E+02  0.39750540790E+02  0.51100000000E-03 0. -1.
        -11    1    3    3    0    0  0.39168414426E+01 -0.90474208017E+00  0.90987623259E+01  0.99472449072E+01  0.51100000000E-03 0.  1.
        -12    1    3    3    0    0  0.23803737903E+02 -0.24340125808E+02 -0.21583565428E+02  0.40310171906E+02  0.00000000000E+00 0.  1.
</event>
<event>
 7    1  0.2134297E-015  0.9000767E+02  0.7816164E-02  0.1186339E+00
        -11   -1    0    0    0    0  0.00000000000E+00  0.00000000000E+00  0.45593999997E+02  0.45594000000E+02  0.51100000000E-03 0.  1.
         11   -1    0    0    0    0 -0.00000000000E+00 -0.00000000000E+00 -0.45593999997E+02  0.45594000000E+02  0.51100000000E-03 0. -1.
    9900012    2    1    2    0    0  0.11358992777E+01  0.20728553243E+00  0.24485683338E+00  0.90007665586E+02  0.89999925971E+02 0.  0.
         12    1    1    2    0    0 -0.11358992777E+01 -0.20728553243E+00 -0.24485683338E+00  0.11803344144E+01  0.00000000000E+00 0. -1.
         11    1    3    3    0    0 -0.16930610943E+02 -0.47385945253E+01 -0.32953007482E+02  0.37349706389E+02  0.51100000000E-03 0. -1.
        -11    1    3    3    0    0 -0.87841631845E+01  0.20735195275E+01 -0.10034018710E+01  0.90811795301E+01  0.51100000000E-03 0.  1.
        -12    1    3    3    0    0  0.26850673405E+02  0.28723605302E+01  0.34201266186E+02  0.43576779666E+02  0.00000000000E+00 0.  1.
</event>
<event>
 7    1  0.2090370E-015  0.9000774E+02  0.7816164E-02  0.1186339E+00
        -11   -1    0    0    0    0  0.00000000000E+00  0.00000000000E+00  0.45593999997E+02  0.45594000000E+02  0.51100000000E-03 0. -1.
         11   -1    0    0    0    0 -0.00000000000E+00 -0.00000000000E+00 -0.45593999997E+02  0.45594000000E+02  0.51100000000E-03 0.  1.
    9900012    2    1    2    0    0  0.36948635748E+00  0.79752135099E+00 -0.78768348216E+00  0.90007743358E+02  0.90000004770E+02 0.  0.
         12    1    1    2    0    0 -0.36948635748E+00 -0.79752135099E+00  0.78768348216E+00  0.11802566423E+01  0.00000000000E+00 0. -1.
         11    1    3    3    0    0  0.87853513949E+01 -0.30030687487E+01 -0.64859137422E+00  0.93070667814E+01  0.51100000000E-03 0. -1.
        -11    1    3    3    0    0  0.24878382952E+02  0.13362608288E+02 -0.25277308331E+02  0.37900337140E+02  0.51100000000E-03 0.  1.
         12    1    3    3    0    0 -0.33294247990E+02 -0.95620181885E+01  0.25138216223E+02  0.42800339437E+02  0.00000000000E+00 0. -1.
</event>
<event>
 7    1  0.2090370E-015  0.9000776E+02  0.7816164E-02  0.1186339E+00
        -11   -1    0    0    0    0  0.00000000000E+00  0.00000000000E+00  0.45593999997E+02  0.45594000000E+02  0.51100000000E-03 0. -1.
         11   -1    0    0    0    0 -0.00000000000E+00 -0.00000000000E+00 -0.45593999997E+02  0.45594000000E+02  0.51100000000E-03 0.  1.
    9900012    2    1    2    0    0  0.91429328499E+00  0.64002871045E+00 -0.38392349486E+00  0.90007760104E+02  0.90000021738E+02 0.  0.
         12    1    1    2    0    0 -0.91429328499E+00 -0.64002871045E+00  0.38392349486E+00  0.11802398956E+01  0.00000000000E+00 0. -1.
         11    1    3    3    0    0  0.21549943436E+01  0.47464599344E+01  0.56613618694E+01  0.76957066607E+01  0.51100000000E-03 0. -1.
        -11    1    3    3    0    0  0.35687631553E+02  0.10803499461E+02 -0.17041995323E+02  0.40996978563E+02  0.51100000000E-03 0.  1.
         12    1    3    3    0    0 -0.36928332612E+02 -0.14909930685E+02  0.10996709958E+02  0.41315074881E+02  0.00000000000E+00 0. -1.
</event>
<event>
 7    1  0.2090370E-015  0.9000776E+02  0.7816164E-02  0.1186339E+00
        -11   -1    0    0    0    0  0.00000000000E+00  0.00000000000E+00  0.45593999997E+02  0.45594000000E+02  0.51100000000E-03 0.  1.
         11   -1    0    0    0    0 -0.00000000000E+00 -0.00000000000E+00 -0.45593999997E+02  0.45594000000E+02  0.51100000000E-03 0. -1.
    9900012    2    1    2    0    0  0.10996195043E+01  0.13243374045E+00  0.40776034918E+00  0.90007758392E+02  0.90000020003E+02 0.  0.
         12    1    1    2    0    0 -0.10996195043E+01 -0.13243374045E+00 -0.40776034918E+00  0.11802416075E+01  0.00000000000E+00 0. -1.
         11    1    3    3    0    0  0.47834471740E+01  0.24845277570E+02  0.26494164890E+02  0.36634818928E+02  0.51100000000E-03 0. -1.
        -11    1    3    3    0    0  0.10573350166E+02  0.43102709760E+01  0.61918582206E+00  0.11434927239E+02  0.51100000000E-03 0.  1.
        -12    1    3    3    0    0 -0.14257177835E+02 -0.29023114805E+02 -0.26705590363E+02  0.41938012226E+02  0.00000000000E+00 0.  1.
</event>
<event>
 7    1  0.2090370E-015  0.9000777E+02  0.7816164E-02  0.1186339E+00
        -11   -1    0    0    0    0  0.00000000000E+00  0.00000000000E+00  0.45593999997E+02  0.45594000000E+02  0.51100000000E-03 0.  1.
         11   -1    0    0    0    0 -0.00000000000E+00 -0.00000000000E+00 -0.45593999997E+02  0.45594000000E+02  0.51100000000E-03 0. -1.
    9900012    2    1    2    0    0 -0.92639951877E-01  0.11686580370E+01  0.13640246686E+00  0.90007767226E+02  0.90000028953E+02 0.  0.
         12    1    1    2    0    0  0.92639951877E-01 -0.11686580370E+01 -0.13640246686E+00  0.11802327741E+01  0.00000000000E+00 0. -1.
         11    1    3    3    0    0 -0.10722775316E+02 -0.10023506270E+01 -0.82905624009E+01  0.13591028013E+02  0.51100000000E-03 0. -1.
        -11    1    3    3    0    0  0.39652095553E+01  0.38108422684E+02  0.10747246477E+02  0.39792939994E+02  0.51100000000E-03 0.  1.
         12    1    3    3    0    0  0.66649258086E+01 -0.35937414020E+02 -0.23202816093E+01  0.36623799219E+02  0.00000000000E+00 0. -1.
</event>
<event>
 7    1  0.2090370E-015  0.9000774E+02  0.7816164E-02  0.1186339E+00
        -11   -1    0    0    0    0  0.00000000000E+00  0.00000000000E+00  0.45593999997E+02  0.45594000000E+02  0.51100000000E-03 0. -1.
         11   -1    0    0    0    0 -0.00000000000E+00 -0.00000000000E+00 -0.45593999997E+02  0.45594000000E+02  0.51100000000E-03 0.  1.
    9900012    2    1    2    0    0  0.93282292942E+00 -0.97041067171E-01  0.71654128479E+00  0.90007742825E+02  0.90000004230E+02 0.  0.
         12    1    1    2    0    0 -0.93282292942E+00  0.97041067171E-01 -0.71654128479E+00  0.11802571750E+01  0.00000000000E+00 0. -1.
         11    1    3    3    0    0  0.31989894498E+01 -0.16072192503E+00  0.29762639669E+02  0.29934496578E+02  0.51100000000E-03 0. -1.
        -11    1    3    3    0    0 -0.52393757231E-01  0.20755621545E+02  0.38867567945E+01  0.21116473415E+02  0.51100000000E-03 0.  1.
        -12    1    3    3    0    0 -0.22137727631E+01 -0.20691940687E+02 -0.32932855179E+02  0.38956772832E+02  0.00000000000E+00 0.  1.
</event>
<event>
 7    1  0.2090370E-015  0.9000701E+02  0.7816164E-02  0.1186341E+00
        -11   -1    0    0    0    0  0.00000000000E+00  0.00000000000E+00  0.45593999997E+02  0.45594000000E+02  0.51100000000E-03 0. -1.
         11   -1    0    0    0    0 -0.00000000000E+00 -0.00000000000E+00 -0.45593999997E+02  0.45594000000E+02  0.51100000000E-03 0.  1.
    9900012    2    1    2    0    0  0.68356757324E+00  0.67981282707E+00 -0.68214722243E+00  0.90007011033E+02  0.89999262776E+02 0.  0.
         12    1    1    2    0    0 -0.68356757324E+00 -0.67981282707E+00  0.68214722243E+00  0.11809889670E+01  0.00000000000E+00 0. -1.
         11    1    3    3    0    0 -0.62800453908E+01 -0.85483590083E+01  0.34800915009E+01  0.11163532101E+02  0.51100000000E-03 0. -1.
        -11    1    3    3    0    0 -0.10104204240E+02  0.36331457628E+02 -0.20462853440E+02  0.42904523396E+02  0.51100000000E-03 0.  1.
         12    1    3    3    0    0  0.17067817204E+02 -0.27103285793E+02  0.16300614717E+02  0.35938955536E+02  0.00000000000E+00 0. -1.
</event>
<event>
 7    1  0.2090370E-015  0.9000774E+02  0.7816164E-02  0.1186339E+00
        -11   -1    0    0    0    0  0.00000000000E+00  0.00000000000E+00  0.45593999997E+02  0.45594000000E+02  0.51100000000E-03 0. -1.
         11   -1    0    0    0    0 -0.00000000000E+00 -0.00000000000E+00 -0.45593999997E+02  0.45594000000E+02  0.51100000000E-03 0.  1.
    9900012    2    1    2    0    0 -0.10630092165E+01 -0.50906760073E+00  0.62214161217E-01  0.90007741970E+02  0.90000003364E+02 0.  0.
         12    1    1    2    0    0  0.10630092165E+01  0.50906760073E+00 -0.62214161217E-01  0.11802580304E+01  0.00000000000E+00 0. -1.
         11    1    3    3    0    0  0.24179717682E+02  0.22647574293E+02  0.22085460129E+02  0.39816314720E+02  0.51100000000E-03 0. -1.
        -11    1    3    3    0    0 -0.10423742189E+02  0.60172033555E+01 -0.32505868269E+01  0.12467054681E+02  0.51100000000E-03 0.  1.
        -12    1    3    3    0    0 -0.14818984709E+02 -0.29173845250E+02 -0.18772659141E+02  0.37724372568E+02  0.00000000000E+00 0.  1.
</event>
<event>
 7    1  0.2090370E-015  0.9000830E+02  0.7816164E-02  0.1186338E+00
        -11   -1    0    0    0    0  0.00000000000E+00  0.00000000000E+00  0.45593999997E+02  0.45594000000E+02  0.51100000000E-03 0.  1.
         11   -1    0    0    0    0 -0.00000000000E+00 -0.00000000000E+00 -0.45593999997E+02  0.45594000000E+02  0.51100000000E-03 0. -1.
    9900012    2    1    2    0    0 -0.45638996557E+00 -0.71036962911E+00 -0.82388412548E+00  0.90008295858E+02  0.90000564561E+02 0.  0.
         12    1    1    2    0    0  0.45638996557E+00  0.71036962911E+00  0.82388412548E+00  0.11797041421E+01  0.00000000000E+00 0. -1.
         11    1    3    3    0    0  0.38423936087E+02  0.57000830321E+01 -0.78155851865E+01  0.39622887111E+02  0.51100000000E-03 0. -1.
        -11    1    3    3    0    0 -0.19472318273E+01 -0.19081014485E+01 -0.93565544393E+01  0.97456489862E+01  0.51100000000E-03 0.  1.
        -12    1    3    3    0    0 -0.36933094225E+02 -0.45023512128E+01  0.16348255500E+02  0.40639759760E+02  0.00000000000E+00 0.  1.
</event>
<event>
 7    1  0.2090370E-015  0.9000773E+02  0.7816164E-02  0.1186339E+00
        -11   -1    0    0    0    0  0.00000000000E+00  0.00000000000E+00  0.45593999997E+02  0.45594000000E+02  0.51100000000E-03 0. -1.
         11   -1    0    0    0    0 -0.00000000000E+00 -0.00000000000E+00 -0.45593999997E+02  0.45594000000E+02  0.51100000000E-03 0.  1.
    9900012    2    1    2    0    0  0.51804279980E+00  0.10603690690E+01 -0.16845558023E-01  0.90007731099E+02  0.89999992350E+02 0.  0.
         12    1    1    2    0    0 -0.51804279980E+00 -0.10603690690E+01  0.16845558023E-01  0.11802689006E+01  0.00000000000E+00 0. -1.
         11    1    3    3    0    0  0.47195705769E+01  0.44277928315E+01 -0.28400882606E+01  0.70672340684E+01  0.51100000000E-03 0. -1.
        -11    1    3    3    0    0  0.13721748617E+02  0.71829365187E+01 -0.35837184833E+02  0.39040809151E+02  0.51100000000E-03 0.  1.
         12    1    3    3    0    0 -0.17923276394E+02 -0.10550360281E+02  0.38660427535E+02  0.43899687880E+02  0.00000000000E+00 0. -1.
</event>
<event>
 7    1  0.2090370E-015  0.9000780E+02  0.7816164E-02  0.1186339E+00
        -11   -1    0    0    0    0  0.00000000000E+00  0.00000000000E+00  0.45593999997E+02  0.45594000000E+02  0.51100000000E-03 0.  1.
         11   -1    0    0    0    0 -0.00000000000E+00 -0.00000000000E+00 -0.45593999997E+02  0.45594000000E+02  0.51100000000E-03 0. -1.
    9900012    2    1    2    0    0 -0.54852352928E+00 -0.28312946856E+00  0.10058965914E+01  0.90007801580E+02  0.90000063761E+02 0.  0.
         12    1    1    2    0    0  0.54852352928E+00  0.28312946856E+00 -0.10058965914E+01  0.11801984201E+01  0.00000000000E+00 0. -1.
         11    1    3    3    0    0  0.73173540316E+01 -0.61457373499E+01  0.16343740564E+01  0.96945828386E+01  0.51100000000E-03 0. -1.
        -11    1    3    3    0    0 -0.28723643701E+02  0.28262410224E+01  0.30967335443E+02  0.42332153388E+02  0.51100000000E-03 0.  1.
         12    1    3    3    0    0  0.20857766140E+02  0.30363668590E+01 -0.31595812908E+02  0.37981065353E+02  0.00000000000E+00 0. -1.
</event>
<event>
 7    1  0.2090370E-015  0.9000778E+02  0.7816164E-02  0.1186339E+00
        -11   -1    0    0    0    0  0.00000000000E+00  0.00000000000E+00  0.45593999997E+02  0.45594000000E+02  0.51100000000E-03 0. -1.
         11   -1    0    0    0    0 -0.00000000000E+00 -0.00000000000E+00 -0.45593999997E+02  0.45594000000E+02  0.51100000000E-03 0.  1.
    9900012    2    1    2    0    0  0.32992050395E-01 -0.39812467647E+00 -0.11105515996E+01  0.90007781127E+02  0.90000043038E+02 0.  0.
         12    1    1    2    0    0 -0.32992050395E-01  0.39812467647E+00  0.11105515996E+01  0.11802188733E+01  0.00000000000E+00 0. -1.
         11    1    3    3    0    0  0.83403409621E+01  0.35561912865E+01  0.89696641695E+00  0.91111104068E+01  0.51100000000E-03 0. -1.
        -11    1    3    3    0    0 -0.30358566882E+02  0.27062129365E+02  0.82162639327E+01  0.41491064366E+02  0.51100000000E-03 0.  1.
         12    1    3    3    0    0  0.22051217971E+02 -0.31016445328E+02 -0.10223781949E+02  0.39405606354E+02  0.00000000000E+00 0. -1.
</event>
<event>
 7    1  0.2090370E-015  0.9000776E+02  0.7816164E-02  0.1186339E+00
        -11   -1    0    0    0    0  0.00000000000E+00  0.00000000000E+00  0.45593999997E+02  0.45594000000E+02  0.51100000000E-03 0.  1.
         11   -1    0    0    0    0 -0.00000000000E+00 -0.00000000000E+00 -0.45593999997E+02  0.45594000000E+02  0.51100000000E-03 0. -1.
    9900012    2    1    2    0    0  0.95454734416E+00  0.16942474289E+00  0.67313536988E+00  0.90007755702E+02  0.90000017278E+02 0.  0.
         12    1    1    2    0    0 -0.95454734416E+00 -0.16942474289E+00 -0.67313536988E+00  0.11802442976E+01  0.00000000000E+00 0. -1.
         11    1    3    3    0    0 -0.17074384301E+02 -0.31286499667E+02 -0.19194050256E+02  0.40481986441E+02  0.51100000000E-03 0. -1.
        -11    1    3    3    0    0 -0.39549953573E+01  0.90926253073E+01 -0.33947566136E+01  0.10480562770E+02  0.51100000000E-03 0.  1.
        -12    1    3    3    0    0  0.21983927002E+02  0.22363299103E+02  0.23261942239E+02  0.39045206491E+02  0.00000000000E+00 0.  1.
</event>
<event>
 7    1  0.2090370E-015  0.9000775E+02  0.7816164E-02  0.1186339E+00
        -11   -1    0    0    0    0  0.00000000000E+00  0.00000000000E+00  0.45593999997E+02  0.45594000000E+02  0.51100000000E-03 0. -1.
         11   -1    0    0    0    0 -0.00000000000E+00 -0.00000000000E+00 -0.45593999997E+02  0.45594000000E+02  0.51100000000E-03 0.  1.
    9900012    2    1    2    0    0 -0.64078376271E+00  0.80371831054E+00 -0.58002760541E+00  0.90007746224E+02  0.90000007674E+02 0.  0.
         12    1    1    2    0    0  0.64078376271E+00 -0.80371831054E+00  0.58002760541E+00  0.11802537762E+01  0.00000000000E+00 0. -1.
         11    1    3    3    0    0  0.52180132301E+01  0.30263669440E+01  0.68077206568E+01  0.90956923734E+01  0.51100000000E-03 0. -1.
        -11    1    3    3    0    0 -0.41814950202E+02 -0.33337247990E+01 -0.14226552380E+02  0.44294453088E+02  0.51100000000E-03 0.  1.
         12    1    3    3    0    0  0.35956153209E+02  0.11110761655E+01  0.68388041181E+01  0.36617600763E+02  0.00000000000E+00 0. -1.
</event>
<event>
 7    1  0.2090370E-015  0.9000771E+02  0.7816164E-02  0.1186339E+00
        -11   -1    0    0    0    0  0.00000000000E+00  0.00000000000E+00  0.45593999997E+02  0.45594000000E+02  0.51100000000E-03 0. -1.
         11   -1    0    0    0    0 -0.00000000000E+00 -0.00000000000E+00 -0.45593999997E+02  0.45594000000E+02  0.51100000000E-03 0.  1.
    9900012    2    1    2    0    0  0.50257704752E+00 -0.44950180513E+00 -0.96872964300E+00  0.90007714999E+02  0.89999976037E+02 0.  0.
         12    1    1    2    0    0 -0.50257704752E+00  0.44950180513E+00  0.96872964300E+00  0.11802850006E+01  0.00000000000E+00 0. -1.
         11    1    3    3    0    0  0.17856178918E+02 -0.16512753166E+02  0.31637512239E+02  0.39905467340E+02  0.51100000000E-03 0. -1.
        -11    1    3    3    0    0  0.65269766375E+01 -0.28524814692E+01 -0.94614614210E+01  0.11843028626E+02  0.51100000000E-03 0.  1.
        -12    1    3    3    0    0 -0.23880578508E+02  0.18915732830E+02 -0.23144780461E+02  0.38259219033E+02  0.00000000000E+00 0.  1.
</event>
<event>
 7    1  0.2090370E-015  0.9000675E+02  0.7816164E-02  0.1186341E+00
        -11   -1    0    0    0    0  0.00000000000E+00  0.00000000000E+00  0.45593999997E+02  0.45594000000E+02  0.51100000000E-03 0. -1.
         11   -1    0    0    0    0 -0.00000000000E+00 -0.00000000000E+00 -0.45593999997E+02  0.45594000000E+02  0.51100000000E-03 0.  1.
    9900012    2    1    2    0    0 -0.48087087527E+00 -0.23428244473E+00 -0.10532014764E+01  0.90006747101E+02  0.89998995357E+02 0.  0.
         12    1    1    2    0    0  0.48087087527E+00  0.23428244473E+00  0.10532014764E+01  0.11812528995E+01  0.00000000000E+00 0. -1.
         11    1    3    3    0    0 -0.88446469501E+01 -0.78777891951E+00 -0.17687569523E+02  0.19791374161E+02  0.51100000000E-03 0. -1.
        -11    1    3    3    0    0 -0.26798978489E+02  0.13581969789E+02  0.25255385207E+01  0.30150182362E+02  0.51100000000E-03 0.  1.
         12    1    3    3    0    0  0.35162754564E+02 -0.13028473314E+02  0.14108829526E+02  0.40065190577E+02  0.00000000000E+00 0. -1.
</event>
<event>
 7    1  0.2090370E-015  0.9000782E+02  0.7816164E-02  0.1186339E+00
        -11   -1    0    0    0    0  0.00000000000E+00  0.00000000000E+00  0.45593999997E+02  0.45594000000E+02  0.51100000000E-03 0. -1.
         11   -1    0    0    0    0 -0.00000000000E+00 -0.00000000000E+00 -0.45593999997E+02  0.45594000000E+02  0.51100000000E-03 0.  1.
    9900012    2    1    2    0    0 -0.14318000087E+00  0.90769503059E+00 -0.74055016869E+00  0.90007819788E+02  0.90000082209E+02 0.  0.
         12    1    1    2    0    0  0.14318000087E+00 -0.90769503059E+00  0.74055016869E+00  0.11801802123E+01  0.00000000000E+00 0. -1.
         11    1    3    3    0    0  0.16516994397E+01  0.29196492599E+02  0.24798734282E+02  0.38342411418E+02  0.51100000000E-03 0. -1.
        -11    1    3    3    0    0  0.71971143063E+01 -0.11668367082E+01  0.57549676705E+01  0.92886821127E+01  0.51100000000E-03 0.  1.
        -12    1    3    3    0    0 -0.89919937469E+01 -0.27121960860E+02 -0.31294252121E+02  0.42376726257E+02  0.00000000000E+00 0.  1.
</event>
<event>
 7    1  0.2090370E-015  0.9000775E+02  0.7816164E-02  0.1186339E+00
        -11   -1    0    0    0    0  0.00000000000E+00  0.00000000000E+00  0.45593999997E+02  0.45594000000E+02  0.51100000000E-03 0. -1.
         11   -1    0    0    0    0 -0.00000000000E+00 -0.00000000000E+00 -0.45593999997E+02  0.45594000000E+02  0.51100000000E-03 0.  1.
    9900012    2    1    2    0    0 -0.10123657236E+01  0.60442434569E+00 -0.52788507631E-01  0.90007745886E+02  0.90000007331E+02 0.  0.
         12    1    1    2    0    0  0.10123657236E+01 -0.60442434569E+00  0.52788507631E-01  0.11802541144E+01  0.00000000000E+00 0. -1.
         11    1    3    3    0    0 -0.15847732037E+02  0.90015704051E+01  0.21632238392E+02  0.28286615538E+02  0.51100000000E-03 0. -1.
        -11    1    3    3    0    0 -0.10746591355E+02  0.12718454055E+02 -0.23152101532E+02  0.28517855896E+02  0.51100000000E-03 0.  1.
        -12    1    3    3    0    0  0.25581957669E+02 -0.21115600114E+02  0.14670746317E+01  0.33203274452E+02  0.00000000000E+00 0.  1.
</event>
<event>
 7    1  0.2090370E-015  0.9000770E+02  0.7816164E-02  0.1186339E+00
        -11   -1    0    0    0    0  0.00000000000E+00  0.00000000000E+00  0.45593999997E+02  0.45594000000E+02  0.51100000000E-03 0. -1.
         11   -1    0    0    0    0 -0.00000000000E+00 -0.00000000000E+00 -0.45593999997E+02  0.45594000000E+02  0.51100000000E-03 0.  1.
    9900012    2    1    2    0    0  0.62325720887E+00  0.97591398508E+00 -0.22860820176E+00  0.90007695224E+02  0.89999956001E+02 0.  0.
         12    1    1    2    0    0 -0.62325720887E+00 -0.97591398508E+00  0.22860820176E+00  0.11803047761E+01  0.00000000000E+00 0. -1.
         11    1    3    3    0    0 -0.29745996047E+02  0.38259514134E+01 -0.70639643873E+00  0.29999353014E+02  0.51100000000E-03 0. -1.
        -11    1    3    3    0    0 -0.88110482109E+01  0.14114454436E+02  0.41706460165E+01  0.17153620115E+02  0.51100000000E-03 0.  1.
        -12    1    3    3    0    0  0.39180301467E+02 -0.16964491865E+02 -0.36928577795E+01  0.42854722095E+02  0.00000000000E+00 0.  1.
</event>
<event>
 7    1  0.2090370E-015  0.9000773E+02  0.7816164E-02  0.1186339E+00
        -11   -1    0    0    0    0  0.00000000000E+00  0.00000000000E+00  0.45593999997E+02  0.45594000000E+02  0.51100000000E-03 0.  1.
         11   -1    0    0    0    0 -0.00000000000E+00 -0.00000000000E+00 -0.45593999997E+02  0.45594000000E+02  0.51100000000E-03 0. -1.
    9900012    2    1    2    0    0 -0.10732006661E+01  0.48831491870E+00 -0.53271575145E-01  0.90007725036E+02  0.89999986207E+02 0.  0.
         12    1    1    2    0    0  0.10732006661E+01 -0.48831491870E+00  0.53271575145E-01  0.11802749638E+01  0.00000000000E+00 0. -1.
         11    1    3    3    0    0 -0.36668279414E+01  0.24843845560E+02 -0.10055346390E+02  0.27051289814E+02  0.51100000000E-03 0. -1.
        -11    1    3    3    0    0  0.28383926820E+02 -0.92261888037E+01 -0.36846441090E+01  0.30072353816E+02  0.51100000000E-03 0.  1.
         12    1    3    3    0    0 -0.25790299544E+02 -0.15129341837E+02  0.13686718923E+02  0.32884081406E+02  0.00000000000E+00 0. -1.
</event>
<event>
 7    1  0.2090370E-015  0.9000763E+02  0.7816164E-02  0.1186339E+00
        -11   -1    0    0    0    0  0.00000000000E+00  0.00000000000E+00  0.45593999997E+02  0.45594000000E+02  0.51100000000E-03 0. -1.
         11   -1    0    0    0    0 -0.00000000000E+00 -0.00000000000E+00 -0.45593999997E+02  0.45594000000E+02  0.51100000000E-03 0.  1.
    9900012    2    1    2    0    0 -0.44358332605E+00  0.10237348345E+01 -0.38533197661E+00  0.90007627215E+02  0.89999887095E+02 0.  0.
         12    1    1    2    0    0  0.44358332605E+00 -0.10237348345E+01  0.38533197661E+00  0.11803727847E+01  0.00000000000E+00 0. -1.
         11    1    3    3    0    0  0.10143196972E+01 -0.86075047680E+01  0.35831216954E+01  0.93785256903E+01  0.51100000000E-03 0. -1.
        -11    1    3    3    0    0 -0.10484322222E+02 -0.18097829121E+02 -0.33264467837E+02  0.39293475949E+02  0.51100000000E-03 0.  1.
         12    1    3    3    0    0  0.90264191991E+01  0.27729068723E+02  0.29296014165E+02  0.41335625576E+02  0.00000000000E+00 0. -1.
</event>
<event>
 7    1  0.2090370E-015  0.9000769E+02  0.7816164E-02  0.1186339E+00
        -11   -1    0    0    0    0  0.00000000000E+00  0.00000000000E+00  0.45593999997E+02  0.45594000000E+02  0.51100000000E-03 0.  1.
         11   -1    0    0    0    0 -0.00000000000E+00 -0.00000000000E+00 -0.45593999997E+02  0.45594000000E+02  0.51100000000E-03 0. -1.
    9900012    2    1    2    0    0  0.35736036940E+00 -0.70846499952E+00  0.87379148447E+00  0.90007686208E+02  0.89999946866E+02 0.  0.
         12    1    1    2    0    0 -0.35736036940E+00  0.70846499952E+00 -0.87379148447E+00  0.11803137920E+01  0.00000000000E+00 0. -1.
         11    1    3    3    0    0  0.33703473241E+01  0.65329775263E+00 -0.77411787081E+01  0.84682871403E+01  0.51100000000E-03 0. -1.
        -11    1    3    3    0    0 -0.39037840316E+02 -0.85825542901E+01 -0.87256467074E+01  0.40911491361E+02  0.51100000000E-03 0.  1.
         12    1    3    3    0    0  0.36024853361E+02  0.72207915380E+01  0.17340616900E+02  0.40627907706E+02  0.00000000000E+00 0. -1.
</event>
<event>
 7    1  0.2090370E-015  0.9000776E+02  0.7816164E-02  0.1186339E+00
        -11   -1    0    0    0    0  0.00000000000E+00  0.00000000000E+00  0.45593999997E+02  0.45594000000E+02  0.51100000000E-03 0.  1.
         11   -1    0    0    0    0 -0.00000000000E+00 -0.00000000000E+00 -0.45593999997E+02  0.45594000000E+02  0.51100000000E-03 0. -1.
    9900012    2    1    2    0    0 -0.78367636473E+00  0.38254422067E+00  0.79528234902E+00  0.90007761575E+02  0.90000023228E+02 0.  0.
         12    1    1    2    0    0  0.78367636473E+00 -0.38254422067E+00 -0.79528234902E+00  0.11802384251E+01  0.00000000000E+00 0. -1.
         11    1    3    3    0    0  0.34851670391E+02  0.18429140889E+02 -0.68218088613E+01  0.40010114213E+02  0.51100000000E-03 0. -1.
        -11    1    3    3    0    0  0.10616205966E+01 -0.76645893983E+01  0.89575045891E+01  0.11836800989E+02  0.51100000000E-03 0.  1.
        -12    1    3    3    0    0 -0.36696967353E+02 -0.10382007270E+02 -0.13404133787E+01  0.38160846372E+02  0.00000000000E+00 0.  1.
</event>
<event>
 7    1  0.2090370E-015  0.9000823E+02  0.7816164E-02  0.1186338E+00
        -11   -1    0    0    0    0  0.00000000000E+00  0.00000000000E+00  0.45593999997E+02  0.45594000000E+02  0.51100000000E-03 0.  1.
         11   -1    0    0    0    0 -0.00000000000E+00 -0.00000000000E+00 -0.45593999997E+02  0.45594000000E+02  0.51100000000E-03 0. -1.
    9900012    2    1    2    0    0 -0.81247669201E+00  0.42875534320E-01  0.85433997354E+00  0.90008231600E+02  0.90000499456E+02 0.  0.
         12    1    1    2    0    0  0.81247669201E+00 -0.42875534320E-01 -0.85433997354E+00  0.11797683997E+01  0.00000000000E+00 0. -1.
         11    1    3    3    0    0  0.49473352597E+01  0.18702852422E+02 -0.32429445560E+02  0.37761643959E+02  0.51100000000E-03 0. -1.
        -11    1    3    3    0    0  0.32519291670E+01 -0.53102783982E+01 -0.66962400337E+01  0.91440543974E+01  0.51100000000E-03 0.  1.
        -12    1    3    3    0    0 -0.90117411188E+01 -0.13349698489E+02  0.39980025567E+02  0.43102533244E+02  0.00000000000E+00 0.  1.
</event>
<event>
 7    1  0.2090370E-015  0.9000776E+02  0.7816164E-02  0.1186339E+00
        -11   -1    0    0    0    0  0.00000000000E+00  0.00000000000E+00  0.45593999997E+02  0.45594000000E+02  0.51100000000E-03 0.  1.
         11   -1    0    0    0    0 -0.00000000000E+00 -0.00000000000E+00 -0.45593999997E+02  0.45594000000E+02  0.51100000000E-03 0. -1.
    9900012    2    1    2    0    0 -0.91766891357E+00 -0.40208661672E+00 -0.62384080128E+00  0.90007759674E+02  0.90000021301E+02 0.  0.
         12    1    1    2    0    0  0.91766891357E+00  0.40208661672E+00  0.62384080128E+00  0.11802403262E+01  0.00000000000E+00 0. -1.
         11    1    3    3    0    0 -0.50521607215E+00 -0.80473337609E+01  0.44319236447E+01  0.92009114436E+01  0.51100000000E-03 0. -1.
        -11    1    3    3    0    0 -0.72786376097E+01  0.26504066512E+02  0.29828716706E+02  0.40561021286E+02  0.51100000000E-03 0.  1.
         12    1    3    3    0    0  0.68661847683E+01 -0.18858819368E+02 -0.34884481152E+02  0.40245826945E+02  0.00000000000E+00 0. -1.
</event>
<event>
 7    1  0.2090370E-015  0.9000810E+02  0.7816164E-02  0.1186338E+00
        -11   -1    0    0    0    0  0.00000000000E+00  0.00000000000E+00  0.45593999997E+02  0.45594000000E+02  0.51100000000E-03 0.  1.
         11   -1    0    0    0    0 -0.00000000000E+00 -0.00000000000E+00 -0.45593999997E+02  0.45594000000E+02  0.51100000000E-03 0. -1.
    9900012    2    1    2    0    0 -0.89751199270E+00 -0.75445327540E+00 -0.13202518895E+00  0.90008102474E+02  0.90000368626E+02 0.  0.
         12    1    1    2    0    0  0.89751199270E+00  0.75445327540E+00  0.13202518895E+00  0.11798975262E+01  0.00000000000E+00 0. -1.
         11    1    3    3    0    0  0.14496247657E+01  0.80960008554E+01  0.20836734582E+01  0.84845941065E+01  0.51100000000E-03 0. -1.
        -11    1    3    3    0    0 -0.97769406713E+01  0.34864018704E+02 -0.71509779273E+01  0.36908330423E+02  0.51100000000E-03 0.  1.
         12    1    3    3    0    0  0.74298039129E+01 -0.43714472835E+02  0.49352792801E+01  0.44615177944E+02  0.00000000000E+00 0. -1.
</event>
<event>
 7    1  0.2090370E-015  0.9000777E+02  0.7816164E-02  0.1186339E+00
        -11   -1    0    0    0    0  0.00000000000E+00  0.00000000000E+00  0.45593999997E+02  0.45594000000E+02  0.51100000000E-03 0.  1.
         11   -1    0    0    0    0 -0.00000000000E+00 -0.00000000000E+00 -0.45593999997E+02  0.45594000000E+02  0.51100000000E-03 0. -1.
    9900012    2    1    2    0    0 -0.80217367669E+00  0.52065505509E+00  0.69165138641E+00  0.90007768695E+02  0.90000030441E+02 0.  0.
         12    1    1    2    0    0  0.80217367669E+00 -0.52065505509E+00 -0.69165138641E+00  0.11802313054E+01  0.00000000000E+00 0. -1.
         11    1    3    3    0    0 -0.27856549292E+01  0.88362009577E+01  0.67201511321E+01  0.11445468634E+02  0.51100000000E-03 0. -1.
        -11    1    3    3    0    0  0.56143605682E+01  0.34288536917E+02  0.29539208697E+01  0.34870481174E+02  0.51100000000E-03 0.  1.
         12    1    3    3    0    0 -0.36308793157E+01 -0.42604082820E+02 -0.89824206154E+01  0.43691818887E+02  0.00000000000E+00 0. -1.
</event>
<event>
 7    1  0.2090370E-015  0.9000770E+02  0.7816164E-02  0.1186339E+00
        -11   -1    0    0    0    0  0.00000000000E+00  0.00000000000E+00  0.45593999997E+02  0.45594000000E+02  0.51100000000E-03 0.  1.
         11   -1    0    0    0    0 -0.00000000000E+00 -0.00000000000E+00 -0.45593999997E+02  0.45594000000E+02  0.51100000000E-03 0. -1.
    9900012    2    1    2    0    0  0.70960525081E+00 -0.62797628761E+00  0.70371671091E+00  0.90007698751E+02  0.89999959574E+02 0.  0.
         12    1    1    2    0    0 -0.70960525081E+00  0.62797628761E+00 -0.70371671091E+00  0.11803012493E+01  0.00000000000E+00 0. -1.
         11    1    3    3    0    0 -0.87457535336E+01 -0.10019712135E+02 -0.64391524830E+01  0.14776519249E+02  0.51100000000E-03 0. -1.
        -11    1    3    3    0    0  0.25414530145E+02  0.95549957727E+01  0.34291356779E+02  0.43738923589E+02  0.51100000000E-03 0.  1.
         12    1    3    3    0    0 -0.15959171361E+02 -0.16325992519E+00 -0.27148487585E+02  0.31492255913E+02  0.00000000000E+00 0. -1.
</event>
<event>
 7    1  0.2090370E-015  0.9000771E+02  0.7816164E-02  0.1186339E+00
        -11   -1    0    0    0    0  0.00000000000E+00  0.00000000000E+00  0.45593999997E+02  0.45594000000E+02  0.51100000000E-03 0.  1.
         11   -1    0    0    0    0 -0.00000000000E+00 -0.00000000000E+00 -0.45593999997E+02  0.45594000000E+02  0.51100000000E-03 0. -1.
    9900012    2    1    2    0    0 -0.85786335503E+00  0.70650263782E+00 -0.39750759835E+00  0.90007708594E+02  0.89999969547E+02 0.  0.
         12    1    1    2    0    0  0.85786335503E+00 -0.70650263782E+00  0.39750759835E+00  0.11802914063E+01  0.00000000000E+00 0. -1.
         11    1    3    3    0    0  0.51682142976E+01 -0.59290083808E+01  0.55861720540E+01  0.96472222885E+01  0.51100000000E-03 0. -1.
        -11    1    3    3    0    0  0.32152498469E+02  0.15019672084E+02 -0.17559218566E+02  0.39594189778E+02  0.51100000000E-03 0.  1.
         12    1    3    3    0    0 -0.38178576121E+02 -0.83841610649E+01  0.11575538913E+02  0.40766296527E+02  0.00000000000E+00 0. -1.
</event>
<event>
 7    1  0.2090370E-015  0.9000773E+02  0.7816164E-02  0.1186339E+00
        -11   -1    0    0    0    0  0.00000000000E+00  0.00000000000E+00  0.45593999997E+02  0.45594000000E+02  0.51100000000E-03 0.  1.
         11   -1    0    0    0    0 -0.00000000000E+00 -0.00000000000E+00 -0.45593999997E+02  0.45594000000E+02  0.51100000000E-03 0. -1.
    9900012    2    1    2    0    0 -0.29390624899E+00  0.11191039526E+01 -0.23295542978E+00  0.90007727670E+02  0.89999988876E+02 0.  0.
         12    1    1    2    0    0  0.29390624899E+00 -0.11191039526E+01  0.23295542978E+00  0.11802723297E+01  0.00000000000E+00 0. -1.
         11    1    3    3    0    0 -0.26776245602E-01 -0.89931015988E+01 -0.31446860805E+01  0.95271005107E+01  0.51100000000E-03 0. -1.
        -11    1    3    3    0    0 -0.36205104406E+02 -0.11078414171E+02 -0.44261878905E+01  0.38119968325E+02  0.51100000000E-03 0.  1.
         12    1    3    3    0    0  0.35937974403E+02  0.21190619722E+02  0.73379185412E+01  0.42360658835E+02  0.00000000000E+00 0. -1.
</event>
<event>
 7    1  0.2090370E-015  0.9000774E+02  0.7816164E-02  0.1186339E+00
        -11   -1    0    0    0    0  0.00000000000E+00  0.00000000000E+00  0.45593999997E+02  0.45594000000E+02  0.51100000000E-03 0.  1.
         11   -1    0    0    0    0 -0.00000000000E+00 -0.00000000000E+00 -0.45593999997E+02  0.45594000000E+02  0.51100000000E-03 0. -1.
    9900012    2    1    2    0    0  0.22417786891E+00  0.11566389186E+01  0.70277740137E-01  0.90007742288E+02  0.90000003687E+02 0.  0.
         12    1    1    2    0    0 -0.22417786891E+00 -0.11566389186E+01 -0.70277740137E-01  0.11802577115E+01  0.00000000000E+00 0. -1.
         11    1    3    3    0    0  0.32548073905E+02  0.31860157929E+00 -0.13924129473E+02  0.35402824799E+02  0.51100000000E-03 0. -1.
        -11    1    3    3    0    0  0.71656589284E+01  0.10864458226E+01 -0.68313715759E+01  0.99596521161E+01  0.51100000000E-03 0.  1.
        -12    1    3    3    0    0 -0.39489554965E+02 -0.24840848329E+00  0.20825778789E+02  0.44645265373E+02  0.00000000000E+00 0.  1.
</event>
<event>
 7    1  0.2090370E-015  0.9000767E+02  0.7816164E-02  0.1186339E+00
        -11   -1    0    0    0    0  0.00000000000E+00  0.00000000000E+00  0.45593999997E+02  0.45594000000E+02  0.51100000000E-03 0. -1.
         11   -1    0    0    0    0 -0.00000000000E+00 -0.00000000000E+00 -0.45593999997E+02  0.45594000000E+02  0.51100000000E-03 0.  1.
    9900012    2    1    2    0    0 -0.96399750285E+00  0.61486127429E+00  0.29297208356E+00  0.90007670294E+02  0.89999930742E+02 0.  0.
         12    1    1    2    0    0  0.96399750285E+00 -0.61486127429E+00 -0.29297208356E+00  0.11803297056E+01  0.00000000000E+00 0. -1.
         11    1    3    3    0    0  0.13163580441E+02 -0.38248123815E+02  0.93100279582E+01  0.41507534813E+02  0.51100000000E-03 0. -1.
        -11    1    3    3    0    0 -0.54049107888E+01  0.30582005464E+01  0.60658502934E+01  0.86810247817E+01  0.51100000000E-03 0.  1.
        -12    1    3    3    0    0 -0.87226671554E+01  0.35804784543E+02 -0.15082906168E+02  0.39819110700E+02  0.00000000000E+00 0.  1.
</event>
<event>
 7    1  0.2090370E-015  0.9000763E+02  0.7816164E-02  0.1186339E+00
        -11   -1    0    0    0    0  0.00000000000E+00  0.00000000000E+00  0.45593999997E+02  0.45594000000E+02  0.51100000000E-03 0. -1.
         11   -1    0    0    0    0 -0.00000000000E+00 -0.00000000000E+00 -0.45593999997E+02  0.45594000000E+02  0.51100000000E-03 0.  1.
    9900012    2    1    2    0    0 -0.11001222126E+01  0.40933349737E+00 -0.12425290394E+00  0.90007634981E+02  0.89999894962E+02 0.  0.
         12    1    1    2    0    0  0.11001222126E+01 -0.40933349737E+00  0.12425290394E+00  0.11803650194E+01  0.00000000000E+00 0. -1.
         11    1    3    3    0    0 -0.72747831922E+01 -0.20812798660E+01  0.10467246667E+02  0.12915782958E+02  0.51100000000E-03 0. -1.
        -11    1    3    3    0    0  0.36644452377E+02  0.17824487042E+02  0.18281402011E+01  0.40790566620E+02  0.51100000000E-03 0.  1.
         12    1    3    3    0    0 -0.30469791398E+02 -0.15333873679E+02 -0.12419639772E+02  0.36301285403E+02  0.00000000000E+00 0. -1.
</event>
<event>
 7    1  0.2090370E-015  0.9000767E+02  0.7816164E-02  0.1186339E+00
        -11   -1    0    0    0    0  0.00000000000E+00  0.00000000000E+00  0.45593999997E+02  0.45594000000E+02  0.51100000000E-03 0.  1.
         11   -1    0    0    0    0 -0.00000000000E+00 -0.00000000000E+00 -0.45593999997E+02  0.45594000000E+02  0.51100000000E-03 0. -1.
    9900012    2    1    2    0    0  0.17263485217E+00 -0.22540403881E+00  0.11456754842E+01  0.90007668653E+02  0.89999929079E+02 0.  0.
         12    1    1    2    0    0 -0.17263485217E+00  0.22540403881E+00 -0.11456754842E+01  0.11803313467E+01  0.00000000000E+00 0. -1.
         11    1    3    3    0    0 -0.30781265023E+01 -0.34890259308E+02 -0.15106881915E+02  0.38144762928E+02  0.51100000000E-03 0. -1.
        -11    1    3    3    0    0 -0.16751272969E+01  0.33583445103E+00  0.17087039820E+02  0.17172238244E+02  0.51100000000E-03 0.  1.
        -12    1    3    3    0    0  0.49258886514E+01  0.34329020818E+02 -0.83448242078E+00  0.34690667481E+02  0.00000000000E+00 0.  1.
</event>
<event>
 7    1  0.2090370E-015  0.9000760E+02  0.7816164E-02  0.1186339E+00
        -11   -1    0    0    0    0  0.00000000000E+00  0.00000000000E+00  0.45593999997E+02  0.45594000000E+02  0.51100000000E-03 0. -1.
         11   -1    0    0    0    0 -0.00000000000E+00 -0.00000000000E+00 -0.45593999997E+02  0.45594000000E+02  0.51100000000E-03 0.  1.
    9900012    2    1    2    0    0 -0.94579773805E+00  0.23335914068E+00 -0.66659330395E+00  0.90007603252E+02  0.89999862815E+02 0.  0.
         12    1    1    2    0    0  0.94579773805E+00 -0.23335914068E+00  0.66659330395E+00  0.11803967480E+01  0.00000000000E+00 0. -1.
         11    1    3    3    0    0 -0.19363449054E+02  0.29537557200E+02  0.63203839852E+01  0.35879767259E+02  0.51100000000E-03 0. -1.
        -11    1    3    3    0    0 -0.32001651494E+01  0.62235935690E+01  0.73398113742E+01  0.10141351249E+02  0.51100000000E-03 0.  1.
        -12    1    3    3    0    0  0.21617816465E+02 -0.35527791628E+02 -0.14326788663E+02  0.43986484743E+02  0.00000000000E+00 0.  1.
</event>
<event>
 7    1  0.2090370E-015  0.9000773E+02  0.7816164E-02  0.1186339E+00
        -11   -1    0    0    0    0  0.00000000000E+00  0.00000000000E+00  0.45593999997E+02  0.45594000000E+02  0.51100000000E-03 0. -1.
         11   -1    0    0    0    0 -0.00000000000E+00 -0.00000000000E+00 -0.45593999997E+02  0.45594000000E+02  0.51100000000E-03 0.  1.
    9900012    2    1    2    0    0  0.68215165328E-01  0.69558884537E+00 -0.95107654587E+00  0.90007727258E+02  0.89999988457E+02 0.  0.
         12    1    1    2    0    0 -0.68215165328E-01 -0.69558884537E+00  0.95107654587E+00  0.11802727425E+01  0.00000000000E+00 0. -1.
         11    1    3    3    0    0 -0.56297395439E+00  0.67584625125E+01 -0.91838789889E+00  0.68437702913E+01  0.51100000000E-03 0. -1.
        -11    1    3    3    0    0 -0.18128290213E+02  0.24656475561E+02 -0.24867725650E+02  0.39433240704E+02  0.51100000000E-03 0.  1.
         12    1    3    3    0    0  0.18759479333E+02 -0.30719349228E+02  0.24835037003E+02  0.43730716262E+02  0.00000000000E+00 0. -1.
</event>
<event>
 7    1  0.2090370E-015  0.9000774E+02  0.7816164E-02  0.1186339E+00
        -11   -1    0    0    0    0  0.00000000000E+00  0.00000000000E+00  0.45593999997E+02  0.45594000000E+02  0.51100000000E-03 0.  1.
         11   -1    0    0    0    0 -0.00000000000E+00 -0.00000000000E+00 -0.45593999997E+02  0.45594000000E+02  0.51100000000E-03 0. -1.
    9900012    2    1    2    0    0 -0.34834289063E-01  0.40024464281E+00  0.11097793641E+01  0.90007737555E+02  0.89999998891E+02 0.  0.
         12    1    1    2    0    0  0.34834289063E-01 -0.40024464281E+00 -0.11097793641E+01  0.11802624449E+01  0.00000000000E+00 0. -1.
         11    1    3    3    0    0  0.44310891202E+01 -0.73620374485E+01  0.48824058104E+01  0.98829162165E+01  0.51100000000E-03 0. -1.
        -11    1    3    3    0    0 -0.35999011464E+01 -0.82749004752E+01  0.36062247474E+02  0.37174170593E+02  0.51100000000E-03 0.  1.
         12    1    3    3    0    0 -0.86602226282E+00  0.16037182567E+02 -0.39834873920E+02  0.42950650746E+02  0.00000000000E+00 0. -1.
</event>
<event>
 7    1  0.2090370E-015  0.9000772E+02  0.7816164E-02  0.1186339E+00
        -11   -1    0    0    0    0  0.00000000000E+00  0.00000000000E+00  0.45593999997E+02  0.45594000000E+02  0.51100000000E-03 0.  1.
         11   -1    0    0    0    0 -0.00000000000E+00 -0.00000000000E+00 -0.45593999997E+02  0.45594000000E+02  0.51100000000E-03 0. -1.
    9900012    2    1    2    0    0 -0.87113902573E+00 -0.72773889119E+00  0.32336616352E+00  0.90007723434E+02  0.89999984584E+02 0.  0.
         12    1    1    2    0    0  0.87113902573E+00  0.72773889119E+00 -0.32336616352E+00  0.11802765657E+01  0.00000000000E+00 0. -1.
         11    1    3    3    0    0  0.35346614106E+02 -0.14437601988E+02 -0.35349338650E+01  0.38344794139E+02  0.51100000000E-03 0. -1.
        -11    1    3    3    0    0  0.66717720677E+01  0.14996680239E+01  0.15369013213E+01  0.70088239126E+01  0.51100000000E-03 0.  1.
        -12    1    3    3    0    0 -0.42889525199E+02  0.12210195073E+02  0.23213987073E+01  0.44654105382E+02  0.00000000000E+00 0.  1.
</event>
<event>
 7    1  0.2090370E-015  0.9000777E+02  0.7816164E-02  0.1186339E+00
        -11   -1    0    0    0    0  0.00000000000E+00  0.00000000000E+00  0.45593999997E+02  0.45594000000E+02  0.51100000000E-03 0.  1.
         11   -1    0    0    0    0 -0.00000000000E+00 -0.00000000000E+00 -0.45593999997E+02  0.45594000000E+02  0.51100000000E-03 0. -1.
    9900012    2    1    2    0    0 -0.11502556155E+01  0.24936984290E-01 -0.26310366904E+00  0.90007774015E+02  0.90000035832E+02 0.  0.
         12    1    1    2    0    0  0.11502556155E+01 -0.24936984290E-01  0.26310366904E+00  0.11802259847E+01  0.00000000000E+00 0. -1.
         11    1    3    3    0    0  0.98141240687E+01  0.23730176514E+00  0.38353655350E+01  0.10539609690E+02  0.51100000000E-03 0. -1.
        -11    1    3    3    0    0  0.27075911931E+02 -0.12414533010E+02 -0.20630491852E+02  0.36233173075E+02  0.51100000000E-03 0.  1.
         12    1    3    3    0    0 -0.38040291615E+02  0.12202168229E+02  0.16532022648E+02  0.43234991251E+02  0.00000000000E+00 0. -1.
</event>
<event>
 7    1  0.2090370E-015  0.9000770E+02  0.7816164E-02  0.1186339E+00
        -11   -1    0    0    0    0  0.00000000000E+00  0.00000000000E+00  0.45593999997E+02  0.45594000000E+02  0.51100000000E-03 0.  1.
         11   -1    0    0    0    0 -0.00000000000E+00 -0.00000000000E+00 -0.45593999997E+02  0.45594000000E+02  0.51100000000E-03 0. -1.
    9900012    2    1    2    0    0  0.93576123141E+00  0.19474074048E+00  0.69248253681E+00  0.90007701266E+02  0.89999962122E+02 0.  0.
         12    1    1    2    0    0 -0.93576123141E+00 -0.19474074048E+00 -0.69248253681E+00  0.11802987342E+01  0.00000000000E+00 0. -1.
         11    1    3    3    0    0 -0.27829589877E+02 -0.98140563642E+01 -0.17036754549E+02  0.34074224582E+02  0.51100000000E-03 0. -1.
        -11    1    3    3    0    0 -0.54877464528E+00 -0.10215598381E+02 -0.71577704884E+01  0.12485723147E+02  0.51100000000E-03 0.  1.
        -12    1    3    3    0    0  0.29314125753E+02  0.20224395485E+02  0.24887007574E+02  0.43447753537E+02  0.00000000000E+00 0.  1.
</event>
<event>
 7    1  0.2090370E-015  0.9000763E+02  0.7816164E-02  0.1186339E+00
        -11   -1    0    0    0    0  0.00000000000E+00  0.00000000000E+00  0.45593999997E+02  0.45594000000E+02  0.51100000000E-03 0.  1.
         11   -1    0    0    0    0 -0.00000000000E+00 -0.00000000000E+00 -0.45593999997E+02  0.45594000000E+02  0.51100000000E-03 0. -1.
    9900012    2    1    2    0    0  0.11688084181E+01 -0.16147581225E+00  0.32985274342E-01  0.90007629048E+02  0.89999888951E+02 0.  0.
         12    1    1    2    0    0 -0.11688084181E+01  0.16147581225E+00 -0.32985274342E-01  0.11803709521E+01  0.00000000000E+00 0. -1.
         11    1    3    3    0    0 -0.21194823974E+02 -0.19099810811E+02 -0.22804900873E+02  0.36525153530E+02  0.51100000000E-03 0. -1.
        -11    1    3    3    0    0  0.86503033499E+01 -0.61516135475E+01 -0.65556802118E+01  0.12475858311E+02  0.51100000000E-03 0.  1.
        -12    1    3    3    0    0  0.13713329042E+02  0.25089948546E+02  0.29393566359E+02  0.41006617207E+02  0.00000000000E+00 0.  1.
</event>
<event>
 7    1  0.2090370E-015  0.9000775E+02  0.7816164E-02  0.1186339E+00
        -11   -1    0    0    0    0  0.00000000000E+00  0.00000000000E+00  0.45593999997E+02  0.45594000000E+02  0.51100000000E-03 0.  1.
         11   -1    0    0    0    0 -0.00000000000E+00 -0.00000000000E+00 -0.45593999997E+02  0.45594000000E+02  0.51100000000E-03 0. -1.
    9900012    2    1    2    0    0  0.16279402722E+00 -0.82955946023E-02  0.11689415311E+01  0.90007747902E+02  0.90000009374E+02 0.  0.
         12    1    1    2    0    0 -0.16279402722E+00  0.82955946023E-02 -0.11689415311E+01  0.11802520982E+01  0.00000000000E+00 0. -1.
         11    1    3    3    0    0 -0.28707485897E+02 -0.43142183721E+01 -0.25699774603E+02  0.38771260511E+02  0.51100000000E-03 0. -1.
        -11    1    3    3    0    0  0.52762516875E+01  0.79210935640E+01 -0.55200445076E+01  0.11002429129E+02  0.51100000000E-03 0.  1.
        -12    1    3    3    0    0  0.23594028237E+02 -0.36151707865E+01  0.32388760642E+02  0.40234058261E+02  0.00000000000E+00 0.  1.
</event>
<event>
 7    1  0.2090370E-015  0.9000778E+02  0.7816164E-02  0.1186339E+00
        -11   -1    0    0    0    0  0.00000000000E+00  0.00000000000E+00  0.45593999997E+02  0.45594000000E+02  0.51100000000E-03 0.  1.
         11   -1    0    0    0    0 -0.00000000000E+00 -0.00000000000E+00 -0.45593999997E+02  0.45594000000E+02  0.51100000000E-03 0. -1.
    9900012    2    1    2    0    0 -0.10700932502E+01  0.29056733857E+00  0.40422376987E+00  0.90007777225E+02  0.90000039084E+02 0.  0.
         12    1    1    2    0    0  0.10700932502E+01 -0.29056733857E+00 -0.40422376987E+00  0.11802227749E+01  0.00000000000E+00 0. -1.
         11    1    3    3    0    0 -0.39255693733E+02 -0.18419163721E+01 -0.52644287544E+01  0.39649922532E+02  0.51100000000E-03 0. -1.
        -11    1    3    3    0    0 -0.10188526927E+01 -0.43226664908E+01 -0.73152761172E+01  0.85578485223E+01  0.51100000000E-03 0.  1.
        -12    1    3    3    0    0  0.39204453176E+02  0.64551502015E+01  0.12983928641E+02  0.41800006171E+02  0.00000000000E+00 0.  1.
</event>
<event>
 7    1  0.2090370E-015  0.9000784E+02  0.7816164E-02  0.1186339E+00
        -11   -1    0    0    0    0  0.00000000000E+00  0.00000000000E+00  0.45593999997E+02  0.45594000000E+02  0.51100000000E-03 0. -1.
         11   -1    0    0    0    0 -0.00000000000E+00 -0.00000000000E+00 -0.45593999997E+02  0.45594000000E+02  0.51100000000E-03 0.  1.
    9900012    2    1    2    0    0  0.19156450901E+00  0.81317960500E+00 -0.83356450720E+00  0.90007835681E+02  0.90000098312E+02 0.  0.
         12    1    1    2    0    0 -0.19156450901E+00 -0.81317960500E+00  0.83356450720E+00  0.11801643185E+01  0.00000000000E+00 0. -1.
         11    1    3    3    0    0 -0.27371672635E+02 -0.10694602988E+02  0.24079183064E+02  0.37991973536E+02  0.51100000000E-03 0. -1.
        -11    1    3    3    0    0  0.60642150070E+01  0.45711184453E+01  0.86804422992E+01  0.11533425608E+02  0.51100000000E-03 0.  1.
        -12    1    3    3    0    0  0.21499022137E+02  0.69366641481E+01 -0.33593189870E+02  0.40482436537E+02  0.00000000000E+00 0.  1.
</event>
<event>
 7    1  0.2090370E-015  0.9000769E+02  0.7816164E-02  0.1186339E+00
        -11   -1    0    0    0    0  0.00000000000E+00  0.00000000000E+00  0.45593999997E+02  0.45594000000E+02  0.51100000000E-03 0.  1.
         11   -1    0    0    0    0 -0.00000000000E+00 -0.00000000000E+00 -0.45593999997E+02  0.45594000000E+02  0.51100000000E-03 0. -1.
    9900012    2    1    2    0    0  0.81594691181E-01  0.11693143882E+01 -0.13851298044E+00  0.90007686619E+02  0.89999947282E+02 0.  0.
         12    1    1    2    0    0 -0.81594691181E-01 -0.11693143882E+01  0.13851298044E+00  0.11803133812E+01  0.00000000000E+00 0. -1.
         11    1    3    3    0    0  0.37741970838E+02 -0.11244838105E+02 -0.18879249202E+01  0.39426729607E+02  0.51100000000E-03 0. -1.
        -11    1    3    3    0    0 -0.24877382685E+01 -0.80932324074E+01  0.48341909681E+01  0.97498028221E+01  0.51100000000E-03 0.  1.
        -12    1    3    3    0    0 -0.35172637878E+02  0.20507384901E+02 -0.30847790284E+01  0.40831154189E+02  0.00000000000E+00 0.  1.
</event>
<event>
 7    1  0.2090370E-015  0.9000765E+02  0.7816164E-02  0.1186339E+00
        -11   -1    0    0    0    0  0.00000000000E+00  0.00000000000E+00  0.45593999997E+02  0.45594000000E+02  0.51100000000E-03 0. -1.
         11   -1    0    0    0    0 -0.00000000000E+00 -0.00000000000E+00 -0.45593999997E+02  0.45594000000E+02  0.51100000000E-03 0.  1.
    9900012    2    1    2    0    0 -0.10865203572E+01 -0.43921120151E+00 -0.14065845581E+00  0.90007653539E+02  0.89999913766E+02 0.  0.
         12    1    1    2    0    0  0.10865203572E+01  0.43921120151E+00  0.14065845581E+00  0.11803464607E+01  0.00000000000E+00 0. -1.
         11    1    3    3    0    0  0.11205005023E+01 -0.33376248128E+02 -0.11608355572E+02  0.35355104014E+02  0.51100000000E-03 0. -1.
        -11    1    3    3    0    0  0.24763305336E+01 -0.99421347746E+01  0.31926241972E+01  0.10731780202E+02  0.51100000000E-03 0.  1.
        -12    1    3    3    0    0 -0.46833513932E+01  0.42879171702E+02  0.82750729190E+01  0.43920769323E+02  0.00000000000E+00 0.  1.
</event>
<event>
 7    1  0.2090370E-015  0.9000770E+02  0.7816164E-02  0.1186339E+00
        -11   -1    0    0    0    0  0.00000000000E+00  0.00000000000E+00  0.45593999997E+02  0.45594000000E+02  0.51100000000E-03 0.  1.
         11   -1    0    0    0    0 -0.00000000000E+00 -0.00000000000E+00 -0.45593999997E+02  0.45594000000E+02  0.51100000000E-03 0. -1.
    9900012    2    1    2    0    0  0.10994801423E+01 -0.42509057735E+00 -0.59548411988E-01  0.90007701480E+02  0.89999962340E+02 0.  0.
         12    1    1    2    0    0 -0.10994801423E+01  0.42509057735E+00  0.59548411988E-01  0.11802985197E+01  0.00000000000E+00 0. -1.
         11    1    3    3    0    0  0.10232555419E+02 -0.54286774568E+01 -0.37358910697E+02  0.39113475147E+02  0.51100000000E-03 0. -1.
        -11    1    3    3    0    0  0.93858689022E+01 -0.14388717491E+01  0.88523091114E+00  0.95366933990E+01  0.51100000000E-03 0.  1.
        -12    1    3    3    0    0 -0.18518944179E+02  0.64424586286E+01  0.36414131374E+02  0.41357532934E+02  0.00000000000E+00 0.  1.
</event>
<event>
 7    1  0.2090370E-015  0.9000776E+02  0.7816164E-02  0.1186339E+00
        -11   -1    0    0    0    0  0.00000000000E+00  0.00000000000E+00  0.45593999997E+02  0.45594000000E+02  0.51100000000E-03 0.  1.
         11   -1    0    0    0    0 -0.00000000000E+00 -0.00000000000E+00 -0.45593999997E+02  0.45594000000E+02  0.51100000000E-03 0. -1.
    9900012    2    1    2    0    0 -0.59288734806E+00  0.64823163035E+00  0.78819645175E+00  0.90007757101E+02  0.90000018695E+02 0.  0.
         12    1    1    2    0    0  0.59288734806E+00 -0.64823163035E+00 -0.78819645175E+00  0.11802428990E+01  0.00000000000E+00 0. -1.
         11    1    3    3    0    0  0.18030575314E+01  0.81936666174E+01  0.62563743137E+01  0.10465629886E+02  0.51100000000E-03 0. -1.
        -11    1    3    3    0    0 -0.23191871645E+01  0.33073194962E+02 -0.17081274325E+02  0.37295908448E+02  0.51100000000E-03 0.  1.
         12    1    3    3    0    0 -0.76757714958E-01 -0.40618629949E+02  0.11613096463E+02  0.42246218767E+02  0.00000000000E+00 0. -1.
</event>
<event>
 7    1  0.2830994E-015  0.9000762E+02  0.7816164E-02  0.1186339E+00
        -11   -1    0    0    0    0  0.00000000000E+00  0.00000000000E+00  0.45593999997E+02  0.45594000000E+02  0.51100000000E-03 0. -1.
         11   -1    0    0    0    0 -0.00000000000E+00 -0.00000000000E+00 -0.45593999997E+02  0.45594000000E+02  0.51100000000E-03 0.  1.
    9900012    2    1    2    0    0  0.59903630887E+00 -0.67069007328E-01 -0.10148618913E+01  0.90007624039E+02  0.89999883876E+02 0.  0.
         12    1    1    2    0    0 -0.59903630887E+00  0.67069007328E-01  0.10148618913E+01  0.11803759611E+01  0.00000000000E+00 0. -1.
         11    1    3    3    0    0  0.29355252264E+02 -0.15673950311E+02  0.20595889626E+02  0.39135587686E+02  0.51100000000E-03 0. -1.
        -11    1    3    3    0    0  0.34004346499E+01  0.77006714695E+01  0.36971358650E+01  0.91941345843E+01  0.51100000000E-03 0.  1.
        -12    1    3    3    0    0 -0.32156650605E+02  0.79062098338E+01 -0.25307887382E+02  0.41677901768E+02  0.00000000000E+00 0.  1.
</event>
<event>
 7    1  0.2090370E-015  0.9000779E+02  0.7816164E-02  0.1186339E+00
        -11   -1    0    0    0    0  0.00000000000E+00  0.00000000000E+00  0.45593999997E+02  0.45594000000E+02  0.51100000000E-03 0.  1.
         11   -1    0    0    0    0 -0.00000000000E+00 -0.00000000000E+00 -0.45593999997E+02  0.45594000000E+02  0.51100000000E-03 0. -1.
    9900012    2    1    2    0    0 -0.88971482451E+00  0.40044897026E+00  0.66403469129E+00  0.90007790731E+02  0.90000052769E+02 0.  0.
         12    1    1    2    0    0  0.88971482451E+00 -0.40044897026E+00 -0.66403469129E+00  0.11802092687E+01  0.00000000000E+00 0. -1.
         11    1    3    3    0    0 -0.30906999474E+02 -0.13689817198E+02  0.59246397687E+01  0.34318436270E+02  0.51100000000E-03 0. -1.
        -11    1    3    3    0    0 -0.19026952951E+01 -0.13061197968E+02  0.13404221123E+01  0.13266946652E+02  0.51100000000E-03 0.  1.
        -12    1    3    3    0    0  0.31919979944E+02  0.27151464136E+02 -0.66010271897E+01  0.42422407810E+02  0.00000000000E+00 0.  1.
</event>
<event>
 7    1  0.2090370E-015  0.9000764E+02  0.7816164E-02  0.1186339E+00
        -11   -1    0    0    0    0  0.00000000000E+00  0.00000000000E+00  0.45593999997E+02  0.45594000000E+02  0.51100000000E-03 0. -1.
         11   -1    0    0    0    0 -0.00000000000E+00 -0.00000000000E+00 -0.45593999997E+02  0.45594000000E+02  0.51100000000E-03 0.  1.
    9900012    2    1    2    0    0  0.23078122434E+00 -0.95903911439E+00  0.64824719532E+00  0.90007643942E+02  0.89999904042E+02 0.  0.
         12    1    1    2    0    0 -0.23078122434E+00  0.95903911439E+00 -0.64824719532E+00  0.11803560576E+01  0.00000000000E+00 0. -1.
         11    1    3    3    0    0 -0.38851896961E+02 -0.15978507932E+02 -0.79271578529E-01  0.42009390587E+02  0.51100000000E-03 0. -1.
        -11    1    3    3    0    0  0.54912576279E+01 -0.27824506183E+00  0.86474014011E+01  0.10247384149E+02  0.51100000000E-03 0.  1.
        -12    1    3    3    0    0  0.33591420558E+02  0.15297713879E+02 -0.79198826272E+01  0.37750869206E+02  0.00000000000E+00 0.  1.
</event>
<event>
 7    1  0.2145813E-015  0.9000772E+02  0.7816164E-02  0.1186339E+00
        -11   -1    0    0    0    0  0.00000000000E+00  0.00000000000E+00  0.45593999997E+02  0.45594000000E+02  0.51100000000E-03 0.  1.
         11   -1    0    0    0    0 -0.00000000000E+00 -0.00000000000E+00 -0.45593999997E+02  0.45594000000E+02  0.51100000000E-03 0. -1.
    9900012    2    1    2    0    0 -0.48642437055E+00 -0.68987454376E+00  0.82494607510E+00  0.90007715466E+02  0.89999976510E+02 0.  0.
         12    1    1    2    0    0  0.48642437055E+00  0.68987454376E+00 -0.82494607510E+00  0.11802845340E+01  0.00000000000E+00 0. -1.
         11    1    3    3    0    0 -0.13927432442E+01  0.21857368480E+02 -0.35232691177E+02  0.41485260255E+02  0.51100000000E-03 0. -1.
        -11    1    3    3    0    0  0.31967997415E+01  0.43299068809E+01  0.75908103681E+01  0.93052686415E+01  0.51100000000E-03 0.  1.
        -12    1    3    3    0    0 -0.22904808678E+01 -0.26877149904E+02  0.28466826884E+02  0.39217186569E+02  0.00000000000E+00 0.  1.
</event>
<event>
 7    1  0.2090370E-015  0.9000770E+02  0.7816164E-02  0.1186339E+00
        -11   -1    0    0    0    0  0.00000000000E+00  0.00000000000E+00  0.45593999997E+02  0.45594000000E+02  0.51100000000E-03 0. -1.
         11   -1    0    0    0    0 -0.00000000000E+00 -0.00000000000E+00 -0.45593999997E+02  0.45594000000E+02  0.51100000000E-03 0.  1.
    9900012    2    1    2    0    0  0.44457446343E+00 -0.13717655320E-01 -0.10932883717E+01  0.90007697458E+02  0.89999958264E+02 0.  0.
         12    1    1    2    0    0 -0.44457446343E+00  0.13717655320E-01  0.10932883717E+01  0.11803025422E+01  0.00000000000E+00 0. -1.
         11    1    3    3    0    0 -0.28996250691E+02  0.24031746949E+02 -0.65422535724E+01  0.38224448951E+02  0.51100000000E-03 0. -1.
        -11    1    3    3    0    0 -0.65504422308E+01 -0.56294303055E+01 -0.50605499027E+01  0.10010391829E+02  0.51100000000E-03 0.  1.
        -12    1    3    3    0    0  0.35991267386E+02 -0.18416034298E+02  0.10509515103E+02  0.41772856678E+02  0.00000000000E+00 0.  1.
</event>
<event>
 7    1  0.2090370E-015  0.9000780E+02  0.7816164E-02  0.1186339E+00
        -11   -1    0    0    0    0  0.00000000000E+00  0.00000000000E+00  0.45593999997E+02  0.45594000000E+02  0.51100000000E-03 0.  1.
         11   -1    0    0    0    0 -0.00000000000E+00 -0.00000000000E+00 -0.45593999997E+02  0.45594000000E+02  0.51100000000E-03 0. -1.
    9900012    2    1    2    0    0 -0.76297879263E-01  0.42739111916E+00 -0.10974478684E+01  0.90007798170E+02  0.90000060306E+02 0.  0.
         12    1    1    2    0    0  0.76297879263E-01 -0.42739111916E+00  0.10974478684E+01  0.11802018297E+01  0.00000000000E+00 0. -1.
         11    1    3    3    0    0  0.54195238131E+01  0.40579060803E+01  0.80614656864E+01  0.10527348640E+02  0.51100000000E-03 0. -1.
        -11    1    3    3    0    0  0.15411393554E+02 -0.17247563308E+02  0.26997487379E+02  0.35550721742E+02  0.51100000000E-03 0.  1.
         12    1    3    3    0    0 -0.20907215247E+02  0.13617048347E+02 -0.36156400934E+02  0.43929727788E+02  0.00000000000E+00 0. -1.
</event>
<event>
 7    1  0.2090370E-015  0.9000795E+02  0.7816164E-02  0.1186339E+00
        -11   -1    0    0    0    0  0.00000000000E+00  0.00000000000E+00  0.45593999997E+02  0.45594000000E+02  0.51100000000E-03 0.  1.
         11   -1    0    0    0    0 -0.00000000000E+00 -0.00000000000E+00 -0.45593999997E+02  0.45594000000E+02  0.51100000000E-03 0. -1.
    9900012    2    1    2    0    0  0.22961521900E+00 -0.90139621032E+00  0.72614103539E+00  0.90007949543E+02  0.90000213677E+02 0.  0.
         12    1    1    2    0    0 -0.22961521900E+00  0.90139621032E+00 -0.72614103539E+00  0.11800504566E+01  0.00000000000E+00 0. -1.
         11    1    3    3    0    0 -0.12733236789E+02  0.12503738389E+02  0.31250318034E+02  0.35986958336E+02  0.51100000000E-03 0. -1.
        -11    1    3    3    0    0 -0.39534309450E+01 -0.43897202294E+01  0.86114856229E+01  0.10443033315E+02  0.51100000000E-03 0.  1.
        -12    1    3    3    0    0  0.16916282953E+02 -0.90154143703E+01 -0.39135662621E+02  0.43577957892E+02  0.00000000000E+00 0.  1.
</event>
<event>
 7    1  0.2090370E-015  0.9000769E+02  0.7816164E-02  0.1186339E+00
        -11   -1    0    0    0    0  0.00000000000E+00  0.00000000000E+00  0.45593999997E+02  0.45594000000E+02  0.51100000000E-03 0. -1.
         11   -1    0    0    0    0 -0.00000000000E+00 -0.00000000000E+00 -0.45593999997E+02  0.45594000000E+02  0.51100000000E-03 0.  1.
    9900012    2    1    2    0    0  0.61789416861E+00 -0.21095180346E+00 -0.98328179650E+00  0.90007687771E+02  0.89999948449E+02 0.  0.
         12    1    1    2    0    0 -0.61789416861E+00  0.21095180346E+00  0.98328179650E+00  0.11803122292E+01  0.00000000000E+00 0. -1.
         11    1    3    3    0    0  0.14485146474E+01 -0.30256358025E+01  0.14190529410E+02  0.14581625145E+02  0.51100000000E-03 0. -1.
        -11    1    3    3    0    0 -0.23634679978E+02 -0.16157782187E+02  0.15665346407E+02  0.32635488370E+02  0.51100000000E-03 0.  1.
         12    1    3    3    0    0  0.22804059499E+02  0.18972466186E+02 -0.30839157614E+02  0.42790574255E+02  0.00000000000E+00 0. -1.
</event>
<event>
 7    1  0.2090370E-015  0.9000772E+02  0.7816164E-02  0.1186339E+00
        -11   -1    0    0    0    0  0.00000000000E+00  0.00000000000E+00  0.45593999997E+02  0.45594000000E+02  0.51100000000E-03 0. -1.
         11   -1    0    0    0    0 -0.00000000000E+00 -0.00000000000E+00 -0.45593999997E+02  0.45594000000E+02  0.51100000000E-03 0.  1.
    9900012    2    1    2    0    0  0.11354589299E+01 -0.73454037567E-01 -0.31369222628E+00  0.90007718131E+02  0.89999979210E+02 0.  0.
         12    1    1    2    0    0 -0.11354589299E+01  0.73454037567E-01  0.31369222628E+00  0.11802818688E+01  0.00000000000E+00 0. -1.
         11    1    3    3    0    0 -0.33171289599E+01  0.84069882668E+01 -0.43629192629E+01  0.10035729222E+02  0.51100000000E-03 0. -1.
        -11    1    3    3    0    0  0.14755563034E+02 -0.32441683821E+02 -0.22983493270E+02  0.42407905545E+02  0.51100000000E-03 0.  1.
         12    1    3    3    0    0 -0.10302975145E+02  0.23961241516E+02  0.27032720306E+02  0.37564083364E+02  0.00000000000E+00 0. -1.
</event>
<event>
 7    1  0.2090370E-015  0.9000764E+02  0.7816164E-02  0.1186339E+00
        -11   -1    0    0    0    0  0.00000000000E+00  0.00000000000E+00  0.45593999997E+02  0.45594000000E+02  0.51100000000E-03 0. -1.
         11   -1    0    0    0    0 -0.00000000000E+00 -0.00000000000E+00 -0.45593999997E+02  0.45594000000E+02  0.51100000000E-03 0.  1.
    9900012    2    1    2    0    0  0.40769218462E+00  0.90941453675E+00 -0.63245440031E+00  0.90007641459E+02  0.89999901526E+02 0.  0.
         12    1    1    2    0    0 -0.40769218462E+00 -0.90941453675E+00  0.63245440031E+00  0.11803585411E+01  0.00000000000E+00 0. -1.
         11    1    3    3    0    0 -0.16136903438E+02  0.22608078700E+02 -0.14145422646E+02  0.31170785315E+02  0.51100000000E-03 0. -1.
        -11    1    3    3    0    0 -0.97909959460E+01 -0.19080645087E+02 -0.97894151315E+01  0.23574716698E+02  0.51100000000E-03 0.  1.
         12    1    3    3    0    0  0.26335591569E+02 -0.26180190766E+01  0.23302383378E+02  0.35262139445E+02  0.00000000000E+00 0. -1.
</event>
<event>
 7    1  0.2090370E-015  0.9000773E+02  0.7816164E-02  0.1186339E+00
        -11   -1    0    0    0    0  0.00000000000E+00  0.00000000000E+00  0.45593999997E+02  0.45594000000E+02  0.51100000000E-03 0.  1.
         11   -1    0    0    0    0 -0.00000000000E+00 -0.00000000000E+00 -0.45593999997E+02  0.45594000000E+02  0.51100000000E-03 0. -1.
    9900012    2    1    2    0    0 -0.86490118109E+00  0.79961773854E+00  0.74728485405E-01  0.90007734383E+02  0.89999995677E+02 0.  0.
         12    1    1    2    0    0  0.86490118109E+00 -0.79961773854E+00 -0.74728485405E-01  0.11802656173E+01  0.00000000000E+00 0. -1.
         11    1    3    3    0    0  0.10655345463E+02  0.63183602525E+01 -0.36256411719E+02  0.38314298300E+02  0.51100000000E-03 0. -1.
        -11    1    3    3    0    0  0.37100845115E+01 -0.10185775541E+02 -0.12146509783E+01  0.10908259610E+02  0.51100000000E-03 0.  1.
        -12    1    3    3    0    0 -0.15230331156E+02  0.46670330271E+01  0.37545791183E+02  0.40785176473E+02  0.00000000000E+00 0.  1.
</event>
<event>
 7    1  0.2090370E-015  0.9000781E+02  0.7816164E-02  0.1186339E+00
        -11   -1    0    0    0    0  0.00000000000E+00  0.00000000000E+00  0.45593999997E+02  0.45594000000E+02  0.51100000000E-03 0.  1.
         11   -1    0    0    0    0 -0.00000000000E+00 -0.00000000000E+00 -0.45593999997E+02  0.45594000000E+02  0.51100000000E-03 0. -1.
    9900012    2    1    2    0    0 -0.11614043377E+01  0.20813934091E+00 -0.25784459851E-01  0.90007810668E+02  0.90000072969E+02 0.  0.
         12    1    1    2    0    0  0.11614043377E+01 -0.20813934091E+00  0.25784459851E-01  0.11801893319E+01  0.00000000000E+00 0. -1.
         11    1    3    3    0    0 -0.21349603687E+01  0.63708023166E+01 -0.93048867682E+01  0.11477198960E+02  0.51100000000E-03 0. -1.
        -11    1    3    3    0    0 -0.33248131503E+02  0.63823905048E+01 -0.12478747808E+02  0.36081744749E+02  0.51100000000E-03 0.  1.
         12    1    3    3    0    0  0.34221687534E+02 -0.12545053481E+02  0.21757850116E+02  0.42448866960E+02  0.00000000000E+00 0. -1.
</event>
<event>
 7    1  0.2090370E-015  0.9000775E+02  0.7816164E-02  0.1186339E+00
        -11   -1    0    0    0    0  0.00000000000E+00  0.00000000000E+00  0.45593999997E+02  0.45594000000E+02  0.51100000000E-03 0. -1.
         11   -1    0    0    0    0 -0.00000000000E+00 -0.00000000000E+00 -0.45593999997E+02  0.45594000000E+02  0.51100000000E-03 0.  1.
    9900012    2    1    2    0    0 -0.84499120140E-01  0.11645129398E+01 -0.17249681766E+00  0.90007751873E+02  0.90000013398E+02 0.  0.
         12    1    1    2    0    0  0.84499120140E-01 -0.11645129398E+01  0.17249681766E+00  0.11802481266E+01  0.00000000000E+00 0. -1.
         11    1    3    3    0    0  0.35835365668E+01  0.14904974315E+02  0.33082078134E+02  0.36461265578E+02  0.51100000000E-03 0. -1.
        -11    1    3    3    0    0  0.26522710761E+01  0.79841119767E+01  0.44929220991E+01  0.95376587886E+01  0.51100000000E-03 0.  1.
        -12    1    3    3    0    0 -0.63203067631E+01 -0.21724573352E+02 -0.37747497051E+02  0.44008827506E+02  0.00000000000E+00 0.  1.
</event>
<event>
 7    1  0.2090370E-015  0.9000767E+02  0.7816164E-02  0.1186339E+00
        -11   -1    0    0    0    0  0.00000000000E+00  0.00000000000E+00  0.45593999997E+02  0.45594000000E+02  0.51100000000E-03 0.  1.
         11   -1    0    0    0    0 -0.00000000000E+00 -0.00000000000E+00 -0.45593999997E+02  0.45594000000E+02  0.51100000000E-03 0. -1.
    9900012    2    1    2    0    0 -0.92101438908E+00 -0.71732648007E+00  0.17421727356E+00  0.90007671045E+02  0.89999931503E+02 0.  0.
         12    1    1    2    0    0  0.92101438908E+00  0.71732648007E+00 -0.17421727356E+00  0.11803289551E+01  0.00000000000E+00 0. -1.
         11    1    3    3    0    0  0.11544520984E+02 -0.12850407780E+02 -0.32361230042E+02  0.36683213531E+02  0.51100000000E-03 0. -1.
        -11    1    3    3    0    0 -0.74572436260E+01 -0.55020111737E+01 -0.57289973635E+01  0.10895137471E+02  0.51100000000E-03 0.  1.
        -12    1    3    3    0    0 -0.50082917472E+01  0.17635092473E+02  0.38264444679E+02  0.42429320043E+02  0.00000000000E+00 0.  1.
</event>
<event>
 7    1  0.2090370E-015  0.9000772E+02  0.7816164E-02  0.1186339E+00
        -11   -1    0    0    0    0  0.00000000000E+00  0.00000000000E+00  0.45593999997E+02  0.45594000000E+02  0.51100000000E-03 0. -1.
         11   -1    0    0    0    0 -0.00000000000E+00 -0.00000000000E+00 -0.45593999997E+02  0.45594000000E+02  0.51100000000E-03 0.  1.
    9900012    2    1    2    0    0  0.11735809131E+01 -0.47749087312E-01  0.11617623240E+00  0.90007716538E+02  0.89999977596E+02 0.  0.
         12    1    1    2    0    0 -0.11735809131E+01  0.47749087312E-01 -0.11617623240E+00  0.11802834625E+01  0.00000000000E+00 0. -1.
         11    1    3    3    0    0 -0.27267012233E+01 -0.55419420175E+01 -0.13051304358E+02  0.14438994653E+02  0.51100000000E-03 0. -1.
        -11    1    3    3    0    0  0.80938241759E+01 -0.34958111188E+01 -0.30003827959E+02  0.31272358044E+02  0.51100000000E-03 0.  1.
         12    1    3    3    0    0 -0.41935420395E+01  0.89900040489E+01  0.43171308549E+02  0.44296363841E+02  0.00000000000E+00 0. -1.
</event>
<event>
 7    1  0.2090370E-015  0.9000774E+02  0.7816164E-02  0.1186339E+00
        -11   -1    0    0    0    0  0.00000000000E+00  0.00000000000E+00  0.45593999997E+02  0.45594000000E+02  0.51100000000E-03 0.  1.
         11   -1    0    0    0    0 -0.00000000000E+00 -0.00000000000E+00 -0.45593999997E+02  0.45594000000E+02  0.51100000000E-03 0. -1.
    9900012    2    1    2    0    0  0.25919332674E+00 -0.82542949724E+00  0.80280414476E+00  0.90007741753E+02  0.90000003144E+02 0.  0.
         12    1    1    2    0    0 -0.25919332674E+00  0.82542949724E+00 -0.80280414476E+00  0.11802582473E+01  0.00000000000E+00 0. -1.
         11    1    3    3    0    0  0.66497756052E+01  0.96036184115E+01 -0.45290877913E+01  0.12528433209E+02  0.51100000000E-03 0. -1.
        -11    1    3    3    0    0  0.69309729089E-01  0.31815218577E+02 -0.78270150374E+01  0.32763929887E+02  0.51100000000E-03 0.  1.
         12    1    3    3    0    0 -0.64598920075E+01 -0.42244266486E+02  0.13158906973E+02  0.44715378657E+02  0.00000000000E+00 0. -1.
</event>
<event>
 7    1  0.2090370E-015  0.9000770E+02  0.7816164E-02  0.1186339E+00
        -11   -1    0    0    0    0  0.00000000000E+00  0.00000000000E+00  0.45593999997E+02  0.45594000000E+02  0.51100000000E-03 0. -1.
         11   -1    0    0    0    0 -0.00000000000E+00 -0.00000000000E+00 -0.45593999997E+02  0.45594000000E+02  0.51100000000E-03 0.  1.
    9900012    2    1    2    0    0 -0.49897562680E+00  0.26389432405E+00 -0.10365710334E+01  0.90007704953E+02  0.89999965859E+02 0.  0.
         12    1    1    2    0    0  0.49897562680E+00 -0.26389432405E+00  0.10365710334E+01  0.11802950468E+01  0.00000000000E+00 0. -1.
         11    1    3    3    0    0 -0.32091192682E+01 -0.32779780220E-01 -0.82092034253E+01  0.88142238530E+01  0.51100000000E-03 0. -1.
        -11    1    3    3    0    0 -0.34636574683E+02 -0.29327715079E+01 -0.14757901456E+02  0.37763595037E+02  0.51100000000E-03 0.  1.
         12    1    3    3    0    0  0.37346718325E+02  0.32294456122E+01  0.21930533848E+02  0.43429886063E+02  0.00000000000E+00 0. -1.
</event>
<event>
 7    1  0.2090370E-015  0.9000779E+02  0.7816164E-02  0.1186339E+00
        -11   -1    0    0    0    0  0.00000000000E+00  0.00000000000E+00  0.45593999997E+02  0.45594000000E+02  0.51100000000E-03 0. -1.
         11   -1    0    0    0    0 -0.00000000000E+00 -0.00000000000E+00 -0.45593999997E+02  0.45594000000E+02  0.51100000000E-03 0.  1.
    9900012    2    1    2    0    0  0.30217701172E+00  0.98707310114E+00 -0.57207155163E+00  0.90007792343E+02  0.90000054402E+02 0.  0.
         12    1    1    2    0    0 -0.30217701172E+00 -0.98707310114E+00  0.57207155163E+00  0.11802076570E+01  0.00000000000E+00 0. -1.
         11    1    3    3    0    0 -0.22607040580E+02  0.13072561252E+02  0.25114412253E+02  0.36231255079E+02  0.51100000000E-03 0. -1.
        -11    1    3    3    0    0 -0.96628082344E+01  0.36102023370E+01 -0.18766911754E+01  0.10484531173E+02  0.51100000000E-03 0.  1.
        -12    1    3    3    0    0  0.32572025827E+02 -0.15695690488E+02 -0.23809792630E+02  0.43292006091E+02  0.00000000000E+00 0.  1.
</event>
<event>
 7    1  0.2090370E-015  0.9000775E+02  0.7816164E-02  0.1186339E+00
        -11   -1    0    0    0    0  0.00000000000E+00  0.00000000000E+00  0.45593999997E+02  0.45594000000E+02  0.51100000000E-03 0. -1.
         11   -1    0    0    0    0 -0.00000000000E+00 -0.00000000000E+00 -0.45593999997E+02  0.45594000000E+02  0.51100000000E-03 0.  1.
    9900012    2    1    2    0    0  0.68518015494E+00  0.95896296396E+00  0.62548398241E-01  0.90007748284E+02  0.90000009761E+02 0.  0.
         12    1    1    2    0    0 -0.68518015494E+00 -0.95896296396E+00 -0.62548398241E-01  0.11802517160E+01  0.00000000000E+00 0. -1.
         11    1    3    3    0    0  0.10080202345E+02  0.47498869286E+01  0.27171300808E+01  0.11469729783E+02  0.51100000000E-03 0. -1.
        -11    1    3    3    0    0  0.16307552055E+02 -0.14135290196E+02 -0.31731363127E+02  0.38374758489E+02  0.51100000000E-03 0.  1.
         12    1    3    3    0    0 -0.25702574245E+02  0.10344366231E+02  0.29076781445E+02  0.40163260011E+02  0.00000000000E+00 0. -1.
</event>
<event>
 7    1  0.2090370E-015  0.9000781E+02  0.7816164E-02  0.1186339E+00
        -11   -1    0    0    0    0  0.00000000000E+00  0.00000000000E+00  0.45593999997E+02  0.45594000000E+02  0.51100000000E-03 0. -1.
         11   -1    0    0    0    0 -0.00000000000E+00 -0.00000000000E+00 -0.45593999997E+02  0.45594000000E+02  0.51100000000E-03 0.  1.
    9900012    2    1    2    0    0  0.99015258066E+00  0.40795490081E+00 -0.49601105499E+00  0.90007806668E+02  0.90000068916E+02 0.  0.
         12    1    1    2    0    0 -0.99015258066E+00 -0.40795490081E+00  0.49601105499E+00  0.11801933319E+01  0.00000000000E+00 0. -1.
         11    1    3    3    0    0  0.89037724549E+01 -0.53896968702E+00 -0.29674000489E+01  0.94006976104E+01  0.51100000000E-03 0. -1.
        -11    1    3    3    0    0 -0.21895775952E+02 -0.35069410617E+02 -0.35909295193E+01  0.41499196867E+02  0.51100000000E-03 0.  1.
         12    1    3    3    0    0  0.13982156078E+02  0.36016335204E+02  0.60623185132E+01  0.39107912191E+02  0.00000000000E+00 0. -1.
</event>
<event>
 7    1  0.2090370E-015  0.9000776E+02  0.7816164E-02  0.1186339E+00
        -11   -1    0    0    0    0  0.00000000000E+00  0.00000000000E+00  0.45593999997E+02  0.45594000000E+02  0.51100000000E-03 0.  1.
         11   -1    0    0    0    0 -0.00000000000E+00 -0.00000000000E+00 -0.45593999997E+02  0.45594000000E+02  0.51100000000E-03 0. -1.
    9900012    2    1    2    0    0  0.10149434587E+01 -0.20530762874E+00  0.56631248299E+00  0.90007757959E+02  0.90000019564E+02 0.  0.
         12    1    1    2    0    0 -0.10149434587E+01  0.20530762874E+00 -0.56631248299E+00  0.11802420409E+01  0.00000000000E+00 0. -1.
         11    1    3    3    0    0  0.34415445801E+02  0.18786587460E+01  0.35407911626E+01  0.34648080331E+02  0.51100000000E-03 0. -1.
        -11    1    3    3    0    0  0.18342407518E+01  0.12685705518E+02  0.86051601130E+01  0.15438275307E+02  0.51100000000E-03 0.  1.
        -12    1    3    3    0    0 -0.35234743094E+02 -0.14769671892E+02 -0.11579638793E+02  0.39921402321E+02  0.00000000000E+00 0.  1.
</event>
<event>
 7    1  0.2090370E-015  0.9000755E+02  0.7816164E-02  0.1186339E+00
        -11   -1    0    0    0    0  0.00000000000E+00  0.00000000000E+00  0.45593999997E+02  0.45594000000E+02  0.51100000000E-03 0. -1.
         11   -1    0    0    0    0 -0.00000000000E+00 -0.00000000000E+00 -0.45593999997E+02  0.45594000000E+02  0.51100000000E-03 0.  1.
    9900012    2    1    2    0    0 -0.42855741584E+00 -0.10835611664E+01  0.18894303209E+00  0.90007548506E+02  0.89999807346E+02 0.  0.
         12    1    1    2    0    0  0.42855741584E+00  0.10835611664E+01 -0.18894303209E+00  0.11804514938E+01  0.00000000000E+00 0. -1.
         11    1    3    3    0    0 -0.74233535812E+01 -0.67477484324E+01 -0.48583732903E+01  0.11146393075E+02  0.51100000000E-03 0. -1.
        -11    1    3    3    0    0 -0.26115812726E+02  0.69255459669E+01 -0.22974739626E+02  0.35466005166E+02  0.51100000000E-03 0.  1.
         12    1    3    3    0    0  0.33110608892E+02 -0.12613587008E+01  0.28022055948E+02  0.43395150265E+02  0.00000000000E+00 0. -1.
</event>
<event>
 7    1  0.2090370E-015  0.9000778E+02  0.7816164E-02  0.1186339E+00
        -11   -1    0    0    0    0  0.00000000000E+00  0.00000000000E+00  0.45593999997E+02  0.45594000000E+02  0.51100000000E-03 0. -1.
         11   -1    0    0    0    0 -0.00000000000E+00 -0.00000000000E+00 -0.45593999997E+02  0.45594000000E+02  0.51100000000E-03 0.  1.
    9900012    2    1    2    0    0 -0.29412256703E+00  0.11429242651E+01 -0.11657799387E-01  0.90007779739E+02  0.90000041632E+02 0.  0.
         12    1    1    2    0    0  0.29412256703E+00 -0.11429242651E+01  0.11657799387E-01  0.11802202610E+01  0.00000000000E+00 0. -1.
         11    1    3    3    0    0  0.62584656427E+01  0.54783763671E+01 -0.71100435386E+01  0.10942290400E+02  0.51100000000E-03 0. -1.
        -11    1    3    3    0    0  0.21607378174E+02 -0.90292668460E+01 -0.26242508020E+02  0.35172086643E+02  0.51100000000E-03 0.  1.
         12    1    3    3    0    0 -0.28159966384E+02  0.46938147440E+01  0.33340893759E+02  0.43893402696E+02  0.00000000000E+00 0. -1.
</event>
<event>
 7    1  0.2090370E-015  0.9000777E+02  0.7816164E-02  0.1186339E+00
        -11   -1    0    0    0    0  0.00000000000E+00  0.00000000000E+00  0.45593999997E+02  0.45594000000E+02  0.51100000000E-03 0. -1.
         11   -1    0    0    0    0 -0.00000000000E+00 -0.00000000000E+00 -0.45593999997E+02  0.45594000000E+02  0.51100000000E-03 0.  1.
    9900012    2    1    2    0    0 -0.36704430034E+00 -0.24322775811E+00 -0.10950214579E+01  0.90007765594E+02  0.90000027299E+02 0.  0.
         12    1    1    2    0    0  0.36704430034E+00  0.24322775811E+00  0.10950214579E+01  0.11802344064E+01  0.00000000000E+00 0. -1.
         11    1    3    3    0    0  0.23972382023E+02 -0.31246073238E+02  0.13133031648E+02  0.41514680695E+02  0.51100000000E-03 0. -1.
        -11    1    3    3    0    0  0.34381788974E+01  0.95825872750E+01  0.10463672250E+01  0.10234350866E+02  0.51100000000E-03 0.  1.
        -12    1    3    3    0    0 -0.27777605221E+02  0.21420258205E+02 -0.15274420331E+02  0.38258734033E+02  0.00000000000E+00 0.  1.
</event>
<event>
 7    1  0.2090370E-015  0.9000771E+02  0.7816164E-02  0.1186339E+00
        -11   -1    0    0    0    0  0.00000000000E+00  0.00000000000E+00  0.45593999997E+02  0.45594000000E+02  0.51100000000E-03 0.  1.
         11   -1    0    0    0    0 -0.00000000000E+00 -0.00000000000E+00 -0.45593999997E+02  0.45594000000E+02  0.51100000000E-03 0. -1.
    9900012    2    1    2    0    0  0.13682475315E+00 -0.10729186927E+01  0.47245570601E+00  0.90007707694E+02  0.89999968635E+02 0.  0.
         12    1    1    2    0    0 -0.13682475315E+00  0.10729186927E+01 -0.47245570601E+00  0.11802923063E+01  0.00000000000E+00 0. -1.
         11    1    3    3    0    0  0.19651951541E+01 -0.10346346396E+02 -0.31585823846E+01  0.10994795072E+02  0.51100000000E-03 0. -1.
        -11    1    3    3    0    0 -0.23849643894E+02  0.33133918515E+01  0.33607264401E+02  0.41342862748E+02  0.51100000000E-03 0.  1.
         12    1    3    3    0    0  0.22021273493E+02  0.59600358517E+01 -0.29976226311E+02  0.37670049873E+02  0.00000000000E+00 0. -1.
</event>
<event>
 7    1  0.2090370E-015  0.9000778E+02  0.7816164E-02  0.1186339E+00
        -11   -1    0    0    0    0  0.00000000000E+00  0.00000000000E+00  0.45593999997E+02  0.45594000000E+02  0.51100000000E-03 0.  1.
         11   -1    0    0    0    0 -0.00000000000E+00 -0.00000000000E+00 -0.45593999997E+02  0.45594000000E+02  0.51100000000E-03 0. -1.
    9900012    2    1    2    0    0  0.11701280065E+01  0.80930047772E-01 -0.13106781535E+00  0.90007776294E+02  0.90000038141E+02 0.  0.
         12    1    1    2    0    0 -0.11701280065E+01 -0.80930047772E-01  0.13106781535E+00  0.11802237062E+01  0.00000000000E+00 0. -1.
         11    1    3    3    0    0 -0.63199550902E+01 -0.33646656136E+01 -0.51221836817E+01  0.88033841768E+01  0.51100000000E-03 0. -1.
        -11    1    3    3    0    0 -0.22687966476E+02 -0.18983502692E+02 -0.20310718031E+02  0.35883735375E+02  0.51100000000E-03 0.  1.
         12    1    3    3    0    0  0.30178049573E+02  0.22429098353E+02  0.25301833897E+02  0.45320656742E+02  0.00000000000E+00 0. -1.
</event>
<event>
 7    1  0.2090370E-015  0.9000744E+02  0.7816164E-02  0.1186340E+00
        -11   -1    0    0    0    0  0.00000000000E+00  0.00000000000E+00  0.45593999997E+02  0.45594000000E+02  0.51100000000E-03 0.  1.
         11   -1    0    0    0    0 -0.00000000000E+00 -0.00000000000E+00 -0.45593999997E+02  0.45594000000E+02  0.51100000000E-03 0. -1.
    9900012    2    1    2    0    0  0.23122187014E-01 -0.45263195069E-01  0.11794693288E+01  0.90007436029E+02  0.89999693384E+02 0.  0.
         12    1    1    2    0    0 -0.23122187014E-01  0.45263195069E-01 -0.11794693288E+01  0.11805639712E+01  0.00000000000E+00 0. -1.
         11    1    3    3    0    0 -0.28390621415E+02  0.12049385941E+02 -0.17540764598E+02  0.35480889347E+02  0.51100000000E-03 0. -1.
        -11    1    3    3    0    0 -0.78735636189E+01 -0.45114871779E+01 -0.51509727670E+01  0.10434512031E+02  0.51100000000E-03 0.  1.
        -12    1    3    3    0    0  0.36287307221E+02 -0.75831619586E+01  0.23871206694E+02  0.44092034651E+02  0.00000000000E+00 0.  1.
</event>
<event>
 7    1  0.2090370E-015  0.9000771E+02  0.7816164E-02  0.1186339E+00
        -11   -1    0    0    0    0  0.00000000000E+00  0.00000000000E+00  0.45593999997E+02  0.45594000000E+02  0.51100000000E-03 0.  1.
         11   -1    0    0    0    0 -0.00000000000E+00 -0.00000000000E+00 -0.45593999997E+02  0.45594000000E+02  0.51100000000E-03 0. -1.
    9900012    2    1    2    0    0  0.71268317602E+00  0.78536601776E+00  0.51803423648E+00  0.90007713356E+02  0.89999974373E+02 0.  0.
         12    1    1    2    0    0 -0.71268317602E+00 -0.78536601776E+00 -0.51803423648E+00  0.11802866437E+01  0.00000000000E+00 0. -1.
         11    1    3    3    0    0 -0.22696889199E+01  0.75694858113E+01  0.46035279743E+01  0.91455493718E+01  0.51100000000E-03 0. -1.
        -11    1    3    3    0    0  0.24364110508E+02 -0.34807210306E+02 -0.13133550365E+02  0.44470686025E+02  0.51100000000E-03 0.  1.
         12    1    3    3    0    0 -0.21381738412E+02  0.28023090512E+02  0.90480566271E+01  0.36391477960E+02  0.00000000000E+00 0. -1.
</event>
<event>
 7    1  0.2090370E-015  0.9000762E+02  0.7816164E-02  0.1186339E+00
        -11   -1    0    0    0    0  0.00000000000E+00  0.00000000000E+00  0.45593999997E+02  0.45594000000E+02  0.51100000000E-03 0. -1.
         11   -1    0    0    0    0 -0.00000000000E+00 -0.00000000000E+00 -0.45593999997E+02  0.45594000000E+02  0.51100000000E-03 0.  1.
    9900012    2    1    2    0    0 -0.67089589614E+00  0.91441138539E+00 -0.32718657538E+00  0.90007618477E+02  0.89999878241E+02 0.  0.
         12    1    1    2    0    0  0.67089589614E+00 -0.91441138539E+00  0.32718657538E+00  0.11803815232E+01  0.00000000000E+00 0. -1.
         11    1    3    3    0    0 -0.27764920584E+01 -0.17545174406E+02  0.36803773712E+02  0.40866365300E+02  0.51100000000E-03 0. -1.
        -11    1    3    3    0    0 -0.64488524388E+01 -0.26793510665E+01 -0.20110030078E+01  0.72671007474E+01  0.51100000000E-03 0.  1.
        -12    1    3    3    0    0  0.85544486011E+01  0.21138936858E+02 -0.35119957280E+02  0.41874152430E+02  0.00000000000E+00 0.  1.
</event>
<event>
 7    1  0.2090370E-015  0.9000777E+02  0.7816164E-02  0.1186339E+00
        -11   -1    0    0    0    0  0.00000000000E+00  0.00000000000E+00  0.45593999997E+02  0.45594000000E+02  0.51100000000E-03 0. -1.
         11   -1    0    0    0    0 -0.00000000000E+00 -0.00000000000E+00 -0.45593999997E+02  0.45594000000E+02  0.51100000000E-03 0.  1.
    9900012    2    1    2    0    0  0.20276748896E+00  0.11360242319E+01  0.24753585954E+00  0.90007771331E+02  0.90000033112E+02 0.  0.
         12    1    1    2    0    0 -0.20276748896E+00 -0.11360242319E+01 -0.24753585954E+00  0.11802286693E+01  0.00000000000E+00 0. -1.
         11    1    3    3    0    0  0.59780047109E+01 -0.11182646255E+01  0.64401170829E+01  0.88578871295E+01  0.51100000000E-03 0. -1.
        -11    1    3    3    0    0  0.34370816119E+02  0.14979981988E+02  0.43242292634E+01  0.37741910656E+02  0.51100000000E-03 0.  1.
         12    1    3    3    0    0 -0.40146053340E+02 -0.12725693130E+02 -0.10516810487E+02  0.43407973545E+02  0.00000000000E+00 0. -1.
</event>
<event>
 7    1  0.2090370E-015  0.9000772E+02  0.7816164E-02  0.1186339E+00
        -11   -1    0    0    0    0  0.00000000000E+00  0.00000000000E+00  0.45593999997E+02  0.45594000000E+02  0.51100000000E-03 0. -1.
         11   -1    0    0    0    0 -0.00000000000E+00 -0.00000000000E+00 -0.45593999997E+02  0.45594000000E+02  0.51100000000E-03 0.  1.
    9900012    2    1    2    0    0  0.11493985273E+01  0.58900800903E-01 -0.26168205156E+00  0.90007718773E+02  0.89999979861E+02 0.  0.
         12    1    1    2    0    0 -0.11493985273E+01 -0.58900800903E-01  0.26168205156E+00  0.11802812270E+01  0.00000000000E+00 0. -1.
         11    1    3    3    0    0  0.76957302875E+01 -0.12034993912E+01 -0.61364813646E+01  0.99161020186E+01  0.51100000000E-03 0. -1.
        -11    1    3    3    0    0  0.11865832227E+01 -0.36749290167E+02  0.15850031143E+02  0.40039253177E+02  0.51100000000E-03 0.  1.
         12    1    3    3    0    0 -0.77329149829E+01  0.38011690359E+02 -0.99752318301E+01  0.40052363577E+02  0.00000000000E+00 0. -1.
</event>
<event>
 7    1  0.2090370E-015  0.9000839E+02  0.7816164E-02  0.1186338E+00
        -11   -1    0    0    0    0  0.00000000000E+00  0.00000000000E+00  0.45593999997E+02  0.45594000000E+02  0.51100000000E-03 0.  1.
         11   -1    0    0    0    0 -0.00000000000E+00 -0.00000000000E+00 -0.45593999997E+02  0.45594000000E+02  0.51100000000E-03 0. -1.
    9900012    2    1    2    0    0 -0.65859444142E-01 -0.10213986989E+01  0.58642213606E+00  0.90008388331E+02  0.90000658254E+02 0.  0.
         12    1    1    2    0    0  0.65859444142E-01  0.10213986989E+01 -0.58642213606E+00  0.11796116692E+01  0.00000000000E+00 0. -1.
         11    1    3    3    0    0 -0.63223452056E+00  0.58429797123E+01 -0.77789371945E+01  0.97494613463E+01  0.51100000000E-03 0. -1.
        -11    1    3    3    0    0 -0.29964380295E+02 -0.20112441357E+02 -0.15529772610E+02  0.39288016257E+02  0.51100000000E-03 0.  1.
         12    1    3    3    0    0  0.30530755371E+02  0.13248062946E+02  0.23895131941E+02  0.40970910728E+02  0.00000000000E+00 0. -1.
</event>
<event>
 7    1  0.2090370E-015  0.9000766E+02  0.7816164E-02  0.1186339E+00
        -11   -1    0    0    0    0  0.00000000000E+00  0.00000000000E+00  0.45593999997E+02  0.45594000000E+02  0.51100000000E-03 0. -1.
         11   -1    0    0    0    0 -0.00000000000E+00 -0.00000000000E+00 -0.45593999997E+02  0.45594000000E+02  0.51100000000E-03 0.  1.
    9900012    2    1    2    0    0  0.36811131211E-01  0.82736470062E+00 -0.84102063831E+00  0.90007659743E+02  0.89999920052E+02 0.  0.
         12    1    1    2    0    0 -0.36811131211E-01 -0.82736470062E+00  0.84102063831E+00  0.11803402566E+01  0.00000000000E+00 0. -1.
         11    1    3    3    0    0  0.98394077312E+00 -0.83683503809E+01 -0.54404035548E+01  0.10029726748E+02  0.51100000000E-03 0. -1.
        -11    1    3    3    0    0  0.33600325227E+02  0.21387558454E+02 -0.91151240067E+01  0.40859454205E+02  0.51100000000E-03 0.  1.
         12    1    3    3    0    0 -0.34547454869E+02 -0.12191843373E+02  0.13714506923E+02  0.39118478791E+02  0.00000000000E+00 0. -1.
</event>
<event>
 7    1  0.2090370E-015  0.9000779E+02  0.7816164E-02  0.1186339E+00
        -11   -1    0    0    0    0  0.00000000000E+00  0.00000000000E+00  0.45593999997E+02  0.45594000000E+02  0.51100000000E-03 0.  1.
         11   -1    0    0    0    0 -0.00000000000E+00 -0.00000000000E+00 -0.45593999997E+02  0.45594000000E+02  0.51100000000E-03 0. -1.
    9900012    2    1    2    0    0 -0.26445685929E+00  0.11019022259E+01  0.32980299189E+00  0.90007789866E+02  0.90000051893E+02 0.  0.
         12    1    1    2    0    0  0.26445685929E+00 -0.11019022259E+01 -0.32980299189E+00  0.11802101335E+01  0.00000000000E+00 0. -1.
         11    1    3    3    0    0 -0.31630380389E+01  0.34469478784E+02  0.51712525948E+01  0.34998451836E+02  0.51100000000E-03 0. -1.
        -11    1    3    3    0    0  0.16327129941E+01  0.79467951354E+01  0.83298787022E+01  0.11627733403E+02  0.51100000000E-03 0.  1.
        -12    1    3    3    0    0  0.12658681856E+01 -0.41314371693E+02 -0.13171328305E+02  0.43381604627E+02  0.00000000000E+00 0.  1.
</event>
<event>
 7    1  0.2090370E-015  0.9000782E+02  0.7816164E-02  0.1186339E+00
        -11   -1    0    0    0    0  0.00000000000E+00  0.00000000000E+00  0.45593999997E+02  0.45594000000E+02  0.51100000000E-03 0.  1.
         11   -1    0    0    0    0 -0.00000000000E+00 -0.00000000000E+00 -0.45593999997E+02  0.45594000000E+02  0.51100000000E-03 0. -1.
    9900012    2    1    2    0    0  0.10541222162E+00 -0.50677488160E+00  0.10606132262E+01  0.90007816568E+02  0.90000078947E+02 0.  0.
         12    1    1    2    0    0 -0.10541222162E+00  0.50677488160E+00 -0.10606132262E+01  0.11801834318E+01  0.00000000000E+00 0. -1.
         11    1    3    3    0    0  0.37193778098E+01  0.36313885357E+01  0.11292538278E+02  0.12431499307E+02  0.51100000000E-03 0. -1.
        -11    1    3    3    0    0  0.23858151893E+02 -0.16653511356E+02  0.19642117911E+02  0.35105037367E+02  0.51100000000E-03 0.  1.
         12    1    3    3    0    0 -0.27472117481E+02  0.12515347939E+02 -0.29874042963E+02  0.42471279895E+02  0.00000000000E+00 0. -1.
</event>
<event>
 7    1  0.2090370E-015  0.9000764E+02  0.7816164E-02  0.1186339E+00
        -11   -1    0    0    0    0  0.00000000000E+00  0.00000000000E+00  0.45593999997E+02  0.45594000000E+02  0.51100000000E-03 0.  1.
         11   -1    0    0    0    0 -0.00000000000E+00 -0.00000000000E+00 -0.45593999997E+02  0.45594000000E+02  0.51100000000E-03 0. -1.
    9900012    2    1    2    0    0  0.18913204525E+00 -0.42166661635E+00  0.10861332150E+01  0.90007636062E+02  0.89999896058E+02 0.  0.
         12    1    1    2    0    0 -0.18913204525E+00  0.42166661635E+00 -0.10861332150E+01  0.11803639382E+01  0.00000000000E+00 0. -1.
         11    1    3    3    0    0  0.83965361688E+01 -0.70282514224E+01 -0.10382267982E+01  0.10998911439E+02  0.51100000000E-03 0. -1.
        -11    1    3    3    0    0  0.32922347001E+02  0.11198748671E+02  0.11401643069E+02  0.36596316328E+02  0.51100000000E-03 0.  1.
         12    1    3    3    0    0 -0.41129751124E+02 -0.45921638647E+01 -0.92772830562E+01  0.42412408295E+02  0.00000000000E+00 0. -1.
</event>
<event>
 7    1  0.2090370E-015  0.9000762E+02  0.7816164E-02  0.1186339E+00
        -11   -1    0    0    0    0  0.00000000000E+00  0.00000000000E+00  0.45593999997E+02  0.45594000000E+02  0.51100000000E-03 0. -1.
         11   -1    0    0    0    0 -0.00000000000E+00 -0.00000000000E+00 -0.45593999997E+02  0.45594000000E+02  0.51100000000E-03 0.  1.
    9900012    2    1    2    0    0 -0.10093696352E+00  0.10194642051E+01 -0.58635136872E+00  0.90007617239E+02  0.89999876986E+02 0.  0.
         12    1    1    2    0    0  0.10093696352E+00 -0.10194642051E+01  0.58635136872E+00  0.11803827615E+01  0.00000000000E+00 0. -1.
         11    1    3    3    0    0 -0.39191671702E+02  0.99809425246E+01 -0.17473306850E+02  0.44055905359E+02  0.51100000000E-03 0. -1.
        -11    1    3    3    0    0  0.45873601466E+01  0.13402048149E+01  0.72370500037E+01  0.86726532894E+01  0.51100000000E-03 0.  1.
        -12    1    3    3    0    0  0.34503374592E+02 -0.10301683134E+02  0.96499054773E+01  0.37279058590E+02  0.00000000000E+00 0.  1.
</event>
<event>
 7    1  0.2090370E-015  0.9000784E+02  0.7816164E-02  0.1186339E+00
        -11   -1    0    0    0    0  0.00000000000E+00  0.00000000000E+00  0.45593999997E+02  0.45594000000E+02  0.51100000000E-03 0.  1.
         11   -1    0    0    0    0 -0.00000000000E+00 -0.00000000000E+00 -0.45593999997E+02  0.45594000000E+02  0.51100000000E-03 0. -1.
    9900012    2    1    2    0    0 -0.11781783235E+01  0.26685655648E-01 -0.62937311371E-01  0.90007840099E+02  0.90000102789E+02 0.  0.
         12    1    1    2    0    0  0.11781783235E+01 -0.26685655648E-01  0.62937311371E-01  0.11801599007E+01  0.00000000000E+00 0. -1.
         11    1    3    3    0    0  0.71044707565E+01 -0.60083548863E+01 -0.33264991619E+02  0.34541764588E+02  0.51100000000E-03 0. -1.
        -11    1    3    3    0    0 -0.11417009124E+01 -0.77729577630E+01 -0.81309887048E+01  0.11306428744E+02  0.51100000000E-03 0.  1.
        -12    1    3    3    0    0 -0.71409481676E+01  0.13807998305E+02  0.41333043013E+02  0.44159646767E+02  0.00000000000E+00 0.  1.
</event>
<event>
 7    1  0.2090370E-015  0.9000777E+02  0.7816164E-02  0.1186339E+00
        -11   -1    0    0    0    0  0.00000000000E+00  0.00000000000E+00  0.45593999997E+02  0.45594000000E+02  0.51100000000E-03 0.  1.
         11   -1    0    0    0    0 -0.00000000000E+00 -0.00000000000E+00 -0.45593999997E+02  0.45594000000E+02  0.51100000000E-03 0. -1.
    9900012    2    1    2    0    0 -0.51767043745E+00  0.96078787603E+00 -0.44926509320E+00  0.90007773264E+02  0.90000035071E+02 0.  0.
         12    1    1    2    0    0  0.51767043745E+00 -0.96078787603E+00  0.44926509320E+00  0.11802267361E+01  0.00000000000E+00 0. -1.
         11    1    3    3    0    0 -0.24189436487E+02  0.23902900968E+02 -0.26462380452E+02  0.43089849056E+02  0.51100000000E-03 0. -1.
        -11    1    3    3    0    0  0.21614203275E+01 -0.74690985214E+01 -0.23307470701E+01  0.81173611919E+01  0.51100000000E-03 0.  1.
        -12    1    3    3    0    0  0.21510345722E+02 -0.15473014570E+02  0.28343862429E+02  0.38800563016E+02  0.00000000000E+00 0.  1.
</event>
<event>
 7    1  0.2090370E-015  0.9000769E+02  0.7816164E-02  0.1186339E+00
        -11   -1    0    0    0    0  0.00000000000E+00  0.00000000000E+00  0.45593999997E+02  0.45594000000E+02  0.51100000000E-03 0.  1.
         11   -1    0    0    0    0 -0.00000000000E+00 -0.00000000000E+00 -0.45593999997E+02  0.45594000000E+02  0.51100000000E-03 0. -1.
    9900012    2    1    2    0    0 -0.11274506225E+00 -0.17805146705E+00  0.11613396499E+01  0.90007693448E+02  0.89999954202E+02 0.  0.
         12    1    1    2    0    0  0.11274506225E+00  0.17805146705E+00 -0.11613396499E+01  0.11803065519E+01  0.00000000000E+00 0. -1.
         11    1    3    3    0    0  0.58204227837E+01  0.22761501280E+01 -0.84525191906E+01  0.10512053164E+02  0.51100000000E-03 0. -1.
        -11    1    3    3    0    0  0.43256417640E+01  0.17731016122E+02  0.38609916415E+02  0.42706273019E+02  0.51100000000E-03 0.  1.
         12    1    3    3    0    0 -0.10258809610E+02 -0.20185217718E+02 -0.28996057574E+02  0.36789367265E+02  0.00000000000E+00 0. -1.
</event>
<event>
 7    1  0.2090370E-015  0.9000771E+02  0.7816164E-02  0.1186339E+00
        -11   -1    0    0    0    0  0.00000000000E+00  0.00000000000E+00  0.45593999997E+02  0.45594000000E+02  0.51100000000E-03 0.  1.
         11   -1    0    0    0    0 -0.00000000000E+00 -0.00000000000E+00 -0.45593999997E+02  0.45594000000E+02  0.51100000000E-03 0. -1.
    9900012    2    1    2    0    0  0.68449310996E+00  0.95748528668E+00 -0.88238932026E-01  0.90007705545E+02  0.89999966458E+02 0.  0.
         12    1    1    2    0    0 -0.68449310996E+00 -0.95748528668E+00  0.88238932026E-01  0.11802944552E+01  0.00000000000E+00 0. -1.
         11    1    3    3    0    0  0.23661013754E+01 -0.27851233538E+01 -0.69124885041E+01  0.78190693433E+01  0.51100000000E-03 0. -1.
        -11    1    3    3    0    0  0.29629037859E+02 -0.24919121965E+02  0.87702211714E+01  0.39695834840E+02  0.51100000000E-03 0.  1.
         12    1    3    3    0    0 -0.31310646125E+02  0.28661730606E+02 -0.19459715993E+01  0.42492801361E+02  0.00000000000E+00 0. -1.
</event>
<event>
 7    1  0.2090370E-015  0.9000773E+02  0.7816164E-02  0.1186339E+00
        -11   -1    0    0    0    0  0.00000000000E+00  0.00000000000E+00  0.45593999997E+02  0.45594000000E+02  0.51100000000E-03 0. -1.
         11   -1    0    0    0    0 -0.00000000000E+00 -0.00000000000E+00 -0.45593999997E+02  0.45594000000E+02  0.51100000000E-03 0.  1.
    9900012    2    1    2    0    0 -0.47367066083E+00  0.42190850517E+00 -0.99532792011E+00  0.90007725307E+02  0.89999986481E+02 0.  0.
         12    1    1    2    0    0  0.47367066083E+00 -0.42190850517E+00  0.99532792011E+00  0.11802746927E+01  0.00000000000E+00 0. -1.
         11    1    3    3    0    0 -0.40382686235E+01  0.10650473039E+02 -0.43850972394E+00  0.11398792939E+02  0.51100000000E-03 0. -1.
        -11    1    3    3    0    0  0.57952332574E+01  0.19975712589E+02 -0.29910701677E+02  0.36431633192E+02  0.51100000000E-03 0.  1.
         12    1    3    3    0    0 -0.22306352948E+01 -0.30204277123E+02  0.29353883481E+02  0.42177299176E+02  0.00000000000E+00 0. -1.
</event>
<event>
 7    1  0.2090370E-015  0.9000777E+02  0.7816164E-02  0.1186339E+00
        -11   -1    0    0    0    0  0.00000000000E+00  0.00000000000E+00  0.45593999997E+02  0.45594000000E+02  0.51100000000E-03 0.  1.
         11   -1    0    0    0    0 -0.00000000000E+00 -0.00000000000E+00 -0.45593999997E+02  0.45594000000E+02  0.51100000000E-03 0. -1.
    9900012    2    1    2    0    0  0.11600126642E-01  0.86402979907E+00  0.80391021074E+00  0.90007765412E+02  0.90000027115E+02 0.  0.
         12    1    1    2    0    0 -0.11600126642E-01 -0.86402979907E+00 -0.80391021074E+00  0.11802345884E+01  0.00000000000E+00 0. -1.
         11    1    3    3    0    0  0.33107279282E+02  0.13621475484E+02  0.74451925079E+01  0.36565932609E+02  0.51100000000E-03 0. -1.
        -11    1    3    3    0    0  0.51796622925E+01  0.49764678074E+01 -0.86089004042E+01  0.11211926674E+02  0.51100000000E-03 0.  1.
        -12    1    3    3    0    0 -0.38275341447E+02 -0.17733913493E+02  0.19676181070E+01  0.42229906129E+02  0.00000000000E+00 0.  1.
</event>
<event>
 7    1  0.2090370E-015  0.9000766E+02  0.7816164E-02  0.1186339E+00
        -11   -1    0    0    0    0  0.00000000000E+00  0.00000000000E+00  0.45593999997E+02  0.45594000000E+02  0.51100000000E-03 0. -1.
         11   -1    0    0    0    0 -0.00000000000E+00 -0.00000000000E+00 -0.45593999997E+02  0.45594000000E+02  0.51100000000E-03 0.  1.
    9900012    2    1    2    0    0  0.11236059281E+01 -0.36150422033E+00 -0.60315099002E-02  0.90007655998E+02  0.89999916258E+02 0.  0.
         12    1    1    2    0    0 -0.11236059281E+01  0.36150422033E+00  0.60315099002E-02  0.11803440016E+01  0.00000000000E+00 0. -1.
         11    1    3    3    0    0 -0.14320796408E+02 -0.36719671978E+02 -0.81919892590E+01  0.40255784779E+02  0.51100000000E-03 0. -1.
        -11    1    3    3    0    0  0.80415568657E+01 -0.25738336960E+01 -0.23142581306E+01  0.87548299627E+01  0.51100000000E-03 0.  1.
        -12    1    3    3    0    0  0.74028454706E+01  0.38932001454E+02  0.10500215880E+02  0.40997041256E+02  0.00000000000E+00 0.  1.
</event>
<event>
 7    1  0.2090370E-015  0.9000780E+02  0.7816164E-02  0.1186339E+00
        -11   -1    0    0    0    0  0.00000000000E+00  0.00000000000E+00  0.45593999997E+02  0.45594000000E+02  0.51100000000E-03 0. -1.
         11   -1    0    0    0    0 -0.00000000000E+00 -0.00000000000E+00 -0.45593999997E+02  0.45594000000E+02  0.51100000000E-03 0.  1.
    9900012    2    1    2    0    0 -0.87284056996E+00 -0.20356085566E+00 -0.76784266124E+00  0.90007800849E+02  0.90000063021E+02 0.  0.
         12    1    1    2    0    0  0.87284056996E+00  0.20356085566E+00  0.76784266124E+00  0.11801991505E+01  0.00000000000E+00 0. -1.
         11    1    3    3    0    0 -0.19404502614E+02  0.82781550603E+01  0.17015305031E+02  0.27103194986E+02  0.51100000000E-03 0. -1.
        -11    1    3    3    0    0 -0.17086921521E+02  0.10414723809E+02 -0.54418825668E+01  0.20737488884E+02  0.51100000000E-03 0.  1.
        -12    1    3    3    0    0  0.35618583565E+02 -0.18896439725E+02 -0.12341265126E+02  0.42167116979E+02  0.00000000000E+00 0.  1.
</event>
<event>
 7    1  0.2090370E-015  0.9000770E+02  0.7816164E-02  0.1186339E+00
        -11   -1    0    0    0    0  0.00000000000E+00  0.00000000000E+00  0.45593999997E+02  0.45594000000E+02  0.51100000000E-03 0.  1.
         11   -1    0    0    0    0 -0.00000000000E+00 -0.00000000000E+00 -0.45593999997E+02  0.45594000000E+02  0.51100000000E-03 0. -1.
    9900012    2    1    2    0    0  0.38223896143E+00  0.64212984828E+00  0.91360058792E+00  0.90007701987E+02  0.89999962853E+02 0.  0.
         12    1    1    2    0    0 -0.38223896143E+00 -0.64212984828E+00 -0.91360058792E+00  0.11802980132E+01  0.00000000000E+00 0. -1.
         11    1    3    3    0    0 -0.94406964531E+01 -0.33678090304E+02 -0.19199757505E+02  0.39899513838E+02  0.51100000000E-03 0. -1.
        -11    1    3    3    0    0 -0.27046680487E+01 -0.42619657096E+01  0.40761466874E+01  0.64880315229E+01  0.51100000000E-03 0.  1.
        -12    1    3    3    0    0  0.12527603463E+02  0.38582185861E+02  0.16037211406E+02  0.43620156626E+02  0.00000000000E+00 0.  1.
</event>
<event>
 7    1  0.2090370E-015  0.9000778E+02  0.7816164E-02  0.1186339E+00
        -11   -1    0    0    0    0  0.00000000000E+00  0.00000000000E+00  0.45593999997E+02  0.45594000000E+02  0.51100000000E-03 0. -1.
         11   -1    0    0    0    0 -0.00000000000E+00 -0.00000000000E+00 -0.45593999997E+02  0.45594000000E+02  0.51100000000E-03 0.  1.
    9900012    2    1    2    0    0 -0.91145597509E+00  0.30074750588E+00 -0.68681630145E+00  0.90007780661E+02  0.90000042565E+02 0.  0.
         12    1    1    2    0    0  0.91145597509E+00 -0.30074750588E+00  0.68681630145E+00  0.11802193393E+01  0.00000000000E+00 0. -1.
         11    1    3    3    0    0  0.26662434312E+02 -0.21900072377E+02 -0.52326140179E+01  0.34898120627E+02  0.51100000000E-03 0. -1.
        -11    1    3    3    0    0  0.21278783844E+01 -0.10295223131E+02 -0.16818700911E+01  0.10646509897E+02  0.51100000000E-03 0.  1.
        -12    1    3    3    0    0 -0.29701768672E+02  0.32496043013E+02  0.62276678076E+01  0.44463150137E+02  0.00000000000E+00 0.  1.
</event>
<event>
 7    1  0.2090370E-015  0.9000776E+02  0.7816164E-02  0.1186339E+00
        -11   -1    0    0    0    0  0.00000000000E+00  0.00000000000E+00  0.45593999997E+02  0.45594000000E+02  0.51100000000E-03 0.  1.
         11   -1    0    0    0    0 -0.00000000000E+00 -0.00000000000E+00 -0.45593999997E+02  0.45594000000E+02  0.51100000000E-03 0. -1.
    9900012    2    1    2    0    0 -0.10074031144E+01 -0.58461154341E+00 -0.19063969818E+00  0.90007756302E+02  0.90000017885E+02 0.  0.
         12    1    1    2    0    0  0.10074031144E+01  0.58461154341E+00  0.19063969818E+00  0.11802436978E+01  0.00000000000E+00 0. -1.
         11    1    3    3    0    0  0.52969521142E+01  0.25750017021E+02 -0.33125660995E+02  0.42289839145E+02  0.51100000000E-03 0. -1.
        -11    1    3    3    0    0  0.52118778103E+01 -0.63192055202E+01  0.91839140790E+00  0.82425403702E+01  0.51100000000E-03 0.  1.
        -12    1    3    3    0    0 -0.11516233039E+02 -0.20015423045E+02  0.32016629889E+02  0.39475376787E+02  0.00000000000E+00 0.  1.
</event>
<event>
 7    1  0.2090370E-015  0.9000762E+02  0.7816164E-02  0.1186339E+00
        -11   -1    0    0    0    0  0.00000000000E+00  0.00000000000E+00  0.45593999997E+02  0.45594000000E+02  0.51100000000E-03 0.  1.
         11   -1    0    0    0    0 -0.00000000000E+00 -0.00000000000E+00 -0.45593999997E+02  0.45594000000E+02  0.51100000000E-03 0. -1.
    9900012    2    1    2    0    0  0.18220822247E+00  0.87490453119E+00  0.77113062003E+00  0.90007618617E+02  0.89999878383E+02 0.  0.
         12    1    1    2    0    0 -0.18220822247E+00 -0.87490453119E+00 -0.77113062003E+00  0.11803813825E+01  0.00000000000E+00 0. -1.
         11    1    3    3    0    0  0.60241539699E+01 -0.33420088655E+01 -0.60008107069E+01  0.91361470933E+01  0.51100000000E-03 0. -1.
        -11    1    3    3    0    0 -0.16363095003E+02  0.37059671039E+02  0.18376661532E+02  0.44484511742E+02  0.51100000000E-03 0.  1.
         12    1    3    3    0    0  0.10521149255E+02 -0.32842757642E+02 -0.11604720205E+02  0.36386959783E+02  0.00000000000E+00 0. -1.
</event>
<event>
 7    1  0.2090370E-015  0.9000744E+02  0.7816164E-02  0.1186340E+00
        -11   -1    0    0    0    0  0.00000000000E+00  0.00000000000E+00  0.45593999997E+02  0.45594000000E+02  0.51100000000E-03 0. -1.
         11   -1    0    0    0    0 -0.00000000000E+00 -0.00000000000E+00 -0.45593999997E+02  0.45594000000E+02  0.51100000000E-03 0.  1.
    9900012    2    1    2    0    0 -0.60147753588E-01 -0.13479997674E+00 -0.11712987725E+01  0.90007436744E+02  0.89999694109E+02 0.  0.
         12    1    1    2    0    0  0.60147753588E-01  0.13479997674E+00  0.11712987725E+01  0.11805632556E+01  0.00000000000E+00 0. -1.
         11    1    3    3    0    0 -0.30232136126E+02 -0.23686246939E+02  0.21353838689E+01  0.38465311819E+02  0.51100000000E-03 0. -1.
        -11    1    3    3    0    0 -0.91633522733E+00 -0.66566601915E+00 -0.11279463364E+02  0.11336184347E+02  0.51100000000E-03 0.  1.
        -12    1    3    3    0    0  0.31088323599E+02  0.24217112982E+02  0.79727807229E+01  0.40205940579E+02  0.00000000000E+00 0.  1.
</event>
<event>
 7    1  0.2090370E-015  0.9000780E+02  0.7816164E-02  0.1186339E+00
        -11   -1    0    0    0    0  0.00000000000E+00  0.00000000000E+00  0.45593999997E+02  0.45594000000E+02  0.51100000000E-03 0.  1.
         11   -1    0    0    0    0 -0.00000000000E+00 -0.00000000000E+00 -0.45593999997E+02  0.45594000000E+02  0.51100000000E-03 0. -1.
    9900012    2    1    2    0    0  0.39211526800E+00  0.76370944502E+00  0.80985106974E+00  0.90007802875E+02  0.90000065072E+02 0.  0.
         12    1    1    2    0    0 -0.39211526800E+00 -0.76370944502E+00 -0.80985106974E+00  0.11801971255E+01  0.00000000000E+00 0. -1.
         11    1    3    3    0    0  0.20319403641E+02  0.11979960116E+01 -0.28901766640E+02  0.35350042064E+02  0.51100000000E-03 0. -1.
        -11    1    3    3    0    0  0.60917597786E+01  0.11974676285E+01 -0.71751546017E+01  0.94882195243E+01  0.51100000000E-03 0.  1.
        -12    1    3    3    0    0 -0.26019048152E+02 -0.16317541951E+01  0.36886772311E+02  0.45169541286E+02  0.00000000000E+00 0.  1.
</event>
<event>
 7    1  0.2090370E-015  0.9000777E+02  0.7816164E-02  0.1186339E+00
        -11   -1    0    0    0    0  0.00000000000E+00  0.00000000000E+00  0.45593999997E+02  0.45594000000E+02  0.51100000000E-03 0.  1.
         11   -1    0    0    0    0 -0.00000000000E+00 -0.00000000000E+00 -0.45593999997E+02  0.45594000000E+02  0.51100000000E-03 0. -1.
    9900012    2    1    2    0    0 -0.10883328324E+00  0.70003850999E+00  0.94394691431E+00  0.90007773591E+02  0.90000035403E+02 0.  0.
         12    1    1    2    0    0  0.10883328324E+00 -0.70003850999E+00 -0.94394691431E+00  0.11802264088E+01  0.00000000000E+00 0. -1.
         11    1    3    3    0    0 -0.88004800399E+01 -0.15718376347E+02 -0.34515568101E+02  0.38933793105E+02  0.51100000000E-03 0. -1.
        -11    1    3    3    0    0  0.58619516701E+01 -0.84481013488E+01  0.43958731593E+01  0.11182870601E+02  0.51100000000E-03 0.  1.
        -12    1    3    3    0    0  0.28296950865E+01  0.24866516206E+02  0.31063641856E+02  0.39891109885E+02  0.00000000000E+00 0.  1.
</event>
<event>
 7    1  0.2125819E-015  0.9000769E+02  0.7816164E-02  0.1186339E+00
        -11   -1    0    0    0    0  0.00000000000E+00  0.00000000000E+00  0.45593999997E+02  0.45594000000E+02  0.51100000000E-03 0. -1.
         11   -1    0    0    0    0 -0.00000000000E+00 -0.00000000000E+00 -0.45593999997E+02  0.45594000000E+02  0.51100000000E-03 0.  1.
    9900012    2    1    2    0    0 -0.11048165835E+01  0.28155364024E+00 -0.30535981495E+00  0.90007687858E+02  0.89999948538E+02 0.  0.
         12    1    1    2    0    0  0.11048165835E+01 -0.28155364024E+00  0.30535981495E+00  0.11803121418E+01  0.00000000000E+00 0. -1.
         11    1    3    3    0    0  0.30332946327E+01  0.35418867698E+02  0.84911436016E+01  0.36548551069E+02  0.51100000000E-03 0. -1.
        -11    1    3    3    0    0 -0.37573019357E+01  0.71500974658E+01  0.43494972436E+01  0.91738398797E+01  0.51100000000E-03 0.  1.
        -12    1    3    3    0    0 -0.38080928048E+00 -0.42287411523E+02 -0.13146000660E+02  0.44285296910E+02  0.00000000000E+00 0.  1.
</event>
<event>
 7    1  0.2090370E-015  0.9000777E+02  0.7816164E-02  0.1186339E+00
        -11   -1    0    0    0    0  0.00000000000E+00  0.00000000000E+00  0.45593999997E+02  0.45594000000E+02  0.51100000000E-03 0.  1.
         11   -1    0    0    0    0 -0.00000000000E+00 -0.00000000000E+00 -0.45593999997E+02  0.45594000000E+02  0.51100000000E-03 0. -1.
    9900012    2    1    2    0    0  0.78754362503E+00  0.12571343716E+00  0.87001402097E+00  0.90007765605E+02  0.90000027311E+02 0.  0.
         12    1    1    2    0    0 -0.78754362503E+00 -0.12571343716E+00 -0.87001402097E+00  0.11802343946E+01  0.00000000000E+00 0. -1.
         11    1    3    3    0    0 -0.23581718068E+02 -0.14661037760E+02  0.20596671032E+02  0.34572623752E+02  0.51100000000E-03 0. -1.
        -11    1    3    3    0    0  0.18633221782E+01 -0.24738048590E+00  0.12904203110E+02  0.13040384381E+02  0.51100000000E-03 0.  1.
         12    1    3    3    0    0  0.22505939514E+02  0.15034131683E+02 -0.32630860121E+02  0.42394757472E+02  0.00000000000E+00 0. -1.
</event>
<event>
 7    1  0.2090370E-015  0.9000673E+02  0.7816164E-02  0.1186341E+00
        -11   -1    0    0    0    0  0.00000000000E+00  0.00000000000E+00  0.45593999997E+02  0.45594000000E+02  0.51100000000E-03 0. -1.
         11   -1    0    0    0    0 -0.00000000000E+00 -0.00000000000E+00 -0.45593999997E+02  0.45594000000E+02  0.51100000000E-03 0.  1.
    9900012    2    1    2    0    0  0.78735909295E-01  0.98682451407E+00  0.64448954042E+00  0.90006734267E+02  0.89998982353E+02 0.  0.
         12    1    1    2    0    0 -0.78735909295E-01 -0.98682451407E+00 -0.64448954042E+00  0.11812657333E+01  0.00000000000E+00 0. -1.
         11    1    3    3    0    0 -0.16642306502E+01  0.19169442481E+02  0.35827975998E+02  0.40667936425E+02  0.51100000000E-03 0. -1.
        -11    1    3    3    0    0 -0.79314834395E+01  0.43645637285E+01 -0.46759094776E+01  0.10189306934E+02  0.51100000000E-03 0.  1.
        -12    1    3    3    0    0  0.96744499990E+01 -0.22547181695E+02 -0.30507576980E+02  0.39149490908E+02  0.00000000000E+00 0.  1.
</event>
<event>
 7    1  0.2090370E-015  0.9000789E+02  0.7816164E-02  0.1186339E+00
        -11   -1    0    0    0    0  0.00000000000E+00  0.00000000000E+00  0.45593999997E+02  0.45594000000E+02  0.51100000000E-03 0. -1.
         11   -1    0    0    0    0 -0.00000000000E+00 -0.00000000000E+00 -0.45593999997E+02  0.45594000000E+02  0.51100000000E-03 0.  1.
    9900012    2    1    2    0    0  0.10519905288E+01  0.47672778041E+00 -0.24226989457E+00  0.90007894856E+02  0.90000158268E+02 0.  0.
         12    1    1    2    0    0 -0.10519905288E+01 -0.47672778041E+00  0.24226989457E+00  0.11801051441E+01  0.00000000000E+00 0. -1.
         11    1    3    3    0    0  0.15818882143E+02 -0.49643833104E+01  0.38373556737E+02  0.41802057256E+02  0.51100000000E-03 0. -1.
        -11    1    3    3    0    0 -0.81885029225E+01  0.46293598616E+01 -0.39529539827E+00  0.94148187212E+01  0.51100000000E-03 0.  1.
        -12    1    3    3    0    0 -0.65783886921E+01  0.81175122916E+00 -0.38220531234E+02  0.38791018878E+02  0.00000000000E+00 0.  1.
</event>
<event>
 7    1  0.2090370E-015  0.9000744E+02  0.7816164E-02  0.1186340E+00
        -11   -1    0    0    0    0  0.00000000000E+00  0.00000000000E+00  0.45593999997E+02  0.45594000000E+02  0.51100000000E-03 0.  1.
         11   -1    0    0    0    0 -0.00000000000E+00 -0.00000000000E+00 -0.45593999997E+02  0.45594000000E+02  0.51100000000E-03 0. -1.
    9900012    2    1    2    0    0  0.11877860596E+00 -0.11745635165E+01 -0.17931757577E-02  0.90007444611E+02  0.89999702079E+02 0.  0.
         12    1    1    2    0    0 -0.11877860596E+00  0.11745635165E+01  0.17931757577E-02  0.11805553892E+01  0.00000000000E+00 0. -1.
         11    1    3    3    0    0 -0.26976422361E+01  0.55173900652E+01  0.32945575553E+01  0.69694315773E+01  0.51100000000E-03 0. -1.
        -11    1    3    3    0    0 -0.98990247692E+01  0.21290000468E+02  0.29755965081E+02  0.37903459861E+02  0.51100000000E-03 0.  1.
         12    1    3    3    0    0  0.12715445611E+02 -0.27981954049E+02 -0.33052315812E+02  0.45134553172E+02  0.00000000000E+00 0. -1.
</event>
<event>
 7    1  0.2090370E-015  0.9000779E+02  0.7816164E-02  0.1186339E+00
        -11   -1    0    0    0    0  0.00000000000E+00  0.00000000000E+00  0.45593999997E+02  0.45594000000E+02  0.51100000000E-03 0. -1.
         11   -1    0    0    0    0 -0.00000000000E+00 -0.00000000000E+00 -0.45593999997E+02  0.45594000000E+02  0.51100000000E-03 0.  1.
    9900012    2    1    2    0    0 -0.10236178492E+01 -0.50170381529E+00 -0.30561235735E+00  0.90007788522E+02  0.90000050531E+02 0.  0.
         12    1    1    2    0    0  0.10236178492E+01  0.50170381529E+00  0.30561235735E+00  0.11802114779E+01  0.00000000000E+00 0. -1.
         11    1    3    3    0    0  0.24876776338E+02 -0.34787775405E+02  0.17538629420E+01  0.42803263358E+02  0.51100000000E-03 0. -1.
        -11    1    3    3    0    0 -0.21119474554E+01  0.60803353374E+01  0.66897597493E+01  0.92835168785E+01  0.51100000000E-03 0.  1.
        -12    1    3    3    0    0 -0.23788446732E+02  0.28205736252E+02 -0.87492350487E+01  0.37921008286E+02  0.00000000000E+00 0.  1.
</event>
<event>
 7    1  0.2090370E-015  0.9000774E+02  0.7816164E-02  0.1186339E+00
        -11   -1    0    0    0    0  0.00000000000E+00  0.00000000000E+00  0.45593999997E+02  0.45594000000E+02  0.51100000000E-03 0.  1.
         11   -1    0    0    0    0 -0.00000000000E+00 -0.00000000000E+00 -0.45593999997E+02  0.45594000000E+02  0.51100000000E-03 0. -1.
    9900012    2    1    2    0    0 -0.62535518226E+00 -0.91402095482E+00  0.40804309177E+00  0.90007744699E+02  0.90000006129E+02 0.  0.
         12    1    1    2    0    0  0.62535518226E+00  0.91402095482E+00 -0.40804309177E+00  0.11802553006E+01  0.00000000000E+00 0. -1.
         11    1    3    3    0    0 -0.30529964643E+01  0.81452598757E+01  0.31859350471E+01  0.92637048873E+01  0.51100000000E-03 0. -1.
        -11    1    3    3    0    0  0.30464967927E+02 -0.82770423239E+01  0.25748506774E+02  0.40738302637E+02  0.51100000000E-03 0.  1.
         12    1    3    3    0    0 -0.28037326645E+02 -0.78223850668E+00 -0.28526398729E+02  0.40005737175E+02  0.00000000000E+00 0. -1.
</event>
<event>
 7    1  0.2090370E-015  0.9000768E+02  0.7816164E-02  0.1186339E+00
        -11   -1    0    0    0    0  0.00000000000E+00  0.00000000000E+00  0.45593999997E+02  0.45594000000E+02  0.51100000000E-03 0. -1.
         11   -1    0    0    0    0 -0.00000000000E+00 -0.00000000000E+00 -0.45593999997E+02  0.45594000000E+02  0.51100000000E-03 0.  1.
    9900012    2    1    2    0    0  0.63505374610E+00  0.36618928033E+00 -0.92507837371E+00  0.90007678922E+02  0.89999939484E+02 0.  0.
         12    1    1    2    0    0 -0.63505374610E+00 -0.36618928033E+00  0.92507837371E+00  0.11803210779E+01  0.00000000000E+00 0. -1.
         11    1    3    3    0    0  0.33149818093E+02  0.54627254658E+01  0.27030424249E+02  0.43120710157E+02  0.51100000000E-03 0. -1.
        -11    1    3    3    0    0 -0.90282683814E+01 -0.18525926828E+01  0.12152140207E+01  0.92961537741E+01  0.51100000000E-03 0.  1.
        -12    1    3    3    0    0 -0.23486495965E+02 -0.32439435027E+01 -0.29170716644E+02  0.37590814991E+02  0.00000000000E+00 0.  1.
</event>
<event>
 7    1  0.2090370E-015  0.9000765E+02  0.7816164E-02  0.1186339E+00
        -11   -1    0    0    0    0  0.00000000000E+00  0.00000000000E+00  0.45593999997E+02  0.45594000000E+02  0.51100000000E-03 0.  1.
         11   -1    0    0    0    0 -0.00000000000E+00 -0.00000000000E+00 -0.45593999997E+02  0.45594000000E+02  0.51100000000E-03 0. -1.
    9900012    2    1    2    0    0 -0.15182633453E+00 -0.81911783113E+00  0.83620060040E+00  0.90007645519E+02  0.89999905640E+02 0.  0.
         12    1    1    2    0    0  0.15182633453E+00  0.81911783113E+00 -0.83620060040E+00  0.11803544812E+01  0.00000000000E+00 0. -1.
         11    1    3    3    0    0  0.31352013048E+01 -0.99156403103E+00  0.10392272292E+02  0.10900092206E+02  0.51100000000E-03 0. -1.
        -11    1    3    3    0    0  0.18408571761E+02 -0.27043472656E+02  0.15520769738E+02  0.36209380292E+02  0.51100000000E-03 0.  1.
         12    1    3    3    0    0 -0.21695599401E+02  0.27215918856E+02 -0.25076841429E+02  0.42898173022E+02  0.00000000000E+00 0. -1.
</event>
<event>
 7    1  0.2090370E-015  0.9000778E+02  0.7816164E-02  0.1186339E+00
        -11   -1    0    0    0    0  0.00000000000E+00  0.00000000000E+00  0.45593999997E+02  0.45594000000E+02  0.51100000000E-03 0.  1.
         11   -1    0    0    0    0 -0.00000000000E+00 -0.00000000000E+00 -0.45593999997E+02  0.45594000000E+02  0.51100000000E-03 0. -1.
    9900012    2    1    2    0    0  0.58464592815E+00  0.10071284930E+01  0.19186120217E+00  0.90007775706E+02  0.90000037546E+02 0.  0.
         12    1    1    2    0    0 -0.58464592815E+00 -0.10071284930E+01 -0.19186120217E+00  0.11802242938E+01  0.00000000000E+00 0. -1.
         11    1    3    3    0    0 -0.35942673218E+01 -0.34443992306E+00 -0.74457346205E+01  0.82750444556E+01  0.51100000000E-03 0. -1.
        -11    1    3    3    0    0 -0.10736983644E+02 -0.20900562506E+02  0.35826796074E+02  0.42844785541E+02  0.51100000000E-03 0.  1.
         12    1    3    3    0    0  0.14915896894E+02  0.22252130922E+02 -0.28189200252E+02  0.38887945710E+02  0.00000000000E+00 0. -1.
</event>
<event>
 7    1  0.2090370E-015  0.9000773E+02  0.7816164E-02  0.1186339E+00
        -11   -1    0    0    0    0  0.00000000000E+00  0.00000000000E+00  0.45593999997E+02  0.45594000000E+02  0.51100000000E-03 0.  1.
         11   -1    0    0    0    0 -0.00000000000E+00 -0.00000000000E+00 -0.45593999997E+02  0.45594000000E+02  0.51100000000E-03 0. -1.
    9900012    2    1    2    0    0 -0.82482992820E+00  0.36442493133E+00 -0.76150101997E+00  0.90007731495E+02  0.89999992750E+02 0.  0.
         12    1    1    2    0    0  0.82482992820E+00 -0.36442493133E+00  0.76150101997E+00  0.11802685052E+01  0.00000000000E+00 0. -1.
         11    1    3    3    0    0  0.89849835007E+01 -0.37741040061E+02 -0.56791284953E+01  0.39209291426E+02  0.51100000000E-03 0. -1.
        -11    1    3    3    0    0 -0.63098075591E+01  0.10026594792E+02 -0.12777902905E+02  0.17424726037E+02  0.51100000000E-03 0.  1.
        -12    1    3    3    0    0 -0.35000058698E+01  0.28078870201E+02  0.17695530381E+02  0.33373714032E+02  0.00000000000E+00 0.  1.
</event>
<event>
 7    1  0.2090370E-015  0.9000778E+02  0.7816164E-02  0.1186339E+00
        -11   -1    0    0    0    0  0.00000000000E+00  0.00000000000E+00  0.45593999997E+02  0.45594000000E+02  0.51100000000E-03 0.  1.
         11   -1    0    0    0    0 -0.00000000000E+00 -0.00000000000E+00 -0.45593999997E+02  0.45594000000E+02  0.51100000000E-03 0. -1.
    9900012    2    1    2    0    0 -0.75140226670E+00 -0.67897024618E+00  0.60605709168E+00  0.90007783427E+02  0.90000045368E+02 0.  0.
         12    1    1    2    0    0  0.75140226670E+00  0.67897024618E+00 -0.60605709168E+00  0.11802165733E+01  0.00000000000E+00 0. -1.
         11    1    3    3    0    0  0.69427117340E+01 -0.10393213939E+02  0.19986090453E+01  0.12657589841E+02  0.51100000000E-03 0. -1.
        -11    1    3    3    0    0 -0.25269564314E+02 -0.13544694662E+02  0.24989304135E+02  0.38032551263E+02  0.51100000000E-03 0.  1.
         12    1    3    3    0    0  0.17575450314E+02  0.23258938355E+02 -0.26381856089E+02  0.39317642323E+02  0.00000000000E+00 0. -1.
</event>
<event>
 7    1  0.2090370E-015  0.9000782E+02  0.7816164E-02  0.1186339E+00
        -11   -1    0    0    0    0  0.00000000000E+00  0.00000000000E+00  0.45593999997E+02  0.45594000000E+02  0.51100000000E-03 0. -1.
         11   -1    0    0    0    0 -0.00000000000E+00 -0.00000000000E+00 -0.45593999997E+02  0.45594000000E+02  0.51100000000E-03 0.  1.
    9900012    2    1    2    0    0 -0.84297636975E+00 -0.82128269656E+00 -0.87823494605E-01  0.90007818915E+02  0.90000081324E+02 0.  0.
         12    1    1    2    0    0  0.84297636975E+00  0.82128269656E+00  0.87823494605E-01  0.11801810852E+01  0.00000000000E+00 0. -1.
         11    1    3    3    0    0  0.44273602624E+01 -0.25236552060E+01 -0.96277632493E+01  0.10893308953E+02  0.51100000000E-03 0. -1.
        -11    1    3    3    0    0  0.25785931532E+02  0.22210879870E+02 -0.12032714853E+02  0.36097419251E+02  0.51100000000E-03 0.  1.
         12    1    3    3    0    0 -0.31056268165E+02 -0.20508507360E+02  0.21572654608E+02  0.43017090711E+02  0.00000000000E+00 0. -1.
</event>
<event>
 7    1  0.2090370E-015  0.9000775E+02  0.7816164E-02  0.1186339E+00
        -11   -1    0    0    0    0  0.00000000000E+00  0.00000000000E+00  0.45593999997E+02  0.45594000000E+02  0.51100000000E-03 0.  1.
         11   -1    0    0    0    0 -0.00000000000E+00 -0.00000000000E+00 -0.45593999997E+02  0.45594000000E+02  0.51100000000E-03 0. -1.
    9900012    2    1    2    0    0 -0.50443425408E+00  0.10648552480E+01 -0.67963289039E-01  0.90007750186E+02  0.90000011688E+02 0.  0.
         12    1    1    2    0    0  0.50443425408E+00 -0.10648552480E+01  0.67963289039E-01  0.11802498145E+01  0.00000000000E+00 0. -1.
         11    1    3    3    0    0  0.18228296858E+01 -0.36418084437E+02  0.12096898076E+02  0.38417893298E+02  0.51100000000E-03 0. -1.
        -11    1    3    3    0    0  0.82333991916E+01  0.17695554196E+01  0.58157165582E+01  0.10234390455E+02  0.51100000000E-03 0.  1.
        -12    1    3    3    0    0 -0.10560663131E+02  0.35713384265E+02 -0.17980577923E+02  0.41355466433E+02  0.00000000000E+00 0.  1.
</event>
<event>
 7    1  0.2090370E-015  0.9000775E+02  0.7816164E-02  0.1186339E+00
        -11   -1    0    0    0    0  0.00000000000E+00  0.00000000000E+00  0.45593999997E+02  0.45594000000E+02  0.51100000000E-03 0. -1.
         11   -1    0    0    0    0 -0.00000000000E+00 -0.00000000000E+00 -0.45593999997E+02  0.45594000000E+02  0.51100000000E-03 0.  1.
    9900012    2    1    2    0    0  0.10487170808E+01 -0.52133383338E+00  0.14627611924E+00  0.90007748677E+02  0.90000010160E+02 0.  0.
         12    1    1    2    0    0 -0.10487170808E+01  0.52133383338E+00 -0.14627611924E+00  0.11802513226E+01  0.00000000000E+00 0. -1.
         11    1    3    3    0    0 -0.32163916662E+01  0.84305748002E+01 -0.13293945745E+01  0.91206938885E+01  0.51100000000E-03 0. -1.
        -11    1    3    3    0    0  0.41187099487E+02  0.25366195001E+01 -0.53851797505E+01  0.41615042519E+02  0.51100000000E-03 0.  1.
         12    1    3    3    0    0 -0.36921990740E+02 -0.11488528134E+02  0.68608504443E+01  0.39272012270E+02  0.00000000000E+00 0. -1.
</event>
<event>
 7    1  0.2090370E-015  0.9000772E+02  0.7816164E-02  0.1186339E+00
        -11   -1    0    0    0    0  0.00000000000E+00  0.00000000000E+00  0.45593999997E+02  0.45594000000E+02  0.51100000000E-03 0.  1.
         11   -1    0    0    0    0 -0.00000000000E+00 -0.00000000000E+00 -0.45593999997E+02  0.45594000000E+02  0.51100000000E-03 0. -1.
    9900012    2    1    2    0    0  0.15020711335E-01 -0.11770684306E+01  0.85703273148E-01  0.90007720049E+02  0.89999981153E+02 0.  0.
         12    1    1    2    0    0 -0.15020711335E-01  0.11770684306E+01 -0.85703273148E-01  0.11802799512E+01  0.00000000000E+00 0. -1.
         11    1    3    3    0    0  0.27939508357E+02 -0.55392000303E+00 -0.13195797554E+02  0.30903916061E+02  0.51100000000E-03 0. -1.
        -11    1    3    3    0    0 -0.54854834125E+01  0.10747731565E+01 -0.18970660367E+02  0.19777047824E+02  0.51100000000E-03 0.  1.
        -12    1    3    3    0    0 -0.22439004233E+02 -0.16979215841E+01  0.32252161194E+02  0.39326756164E+02  0.00000000000E+00 0.  1.
</event>
<event>
 7    1  0.2090370E-015  0.9000780E+02  0.7816164E-02  0.1186339E+00
        -11   -1    0    0    0    0  0.00000000000E+00  0.00000000000E+00  0.45593999997E+02  0.45594000000E+02  0.51100000000E-03 0. -1.
         11   -1    0    0    0    0 -0.00000000000E+00 -0.00000000000E+00 -0.45593999997E+02  0.45594000000E+02  0.51100000000E-03 0.  1.
    9900012    2    1    2    0    0 -0.10577126113E+01  0.40270493420E+00  0.33459314386E+00  0.90007796711E+02  0.90000058827E+02 0.  0.
         12    1    1    2    0    0  0.10577126113E+01 -0.40270493420E+00 -0.33459314386E+00  0.11802032893E+01  0.00000000000E+00 0. -1.
         11    1    3    3    0    0 -0.10745197198E+02  0.30818928191E+01  0.30901776692E+02  0.32861483977E+02  0.51100000000E-03 0. -1.
        -11    1    3    3    0    0 -0.54043616438E+01  0.89802509084E+01  0.86163829539E+01  0.13568127602E+02  0.51100000000E-03 0.  1.
        -12    1    3    3    0    0  0.15091846230E+02 -0.11659438793E+02 -0.39183566502E+02  0.43578185132E+02  0.00000000000E+00 0.  1.
</event>
<event>
 7    1  0.2090370E-015  0.9000758E+02  0.7816164E-02  0.1186339E+00
        -11   -1    0    0    0    0  0.00000000000E+00  0.00000000000E+00  0.45593999997E+02  0.45594000000E+02  0.51100000000E-03 0. -1.
         11   -1    0    0    0    0 -0.00000000000E+00 -0.00000000000E+00 -0.45593999997E+02  0.45594000000E+02  0.51100000000E-03 0.  1.
    9900012    2    1    2    0    0 -0.17170356574E+00 -0.46708088726E+00 -0.10703997170E+01  0.90007575405E+02  0.89999834600E+02 0.  0.
         12    1    1    2    0    0  0.17170356574E+00  0.46708088726E+00  0.10703997170E+01  0.11804245948E+01  0.00000000000E+00 0. -1.
         11    1    3    3    0    0  0.10599083439E+02  0.13511987711E+02  0.26783660514E+02  0.31816329965E+02  0.51100000000E-03 0. -1.
        -11    1    3    3    0    0 -0.16041011677E+02  0.14783543700E+01  0.85893993974E+01  0.18255885888E+02  0.51100000000E-03 0.  1.
        -12    1    3    3    0    0  0.52702246726E+01 -0.15457422968E+02 -0.36443459629E+02  0.39935359553E+02  0.00000000000E+00 0.  1.
</event>
<event>
 7    1  0.2090370E-015  0.9000779E+02  0.7816164E-02  0.1186339E+00
        -11   -1    0    0    0    0  0.00000000000E+00  0.00000000000E+00  0.45593999997E+02  0.45594000000E+02  0.51100000000E-03 0.  1.
         11   -1    0    0    0    0 -0.00000000000E+00 -0.00000000000E+00 -0.45593999997E+02  0.45594000000E+02  0.51100000000E-03 0. -1.
    9900012    2    1    2    0    0 -0.11190809217E+01 -0.37140136142E+00 -0.51129751570E-01  0.90007790132E+02  0.90000052162E+02 0.  0.
         12    1    1    2    0    0  0.11190809217E+01  0.37140136142E+00  0.51129751570E-01  0.11802098678E+01  0.00000000000E+00 0. -1.
         11    1    3    3    0    0  0.35841727016E+02  0.71314525612E+01 -0.15687537519E+02  0.39769156953E+02  0.51100000000E-03 0. -1.
        -11    1    3    3    0    0  0.27984306125E+01 -0.43034256140E+01  0.81839876292E+01  0.96606593815E+01  0.51100000000E-03 0.  1.
        -12    1    3    3    0    0 -0.39759238550E+02 -0.31994283086E+01  0.74524201385E+01  0.40577973797E+02  0.00000000000E+00 0.  1.
</event>
<event>
 7    1  0.2090370E-015  0.9000786E+02  0.7816164E-02  0.1186339E+00
        -11   -1    0    0    0    0  0.00000000000E+00  0.00000000000E+00  0.45593999997E+02  0.45594000000E+02  0.51100000000E-03 0.  1.
         11   -1    0    0    0    0 -0.00000000000E+00 -0.00000000000E+00 -0.45593999997E+02  0.45594000000E+02  0.51100000000E-03 0. -1.
    9900012    2    1    2    0    0 -0.26064681442E+00  0.76536955247E+00  0.85964957867E+00  0.90007862418E+02  0.90000125402E+02 0.  0.
         12    1    1    2    0    0  0.26064681442E+00 -0.76536955247E+00 -0.85964957867E+00  0.11801375817E+01  0.00000000000E+00 0. -1.
         11    1    3    3    0    0  0.12681376365E+02 -0.25661715894E+02 -0.20991517897E+02  0.35496264494E+02  0.51100000000E-03 0. -1.
        -11    1    3    3    0    0 -0.35032235944E+01 -0.54087426948E+01 -0.77139162154E+01  0.10051446499E+02  0.51100000000E-03 0.  1.
        -12    1    3    3    0    0 -0.94387995847E+01  0.31835828141E+02  0.29565083691E+02  0.44460151425E+02  0.00000000000E+00 0.  1.
</event>
<event>
 7    1  0.2090370E-015  0.9000791E+02  0.7816164E-02  0.1186339E+00
        -11   -1    0    0    0    0  0.00000000000E+00  0.00000000000E+00  0.45593999997E+02  0.45594000000E+02  0.51100000000E-03 0. -1.
         11   -1    0    0    0    0 -0.00000000000E+00 -0.00000000000E+00 -0.45593999997E+02  0.45594000000E+02  0.51100000000E-03 0.  1.
    9900012    2    1    2    0    0  0.32455018614E+00 -0.10831910863E+01 -0.33761851818E+00  0.90007905929E+02  0.90000169487E+02 0.  0.
         12    1    1    2    0    0 -0.32455018614E+00  0.10831910863E+01  0.33761851818E+00  0.11800940711E+01  0.00000000000E+00 0. -1.
         11    1    3    3    0    0  0.24065430577E+01  0.14590436920E+01 -0.11034432492E+02  0.11387666954E+02  0.51100000000E-03 0. -1.
        -11    1    3    3    0    0  0.18066284011E+02  0.21600312404E+02 -0.20106727413E+02  0.34601222542E+02  0.51100000000E-03 0.  1.
         12    1    3    3    0    0 -0.20148276882E+02 -0.24142547182E+02  0.30803541386E+02  0.44019016433E+02  0.00000000000E+00 0. -1.
</event>
<event>
 7    1  0.2090370E-015  0.9000789E+02  0.7816164E-02  0.1186339E+00
        -11   -1    0    0    0    0  0.00000000000E+00  0.00000000000E+00  0.45593999997E+02  0.45594000000E+02  0.51100000000E-03 0. -1.
         11   -1    0    0    0    0 -0.00000000000E+00 -0.00000000000E+00 -0.45593999997E+02  0.45594000000E+02  0.51100000000E-03 0.  1.
    9900012    2    1    2    0    0  0.32200692272E+00  0.11350151038E+01 -0.26668976605E-01  0.90007890268E+02  0.90000153620E+02 0.  0.
         12    1    1    2    0    0 -0.32200692272E+00 -0.11350151038E+01  0.26668976605E-01  0.11801097315E+01  0.00000000000E+00 0. -1.
         11    1    3    3    0    0  0.81030476546E+01  0.32207528917E+01 -0.44976047022E+01  0.98112730469E+01  0.51100000000E-03 0. -1.
        -11    1    3    3    0    0 -0.38196431243E+02  0.67885674623E+01 -0.16546000405E+02  0.42176084901E+02  0.51100000000E-03 0.  1.
         12    1    3    3    0    0  0.30415390511E+02 -0.88743052502E+01  0.21016936131E+02  0.38020532321E+02  0.00000000000E+00 0. -1.
</event>
<event>
 7    1  0.2090370E-015  0.9000775E+02  0.7816164E-02  0.1186339E+00
        -11   -1    0    0    0    0  0.00000000000E+00  0.00000000000E+00  0.45593999997E+02  0.45594000000E+02  0.51100000000E-03 0. -1.
         11   -1    0    0    0    0 -0.00000000000E+00 -0.00000000000E+00 -0.45593999997E+02  0.45594000000E+02  0.51100000000E-03 0.  1.
    9900012    2    1    2    0    0 -0.88211277618E+00 -0.55835348576E+00  0.55054465901E+00  0.90007753845E+02  0.90000015396E+02 0.  0.
         12    1    1    2    0    0  0.88211277618E+00  0.55835348576E+00 -0.55054465901E+00  0.11802461551E+01  0.00000000000E+00 0. -1.
         11    1    3    3    0    0  0.95217369689E+01  0.20789171918E+01  0.15383466164E+01  0.98667057405E+01  0.51100000000E-03 0. -1.
        -11    1    3    3    0    0 -0.26650964175E+02 -0.18432498195E+02 -0.29431433823E+02  0.43774880677E+02  0.51100000000E-03 0.  1.
         12    1    3    3    0    0  0.16247114430E+02  0.15795227518E+02  0.28443631865E+02  0.36366167427E+02  0.00000000000E+00 0. -1.
</event>
<event>
 7    1  0.2090370E-015  0.9000777E+02  0.7816164E-02  0.1186339E+00
        -11   -1    0    0    0    0  0.00000000000E+00  0.00000000000E+00  0.45593999997E+02  0.45594000000E+02  0.51100000000E-03 0.  1.
         11   -1    0    0    0    0 -0.00000000000E+00 -0.00000000000E+00 -0.45593999997E+02  0.45594000000E+02  0.51100000000E-03 0. -1.
    9900012    2    1    2    0    0  0.53663304622E+00  0.10208418452E+01  0.25068715868E+00  0.90007772416E+02  0.90000034212E+02 0.  0.
         12    1    1    2    0    0 -0.53663304622E+00 -0.10208418452E+01 -0.25068715868E+00  0.11802275843E+01  0.00000000000E+00 0. -1.
         11    1    3    3    0    0  0.93900300415E+01  0.53675742217E+01 -0.90572130495E+00  0.10853748134E+02  0.51100000000E-03 0. -1.
        -11    1    3    3    0    0  0.21756062018E+01  0.18862837645E+02 -0.31997692520E+02  0.37207421749E+02  0.51100000000E-03 0.  1.
         12    1    3    3    0    0 -0.11029003197E+02 -0.23209570021E+02  0.33154100983E+02  0.41946602533E+02  0.00000000000E+00 0. -1.
</event>
<event>
 7    1  0.2090370E-015  0.9000780E+02  0.7816164E-02  0.1186339E+00
        -11   -1    0    0    0    0  0.00000000000E+00  0.00000000000E+00  0.45593999997E+02  0.45594000000E+02  0.51100000000E-03 0.  1.
         11   -1    0    0    0    0 -0.00000000000E+00 -0.00000000000E+00 -0.45593999997E+02  0.45594000000E+02  0.51100000000E-03 0. -1.
    9900012    2    1    2    0    0  0.20432021936E+00 -0.83850872649E+00  0.80499504035E+00  0.90007804825E+02  0.90000067049E+02 0.  0.
         12    1    1    2    0    0 -0.20432021936E+00  0.83850872649E+00 -0.80499504035E+00  0.11801951751E+01  0.00000000000E+00 0. -1.
         11    1    3    3    0    0 -0.41663511264E+01 -0.26550700783E+02 -0.28544490086E+02  0.39205689744E+02  0.51100000000E-03 0. -1.
        -11    1    3    3    0    0  0.12859515671E+02  0.52374630491E+01 -0.17180846146E+00  0.13886240704E+02  0.51100000000E-03 0.  1.
        -12    1    3    3    0    0 -0.84888443251E+01  0.20474729008E+02  0.29521293588E+02  0.36915874377E+02  0.00000000000E+00 0.  1.
</event>
<event>
 7    1  0.2090370E-015  0.9000764E+02  0.7816164E-02  0.1186339E+00
        -11   -1    0    0    0    0  0.00000000000E+00  0.00000000000E+00  0.45593999997E+02  0.45594000000E+02  0.51100000000E-03 0. -1.
         11   -1    0    0    0    0 -0.00000000000E+00 -0.00000000000E+00 -0.45593999997E+02  0.45594000000E+02  0.51100000000E-03 0.  1.
    9900012    2    1    2    0    0  0.85557029160E+00  0.14242116851E+00 -0.80060272973E+00  0.90007640290E+02  0.89999900342E+02 0.  0.
         12    1    1    2    0    0 -0.85557029160E+00 -0.14242116851E+00  0.80060272973E+00  0.11803597096E+01  0.00000000000E+00 0. -1.
         11    1    3    3    0    0  0.75874609845E+01 -0.31146952352E+01  0.39049892864E+01  0.90840427226E+01  0.51100000000E-03 0. -1.
        -11    1    3    3    0    0 -0.24962076784E+02 -0.23117718494E+02  0.20867255157E+02  0.39912109990E+02  0.51100000000E-03 0.  1.
         12    1    3    3    0    0  0.18230186092E+02  0.26374834898E+02 -0.25572847173E+02  0.41011487578E+02  0.00000000000E+00 0. -1.
</event>
<event>
 7    1  0.2090370E-015  0.9000775E+02  0.7816164E-02  0.1186339E+00
        -11   -1    0    0    0    0  0.00000000000E+00  0.00000000000E+00  0.45593999997E+02  0.45594000000E+02  0.51100000000E-03 0.  1.
         11   -1    0    0    0    0 -0.00000000000E+00 -0.00000000000E+00 -0.45593999997E+02  0.45594000000E+02  0.51100000000E-03 0. -1.
    9900012    2    1    2    0    0 -0.91813527325E+00  0.67368530267E+00 -0.31010732747E+00  0.90007749678E+02  0.90000011174E+02 0.  0.
         12    1    1    2    0    0  0.91813527325E+00 -0.67368530267E+00  0.31010732747E+00  0.11802503216E+01  0.00000000000E+00 0. -1.
         11    1    3    3    0    0 -0.55499502281E+01 -0.39550707054E+01 -0.19531069600E+01  0.70893694274E+01  0.51100000000E-03 0. -1.
        -11    1    3    3    0    0 -0.88430673633E+01  0.15594344430E+02  0.38335916539E+02  0.42320514124E+02  0.51100000000E-03 0.  1.
         12    1    3    3    0    0  0.13474882318E+02 -0.10965588422E+02 -0.36692916906E+02  0.40597866127E+02  0.00000000000E+00 0. -1.
</event>
<event>
 7    1  0.2090370E-015  0.9000774E+02  0.7816164E-02  0.1186339E+00
        -11   -1    0    0    0    0  0.00000000000E+00  0.00000000000E+00  0.45593999997E+02  0.45594000000E+02  0.51100000000E-03 0.  1.
         11   -1    0    0    0    0 -0.00000000000E+00 -0.00000000000E+00 -0.45593999997E+02  0.45594000000E+02  0.51100000000E-03 0. -1.
    9900012    2    1    2    0    0  0.62304187059E+00 -0.64168749597E+00 -0.77011069489E+00  0.90007739648E+02  0.90000001012E+02 0.  0.
         12    1    1    2    0    0 -0.62304187059E+00  0.64168749597E+00  0.77011069489E+00  0.11802603515E+01  0.00000000000E+00 0. -1.
         11    1    3    3    0    0 -0.53453912504E+01 -0.68637638863E+01  0.11552565030E+02  0.14461888581E+02  0.51100000000E-03 0. -1.
        -11    1    3    3    0    0 -0.22366690801E+02  0.20643476705E+01  0.21592143552E+02  0.31156878087E+02  0.51100000000E-03 0.  1.
         12    1    3    3    0    0  0.28335123922E+02  0.41577287198E+01 -0.33914819276E+02  0.44388972981E+02  0.00000000000E+00 0. -1.
</event>
<event>
 7    1  0.2090370E-015  0.9000776E+02  0.7816164E-02  0.1186339E+00
        -11   -1    0    0    0    0  0.00000000000E+00  0.00000000000E+00  0.45593999997E+02  0.45594000000E+02  0.51100000000E-03 0.  1.
         11   -1    0    0    0    0 -0.00000000000E+00 -0.00000000000E+00 -0.45593999997E+02  0.45594000000E+02  0.51100000000E-03 0. -1.
    9900012    2    1    2    0    0  0.92499120814E+00 -0.72984003414E+00  0.68516180178E-01  0.90007758636E+02  0.90000020250E+02 0.  0.
         12    1    1    2    0    0 -0.92499120814E+00  0.72984003414E+00 -0.68516180178E-01  0.11802413641E+01  0.00000000000E+00 0. -1.
         11    1    3    3    0    0  0.56670764479E+01 -0.77351326245E+01  0.10274255638E+01  0.96438392632E+01  0.51100000000E-03 0. -1.
        -11    1    3    3    0    0  0.22919408282E+02 -0.16841608898E+02  0.23090760046E+02  0.36634986912E+02  0.51100000000E-03 0.  1.
         12    1    3    3    0    0 -0.27661493522E+02  0.23846901488E+02 -0.24049669430E+02  0.43728932461E+02  0.00000000000E+00 0. -1.
</event>
<event>
 7    1  0.2090370E-015  0.9000773E+02  0.7816164E-02  0.1186339E+00
        -11   -1    0    0    0    0  0.00000000000E+00  0.00000000000E+00  0.45593999997E+02  0.45594000000E+02  0.51100000000E-03 0.  1.
         11   -1    0    0    0    0 -0.00000000000E+00 -0.00000000000E+00 -0.45593999997E+02  0.45594000000E+02  0.51100000000E-03 0. -1.
    9900012    2    1    2    0    0  0.16966484722E+00 -0.96751746185E+00  0.65434419591E+00  0.90007727775E+02  0.89999988981E+02 0.  0.
         12    1    1    2    0    0 -0.16966484722E+00  0.96751746185E+00 -0.65434419591E+00  0.11802722254E+01  0.00000000000E+00 0. -1.
         11    1    3    3    0    0  0.88877734438E+00  0.10994632424E+02  0.26312837710E+00  0.11033635127E+02  0.51100000000E-03 0. -1.
        -11    1    3    3    0    0 -0.17685669818E+02  0.29375470669E+02  0.32112741630E+00  0.34290003165E+02  0.51100000000E-03 0.  1.
         12    1    3    3    0    0  0.16966557321E+02 -0.41337620556E+02  0.70088402509E-01  0.44684089483E+02  0.00000000000E+00 0. -1.
</event>
<event>
 7    1  0.2624924E-015  0.9000757E+02  0.7816164E-02  0.1186339E+00
        -11   -1    0    0    0    0  0.00000000000E+00  0.00000000000E+00  0.45593999997E+02  0.45594000000E+02  0.51100000000E-03 0. -1.
         11   -1    0    0    0    0 -0.00000000000E+00 -0.00000000000E+00 -0.45593999997E+02  0.45594000000E+02  0.51100000000E-03 0.  1.
    9900012    2    1    2    0    0 -0.83021174550E-02  0.10044124605E+01 -0.62008873898E+00  0.90007566452E+02  0.89999825529E+02 0.  0.
         12    1    1    2    0    0  0.83021174550E-02 -0.10044124605E+01  0.62008873898E+00  0.11804335475E+01  0.00000000000E+00 0. -1.
         11    1    3    3    0    0  0.33052417049E+02  0.97272960973E+01  0.14772455478E+02  0.37487437939E+02  0.51100000000E-03 0. -1.
        -11    1    3    3    0    0  0.68780024634E+01 -0.65811207913E+01  0.37865591619E+00  0.95268803561E+01  0.51100000000E-03 0.  1.
        -12    1    3    3    0    0 -0.39938721630E+02 -0.21417628455E+01 -0.15771200133E+02  0.42993248157E+02  0.00000000000E+00 0.  1.
</event>
<event>
 7    1  0.2090370E-015  0.9000773E+02  0.7816164E-02  0.1186339E+00
        -11   -1    0    0    0    0  0.00000000000E+00  0.00000000000E+00  0.45593999997E+02  0.45594000000E+02  0.51100000000E-03 0.  1.
         11   -1    0    0    0    0 -0.00000000000E+00 -0.00000000000E+00 -0.45593999997E+02  0.45594000000E+02  0.51100000000E-03 0. -1.
    9900012    2    1    2    0    0  0.36936257486E-01  0.11722522858E+01 -0.13224476892E+00  0.90007733764E+02  0.89999995050E+02 0.  0.
         12    1    1    2    0    0 -0.36936257486E-01 -0.11722522858E+01  0.13224476892E+00  0.11802662359E+01  0.00000000000E+00 0. -1.
         11    1    3    3    0    0  0.10245213462E+02 -0.33527436774E+01 -0.28044586057E+01  0.11138683826E+02  0.51100000000E-03 0. -1.
        -11    1    3    3    0    0  0.32087860938E+02  0.89938693410E+01 -0.94595616056E+01  0.34641071163E+02  0.51100000000E-03 0.  1.
         12    1    3    3    0    0 -0.42296138143E+02 -0.44688733778E+01  0.12131775442E+02  0.44227978774E+02  0.00000000000E+00 0. -1.
</event>
<event>
 7    1  0.2090370E-015  0.9000774E+02  0.7816164E-02  0.1186339E+00
        -11   -1    0    0    0    0  0.00000000000E+00  0.00000000000E+00  0.45593999997E+02  0.45594000000E+02  0.51100000000E-03 0. -1.
         11   -1    0    0    0    0 -0.00000000000E+00 -0.00000000000E+00 -0.45593999997E+02  0.45594000000E+02  0.51100000000E-03 0.  1.
    9900012    2    1    2    0    0 -0.89300499743E+00 -0.50634793237E+00  0.58238025098E+00  0.90007740321E+02  0.90000001693E+02 0.  0.
         12    1    1    2    0    0  0.89300499743E+00  0.50634793237E+00 -0.58238025098E+00  0.11802596794E+01  0.00000000000E+00 0. -1.
         11    1    3    3    0    0  0.52976430763E+00  0.75224247034E+01 -0.51963734675E+01  0.91580467958E+01  0.51100000000E-03 0. -1.
        -11    1    3    3    0    0 -0.62136181790E+01  0.23152116275E+02 -0.26487504375E+02  0.35724185466E+02  0.51100000000E-03 0.  1.
        -12    1    3    3    0    0  0.47908488739E+01 -0.31180888911E+02  0.32266258094E+02  0.45125508059E+02  0.00000000000E+00 0.  1.
</event>
<event>
 7    1  0.2090370E-015  0.9000772E+02  0.7816164E-02  0.1186339E+00
        -11   -1    0    0    0    0  0.00000000000E+00  0.00000000000E+00  0.45593999997E+02  0.45594000000E+02  0.51100000000E-03 0.  1.
         11   -1    0    0    0    0 -0.00000000000E+00 -0.00000000000E+00 -0.45593999997E+02  0.45594000000E+02  0.51100000000E-03 0. -1.
    9900012    2    1    2    0    0  0.65751369087E+00  0.34221822771E+00  0.91849304547E+00  0.90007717388E+02  0.89999978458E+02 0.  0.
         12    1    1    2    0    0 -0.65751369087E+00 -0.34221822771E+00 -0.91849304547E+00  0.11802826118E+01  0.00000000000E+00 0. -1.
         11    1    3    3    0    0  0.72144616490E+00 -0.95257092988E+01  0.43556862133E+01  0.10499124957E+02  0.51100000000E-03 0. -1.
        -11    1    3    3    0    0 -0.14224565692E+02 -0.13330319411E+02  0.30396327954E+02  0.36110558540E+02  0.51100000000E-03 0.  1.
         12    1    3    3    0    0  0.14160633218E+02  0.23198246938E+02 -0.33833521122E+02  0.43398033891E+02  0.00000000000E+00 0. -1.
</event>
<event>
 7    1  0.2090370E-015  0.9000793E+02  0.7816164E-02  0.1186339E+00
        -11   -1    0    0    0    0  0.00000000000E+00  0.00000000000E+00  0.45593999997E+02  0.45594000000E+02  0.51100000000E-03 0. -1.
         11   -1    0    0    0    0 -0.00000000000E+00 -0.00000000000E+00 -0.45593999997E+02  0.45594000000E+02  0.51100000000E-03 0.  1.
    9900012    2    1    2    0    0 -0.11547025795E+01  0.23871506020E+00  0.47341426007E-01  0.90007930452E+02  0.90000194334E+02 0.  0.
         12    1    1    2    0    0  0.11547025795E+01 -0.23871506020E+00 -0.47341426007E-01  0.11800695478E+01  0.00000000000E+00 0. -1.
         11    1    3    3    0    0  0.87835758752E+01  0.28484034016E+02  0.27419955908E+02  0.40501177529E+02  0.51100000000E-03 0. -1.
        -11    1    3    3    0    0 -0.55432650150E+01 -0.27893886317E+01  0.50858434414E+01  0.80233583827E+01  0.51100000000E-03 0.  1.
        -12    1    3    3    0    0 -0.43950134397E+01 -0.25455930324E+02 -0.32458457924E+02  0.41483394540E+02  0.00000000000E+00 0.  1.
</event>
<event>
 7    1  0.2090370E-015  0.9000768E+02  0.7816164E-02  0.1186339E+00
        -11   -1    0    0    0    0  0.00000000000E+00  0.00000000000E+00  0.45593999997E+02  0.45594000000E+02  0.51100000000E-03 0.  1.
         11   -1    0    0    0    0 -0.00000000000E+00 -0.00000000000E+00 -0.45593999997E+02  0.45594000000E+02  0.51100000000E-03 0. -1.
    9900012    2    1    2    0    0  0.40935877461E+00  0.72051221755E+00  0.84050413641E+00  0.90007678152E+02  0.89999938703E+02 0.  0.
         12    1    1    2    0    0 -0.40935877461E+00 -0.72051221755E+00 -0.84050413641E+00  0.11803218482E+01  0.00000000000E+00 0. -1.
         11    1    3    3    0    0  0.84312177678E+01 -0.15747558640E+01 -0.11905492239E+01  0.86592549792E+01  0.51100000000E-03 0. -1.
        -11    1    3    3    0    0 -0.24748632298E+00  0.18450043201E+02  0.37395055270E+02  0.41699586359E+02  0.51100000000E-03 0.  1.
         12    1    3    3    0    0 -0.77743726702E+01 -0.16154775120E+02 -0.35364001910E+02  0.39648836813E+02  0.00000000000E+00 0. -1.
</event>
<event>
 7    1  0.2090370E-015  0.9000771E+02  0.7816164E-02  0.1186339E+00
        -11   -1    0    0    0    0  0.00000000000E+00  0.00000000000E+00  0.45593999997E+02  0.45594000000E+02  0.51100000000E-03 0. -1.
         11   -1    0    0    0    0 -0.00000000000E+00 -0.00000000000E+00 -0.45593999997E+02  0.45594000000E+02  0.51100000000E-03 0.  1.
    9900012    2    1    2    0    0 -0.38638680909E+00 -0.37342938224E+00 -0.10508708752E+01  0.90007714498E+02  0.89999975529E+02 0.  0.
         12    1    1    2    0    0  0.38638680909E+00  0.37342938224E+00  0.10508708752E+01  0.11802855020E+01  0.00000000000E+00 0. -1.
         11    1    3    3    0    0  0.76484711818E+01 -0.18897607941E+01  0.98641152681E+01  0.12624225820E+02  0.51100000000E-03 0. -1.
        -11    1    3    3    0    0 -0.31244663991E+02 -0.18644068136E+02 -0.24404553638E+02  0.43811100683E+02  0.51100000000E-03 0.  1.
         12    1    3    3    0    0  0.23209806000E+02  0.20160399547E+02  0.13489567495E+02  0.33572387995E+02  0.00000000000E+00 0. -1.
</event>
<event>
 7    1  0.2090370E-015  0.9000763E+02  0.7816164E-02  0.1186339E+00
        -11   -1    0    0    0    0  0.00000000000E+00  0.00000000000E+00  0.45593999997E+02  0.45594000000E+02  0.51100000000E-03 0.  1.
         11   -1    0    0    0    0 -0.00000000000E+00 -0.00000000000E+00 -0.45593999997E+02  0.45594000000E+02  0.51100000000E-03 0. -1.
    9900012    2    1    2    0    0  0.79016320406E+00  0.82269865090E+00  0.30344813765E+00  0.90007630680E+02  0.89999890605E+02 0.  0.
         12    1    1    2    0    0 -0.79016320406E+00 -0.82269865090E+00 -0.30344813765E+00  0.11803693200E+01  0.00000000000E+00 0. -1.
         11    1    3    3    0    0  0.97595317676E+01  0.32478059779E+01  0.16184526095E+01  0.10412304889E+02  0.51100000000E-03 0. -1.
        -11    1    3    3    0    0  0.27276559651E+02  0.17947308216E+01  0.23017743053E+02  0.35735812019E+02  0.51100000000E-03 0.  1.
         12    1    3    3    0    0 -0.36245928215E+02 -0.42198381486E+01 -0.24332747525E+02  0.43859513772E+02  0.00000000000E+00 0. -1.
</event>
<event>
 7    1  0.2090370E-015  0.9000776E+02  0.7816164E-02  0.1186339E+00
        -11   -1    0    0    0    0  0.00000000000E+00  0.00000000000E+00  0.45593999997E+02  0.45594000000E+02  0.51100000000E-03 0.  1.
         11   -1    0    0    0    0 -0.00000000000E+00 -0.00000000000E+00 -0.45593999997E+02  0.45594000000E+02  0.51100000000E-03 0. -1.
    9900012    2    1    2    0    0 -0.11265738001E+01 -0.27047617170E-01 -0.35079451302E+00  0.90007764053E+02  0.90000025738E+02 0.  0.
         12    1    1    2    0    0  0.11265738001E+01  0.27047617170E-01  0.35079451302E+00  0.11802359472E+01  0.00000000000E+00 0. -1.
         11    1    3    3    0    0 -0.29229319123E+01  0.88573946927E+01  0.19518301712E+01  0.95292503894E+01  0.51100000000E-03 0. -1.
        -11    1    3    3    0    0 -0.29084616877E+02 -0.17750995936E+02  0.21679855189E+02  0.40385999021E+02  0.51100000000E-03 0.  1.
         12    1    3    3    0    0  0.30880974989E+02  0.88665536262E+01 -0.23982479873E+02  0.40092514643E+02  0.00000000000E+00 0. -1.
</event>
<event>
 7    1  0.2090370E-015  0.9000765E+02  0.7816164E-02  0.1186339E+00
        -11   -1    0    0    0    0  0.00000000000E+00  0.00000000000E+00  0.45593999997E+02  0.45594000000E+02  0.51100000000E-03 0. -1.
         11   -1    0    0    0    0 -0.00000000000E+00 -0.00000000000E+00 -0.45593999997E+02  0.45594000000E+02  0.51100000000E-03 0.  1.
    9900012    2    1    2    0    0  0.54003523105E+00 -0.96882563183E+00 -0.40367801220E+00  0.90007653825E+02  0.89999914055E+02 0.  0.
         12    1    1    2    0    0 -0.54003523105E+00  0.96882563183E+00  0.40367801220E+00  0.11803461752E+01  0.00000000000E+00 0. -1.
         11    1    3    3    0    0 -0.88237597670E+01  0.18094384243E+00  0.26382646715E+01  0.92115100737E+01  0.51100000000E-03 0. -1.
        -11    1    3    3    0    0  0.26328901144E+02  0.29508937593E+02  0.13843521068E+02  0.41900256672E+02  0.51100000000E-03 0.  1.
         12    1    3    3    0    0 -0.16965106146E+02 -0.30658707067E+02 -0.16885463751E+02  0.38895887079E+02  0.00000000000E+00 0. -1.
</event>
<event>
 7    1  0.2090370E-015  0.9000764E+02  0.7816164E-02  0.1186339E+00
        -11   -1    0    0    0    0  0.00000000000E+00  0.00000000000E+00  0.45593999997E+02  0.45594000000E+02  0.51100000000E-03 0. -1.
         11   -1    0    0    0    0 -0.00000000000E+00 -0.00000000000E+00 -0.45593999997E+02  0.45594000000E+02  0.51100000000E-03 0.  1.
    9900012    2    1    2    0    0  0.23866066116E+00 -0.11030296088E+01 -0.34586162703E+00  0.90007638405E+02  0.89999898432E+02 0.  0.
         12    1    1    2    0    0 -0.23866066116E+00  0.11030296088E+01  0.34586162703E+00  0.11803615947E+01  0.00000000000E+00 0. -1.
         11    1    3    3    0    0 -0.15746697397E+02 -0.71451161358E+01  0.17042437994E+02  0.24278712004E+02  0.51100000000E-03 0. -1.
        -11    1    3    3    0    0 -0.20309227666E+02  0.10117021394E+02  0.45254273676E+01  0.23136515369E+02  0.51100000000E-03 0.  1.
         12    1    3    3    0    0  0.36294585724E+02 -0.40749348668E+01 -0.21913726989E+02  0.42592411033E+02  0.00000000000E+00 0. -1.
</event>
<event>
 7    1  0.2090370E-015  0.9000781E+02  0.7816164E-02  0.1186339E+00
        -11   -1    0    0    0    0  0.00000000000E+00  0.00000000000E+00  0.45593999997E+02  0.45594000000E+02  0.51100000000E-03 0.  1.
         11   -1    0    0    0    0 -0.00000000000E+00 -0.00000000000E+00 -0.45593999997E+02  0.45594000000E+02  0.51100000000E-03 0. -1.
    9900012    2    1    2    0    0  0.11237490671E+01 -0.73262238269E-01  0.35307748381E+00  0.90007812290E+02  0.90000074612E+02 0.  0.
         12    1    1    2    0    0 -0.11237490671E+01  0.73262238269E-01 -0.35307748381E+00  0.11801877101E+01  0.00000000000E+00 0. -1.
         11    1    3    3    0    0 -0.77646732306E+01  0.45024014363E+01  0.25354014245E+01  0.93268445745E+01  0.51100000000E-03 0. -1.
        -11    1    3    3    0    0 -0.52011978778E+01 -0.38795017757E+00  0.37760727680E+02  0.38119227692E+02  0.51100000000E-03 0.  1.
         12    1    3    3    0    0  0.14089620176E+02 -0.41877134970E+01 -0.39943051620E+02  0.42561740023E+02  0.00000000000E+00 0. -1.
</event>
<event>
 7    1  0.2090370E-015  0.9000773E+02  0.7816164E-02  0.1186339E+00
        -11   -1    0    0    0    0  0.00000000000E+00  0.00000000000E+00  0.45593999997E+02  0.45594000000E+02  0.51100000000E-03 0.  1.
         11   -1    0    0    0    0 -0.00000000000E+00 -0.00000000000E+00 -0.45593999997E+02  0.45594000000E+02  0.51100000000E-03 0. -1.
    9900012    2    1    2    0    0 -0.11765203338E+01  0.34063043490E-01 -0.87570978073E-01  0.90007733478E+02  0.89999994760E+02 0.  0.
         12    1    1    2    0    0  0.11765203338E+01 -0.34063043490E-01  0.87570978073E-01  0.11802665221E+01  0.00000000000E+00 0. -1.
         11    1    3    3    0    0  0.39860012868E+02  0.88146622139E+01 -0.16543674189E+01  0.40856527356E+02  0.51100000000E-03 0. -1.
        -11    1    3    3    0    0 -0.34422635710E+01  0.63145535675E+01  0.45820997025E+01  0.85275086158E+01  0.51100000000E-03 0.  1.
        -12    1    3    3    0    0 -0.37594269631E+02 -0.15095152738E+02 -0.30153032617E+01  0.40623697506E+02  0.00000000000E+00 0.  1.
</event>
<event>
 7    1  0.2090370E-015  0.9000774E+02  0.7816164E-02  0.1186339E+00
        -11   -1    0    0    0    0  0.00000000000E+00  0.00000000000E+00  0.45593999997E+02  0.45594000000E+02  0.51100000000E-03 0. -1.
         11   -1    0    0    0    0 -0.00000000000E+00 -0.00000000000E+00 -0.45593999997E+02  0.45594000000E+02  0.51100000000E-03 0.  1.
    9900012    2    1    2    0    0  0.48800649846E-01  0.91512957727E+00 -0.74375195328E+00  0.90007741293E+02  0.90000002678E+02 0.  0.
         12    1    1    2    0    0 -0.48800649846E-01 -0.91512957727E+00  0.74375195328E+00  0.11802587066E+01  0.00000000000E+00 0. -1.
         11    1    3    3    0    0 -0.37479460366E+01  0.17002537103E+02 -0.29431535512E+02  0.34195740236E+02  0.51100000000E-03 0. -1.
        -11    1    3    3    0    0 -0.14327661798E+01 -0.11999849615E+02 -0.10534540768E+02  0.16032022927E+02  0.51100000000E-03 0.  1.
        -12    1    3    3    0    0  0.52295128662E+01 -0.40875579115E+01  0.39222324326E+02  0.39779978130E+02  0.00000000000E+00 0.  1.
</event>
<event>
 7    1  0.2090370E-015  0.9000775E+02  0.7816164E-02  0.1186339E+00
        -11   -1    0    0    0    0  0.00000000000E+00  0.00000000000E+00  0.45593999997E+02  0.45594000000E+02  0.51100000000E-03 0. -1.
         11   -1    0    0    0    0 -0.00000000000E+00 -0.00000000000E+00 -0.45593999997E+02  0.45594000000E+02  0.51100000000E-03 0.  1.
    9900012    2    1    2    0    0  0.36504747506E+00  0.11181618706E+01  0.97150889013E-01  0.90007752601E+02  0.90000014135E+02 0.  0.
         12    1    1    2    0    0 -0.36504747506E+00 -0.11181618706E+01 -0.97150889013E-01  0.11802473991E+01  0.00000000000E+00 0. -1.
         11    1    3    3    0    0  0.70917900745E+01 -0.37234804382E+01  0.34487889626E+01  0.87207762615E+01  0.51100000000E-03 0. -1.
        -11    1    3    3    0    0  0.80475184557E+00  0.42175623834E+02 -0.79447526167E+01  0.42924934080E+02  0.51100000000E-03 0.  1.
         12    1    3    3    0    0 -0.75314944450E+01 -0.37333981526E+02  0.45931145431E+01  0.38362042260E+02  0.00000000000E+00 0. -1.
</event>
<event>
 7    1  0.2090370E-015  0.9000762E+02  0.7816164E-02  0.1186339E+00
        -11   -1    0    0    0    0  0.00000000000E+00  0.00000000000E+00  0.45593999997E+02  0.45594000000E+02  0.51100000000E-03 0.  1.
         11   -1    0    0    0    0 -0.00000000000E+00 -0.00000000000E+00 -0.45593999997E+02  0.45594000000E+02  0.51100000000E-03 0. -1.
    9900012    2    1    2    0    0 -0.37015216884E+00 -0.23090423907E+00  0.10967989846E+01  0.90007619803E+02  0.89999879585E+02 0.  0.
         12    1    1    2    0    0  0.37015216884E+00  0.23090423907E+00 -0.10967989846E+01  0.11803801965E+01  0.00000000000E+00 0. -1.
         11    1    3    3    0    0  0.61937154178E+01  0.10371605340E+01  0.62331923366E+01  0.88481918840E+01  0.51100000000E-03 0. -1.
        -11    1    3    3    0    0 -0.67980212963E+00  0.13567277354E+02  0.35226946843E+02  0.37755409280E+02  0.51100000000E-03 0.  1.
         12    1    3    3    0    0 -0.58840654571E+01 -0.14835342128E+02 -0.40363340195E+02  0.43404018639E+02  0.00000000000E+00 0. -1.
</event>
<event>
 7    1  0.2090370E-015  0.9000775E+02  0.7816164E-02  0.1186339E+00
        -11   -1    0    0    0    0  0.00000000000E+00  0.00000000000E+00  0.45593999997E+02  0.45594000000E+02  0.51100000000E-03 0. -1.
         11   -1    0    0    0    0 -0.00000000000E+00 -0.00000000000E+00 -0.45593999997E+02  0.45594000000E+02  0.51100000000E-03 0.  1.
    9900012    2    1    2    0    0 -0.80805055854E+00  0.73527757013E+00  0.44655372249E+00  0.90007750434E+02  0.90000011940E+02 0.  0.
         12    1    1    2    0    0  0.80805055854E+00 -0.73527757013E+00 -0.44655372249E+00  0.11802495657E+01  0.00000000000E+00 0. -1.
         11    1    3    3    0    0 -0.21845334776E+02 -0.13944012070E+02 -0.31613087038E+01  0.26108389400E+02  0.51100000000E-03 0. -1.
        -11    1    3    3    0    0 -0.80672319366E+01 -0.87659159803E+01 -0.17353623172E+02  0.21049222112E+02  0.51100000000E-03 0.  1.
         12    1    3    3    0    0  0.29104516154E+02  0.23445205620E+02  0.20961485598E+02  0.42850138922E+02  0.00000000000E+00 0. -1.
</event>
<event>
 7    1  0.2090370E-015  0.9000774E+02  0.7816164E-02  0.1186339E+00
        -11   -1    0    0    0    0  0.00000000000E+00  0.00000000000E+00  0.45593999997E+02  0.45594000000E+02  0.51100000000E-03 0. -1.
         11   -1    0    0    0    0 -0.00000000000E+00 -0.00000000000E+00 -0.45593999997E+02  0.45594000000E+02  0.51100000000E-03 0.  1.
    9900012    2    1    2    0    0  0.61654805405E+00 -0.20326483864E+00 -0.98567467909E+00  0.90007744659E+02  0.90000006088E+02 0.  0.
         12    1    1    2    0    0 -0.61654805405E+00  0.20326483864E+00  0.98567467909E+00  0.11802553413E+01  0.00000000000E+00 0. -1.
         11    1    3    3    0    0  0.21575627062E+02  0.21940649760E+02  0.17167939313E+02  0.35236883170E+02  0.51100000000E-03 0. -1.
        -11    1    3    3    0    0  0.71447013811E+01 -0.15137764961E+01  0.82645261022E+01  0.11029082875E+02  0.51100000000E-03 0.  1.
        -12    1    3    3    0    0 -0.28103780389E+02 -0.20630138103E+02 -0.26418140094E+02  0.43741778614E+02  0.00000000000E+00 0.  1.
</event>
<event>
 7    1  0.2090370E-015  0.9000773E+02  0.7816164E-02  0.1186339E+00
        -11   -1    0    0    0    0  0.00000000000E+00  0.00000000000E+00  0.45593999997E+02  0.45594000000E+02  0.51100000000E-03 0. -1.
         11   -1    0    0    0    0 -0.00000000000E+00 -0.00000000000E+00 -0.45593999997E+02  0.45594000000E+02  0.51100000000E-03 0.  1.
    9900012    2    1    2    0    0 -0.62961804805E+00  0.78629060378E+00 -0.61511462581E+00  0.90007729775E+02  0.89999991009E+02 0.  0.
         12    1    1    2    0    0  0.62961804805E+00 -0.78629060378E+00  0.61511462581E+00  0.11802702245E+01  0.00000000000E+00 0. -1.
         11    1    3    3    0    0 -0.26475422992E+02 -0.24572036497E+02  0.99247669908E+01  0.37459765086E+02  0.51100000000E-03 0. -1.
        -11    1    3    3    0    0  0.35932557368E+01 -0.75188162156E+01 -0.97691540725E+01  0.12840578477E+02  0.51100000000E-03 0.  1.
        -12    1    3    3    0    0  0.22252549207E+02  0.32877143317E+02 -0.77072754416E+00  0.39707386212E+02  0.00000000000E+00 0.  1.
</event>
<event>
 7    1  0.2090370E-015  0.9000774E+02  0.7816164E-02  0.1186339E+00
        -11   -1    0    0    0    0  0.00000000000E+00  0.00000000000E+00  0.45593999997E+02  0.45594000000E+02  0.51100000000E-03 0.  1.
         11   -1    0    0    0    0 -0.00000000000E+00 -0.00000000000E+00 -0.45593999997E+02  0.45594000000E+02  0.51100000000E-03 0. -1.
    9900012    2    1    2    0    0 -0.10790667073E+01  0.41788161540E+00  0.23237404468E+00  0.90007742528E+02  0.90000003929E+02 0.  0.
         12    1    1    2    0    0  0.10790667073E+01 -0.41788161540E+00 -0.23237404468E+00  0.11802574719E+01  0.00000000000E+00 0. -1.
         11    1    3    3    0    0  0.23451262522E+02  0.15397488425E+01 -0.28332171325E+02  0.36810928712E+02  0.51100000000E-03 0. -1.
        -11    1    3    3    0    0  0.99512819554E+01 -0.28477149751E+01  0.63910556246E+01  0.12164829855E+02  0.51100000000E-03 0.  1.
        -12    1    3    3    0    0 -0.34481611185E+02  0.17258477480E+01  0.22173489745E+02  0.41031983962E+02  0.00000000000E+00 0.  1.
</event>
<event>
 7    1  0.2090370E-015  0.9000772E+02  0.7816164E-02  0.1186339E+00
        -11   -1    0    0    0    0  0.00000000000E+00  0.00000000000E+00  0.45593999997E+02  0.45594000000E+02  0.51100000000E-03 0.  1.
         11   -1    0    0    0    0 -0.00000000000E+00 -0.00000000000E+00 -0.45593999997E+02  0.45594000000E+02  0.51100000000E-03 0. -1.
    9900012    2    1    2    0    0  0.39484611904E+00 -0.23983113254E+00  0.10861166596E+01  0.90007715361E+02  0.89999976404E+02 0.  0.
         12    1    1    2    0    0 -0.39484611904E+00  0.23983113254E+00 -0.10861166596E+01  0.11802846386E+01  0.00000000000E+00 0. -1.
         11    1    3    3    0    0 -0.13014843911E+02 -0.32136938030E+02  0.13452241770E+02  0.37190479384E+02  0.51100000000E-03 0. -1.
        -11    1    3    3    0    0  0.83990042330E+00  0.12487856130E+01  0.11747966013E+02  0.11843969095E+02  0.51100000000E-03 0.  1.
        -12    1    3    3    0    0  0.12569789607E+02  0.30648321284E+02 -0.24114091123E+02  0.40973266882E+02  0.00000000000E+00 0.  1.
</event>
<event>
 7    1  0.2090370E-015  0.9000774E+02  0.7816164E-02  0.1186339E+00
        -11   -1    0    0    0    0  0.00000000000E+00  0.00000000000E+00  0.45593999997E+02  0.45594000000E+02  0.51100000000E-03 0. -1.
         11   -1    0    0    0    0 -0.00000000000E+00 -0.00000000000E+00 -0.45593999997E+02  0.45594000000E+02  0.51100000000E-03 0.  1.
    9900012    2    1    2    0    0  0.51402716812E-01 -0.11648295524E+01  0.18315167945E+00  0.90007739578E+02  0.90000000941E+02 0.  0.
         12    1    1    2    0    0 -0.51402716812E-01  0.11648295524E+01 -0.18315167945E+00  0.11802604217E+01  0.00000000000E+00 0. -1.
         11    1    3    3    0    0  0.25035807178E+01 -0.27031196272E+02  0.31898196375E+02  0.41886136376E+02  0.51100000000E-03 0. -1.
        -11    1    3    3    0    0 -0.53813365816E+01  0.47821934140E+01  0.26720958277E+01  0.76790789569E+01  0.51100000000E-03 0.  1.
        -12    1    3    3    0    0  0.29291585806E+01  0.21084173305E+02 -0.34387140523E+02  0.40442524245E+02  0.00000000000E+00 0.  1.
</event>
<event>
 7    1  0.2090370E-015  0.9000770E+02  0.7816164E-02  0.1186339E+00
        -11   -1    0    0    0    0  0.00000000000E+00  0.00000000000E+00  0.45593999997E+02  0.45594000000E+02  0.51100000000E-03 0.  1.
         11   -1    0    0    0    0 -0.00000000000E+00 -0.00000000000E+00 -0.45593999997E+02  0.45594000000E+02  0.51100000000E-03 0. -1.
    9900012    2    1    2    0    0 -0.91568259156E+00  0.28449387613E+00  0.68824983579E+00  0.90007703762E+02  0.89999964651E+02 0.  0.
         12    1    1    2    0    0  0.91568259156E+00 -0.28449387613E+00 -0.68824983579E+00  0.11802962385E+01  0.00000000000E+00 0. -1.
         11    1    3    3    0    0 -0.79849037943E+01  0.16390824000E+01  0.25257625889E+01  0.85337422410E+01  0.51100000000E-03 0. -1.
        -11    1    3    3    0    0 -0.34489521956E+02 -0.15119574523E+02 -0.16586843813E+01  0.37694560518E+02  0.51100000000E-03 0.  1.
         12    1    3    3    0    0  0.41558743159E+02  0.13764985999E+02 -0.17882837190E+00  0.43779401002E+02  0.00000000000E+00 0. -1.
</event>
<event>
 7    1  0.2090370E-015  0.9000780E+02  0.7816164E-02  0.1186339E+00
        -11   -1    0    0    0    0  0.00000000000E+00  0.00000000000E+00  0.45593999997E+02  0.45594000000E+02  0.51100000000E-03 0. -1.
         11   -1    0    0    0    0 -0.00000000000E+00 -0.00000000000E+00 -0.45593999997E+02  0.45594000000E+02  0.51100000000E-03 0.  1.
    9900012    2    1    2    0    0 -0.19664304119E+00 -0.77155802418E+00 -0.87114948740E+00  0.90007800144E+02  0.90000062306E+02 0.  0.
         12    1    1    2    0    0  0.19664304119E+00  0.77155802418E+00  0.87114948740E+00  0.11801998558E+01  0.00000000000E+00 0. -1.
         11    1    3    3    0    0 -0.15545907961E+02 -0.32563486901E+02  0.13466968097E+02  0.38515129021E+02  0.51100000000E-03 0. -1.
        -11    1    3    3    0    0  0.92659469161E+01 -0.50983106818E+01  0.18738859751E+01  0.10740670043E+02  0.51100000000E-03 0.  1.
        -12    1    3    3    0    0  0.60833180040E+01  0.36890239559E+02 -0.16212003560E+02  0.40752001080E+02  0.00000000000E+00 0.  1.
</event>
<event>
 7    1  0.2090370E-015  0.9000774E+02  0.7816164E-02  0.1186339E+00
        -11   -1    0    0    0    0  0.00000000000E+00  0.00000000000E+00  0.45593999997E+02  0.45594000000E+02  0.51100000000E-03 0. -1.
         11   -1    0    0    0    0 -0.00000000000E+00 -0.00000000000E+00 -0.45593999997E+02  0.45594000000E+02  0.51100000000E-03 0.  1.
    9900012    2    1    2    0    0 -0.98449565035E+00 -0.63529007162E+00 -0.14209628358E+00  0.90007738794E+02  0.90000000146E+02 0.  0.
         12    1    1    2    0    0  0.98449565035E+00  0.63529007162E+00  0.14209628358E+00  0.11802612060E+01  0.00000000000E+00 0. -1.
         11    1    3    3    0    0  0.44420925720E+01  0.17207053806E+01 -0.91075614921E+01  0.10278165693E+02  0.51100000000E-03 0. -1.
        -11    1    3    3    0    0 -0.22494104434E+02  0.57590359435E+01 -0.29101456843E+02  0.37229638998E+02  0.51100000000E-03 0.  1.
         12    1    3    3    0    0  0.17067516212E+02 -0.81150313958E+01  0.38066922052E+02  0.42499934102E+02  0.00000000000E+00 0. -1.
</event>
<event>
 7    1  0.2090370E-015  0.9000776E+02  0.7816164E-02  0.1186339E+00
        -11   -1    0    0    0    0  0.00000000000E+00  0.00000000000E+00  0.45593999997E+02  0.45594000000E+02  0.51100000000E-03 0.  1.
         11   -1    0    0    0    0 -0.00000000000E+00 -0.00000000000E+00 -0.45593999997E+02  0.45594000000E+02  0.51100000000E-03 0. -1.
    9900012    2    1    2    0    0  0.61069798994E+00 -0.99682515379E+00  0.16232586552E+00  0.90007761842E+02  0.90000023499E+02 0.  0.
         12    1    1    2    0    0 -0.61069798994E+00  0.99682515379E+00 -0.16232586552E+00  0.11802381576E+01  0.00000000000E+00 0. -1.
         11    1    3    3    0    0 -0.65520359816E+01 -0.68459704344E+01 -0.55327650612E+01  0.10973056829E+02  0.51100000000E-03 0. -1.
        -11    1    3    3    0    0  0.34814067597E+02 -0.14884704674E+02  0.18546942033E+02  0.42161152675E+02  0.51100000000E-03 0.  1.
         12    1    3    3    0    0 -0.27651333625E+02  0.20733849955E+02 -0.12851851106E+02  0.36873552338E+02  0.00000000000E+00 0. -1.
</event>
<event>
 7    1  0.2115023E-015  0.9000785E+02  0.7816164E-02  0.1186339E+00
        -11   -1    0    0    0    0  0.00000000000E+00  0.00000000000E+00  0.45593999997E+02  0.45594000000E+02  0.51100000000E-03 0. -1.
         11   -1    0    0    0    0 -0.00000000000E+00 -0.00000000000E+00 -0.45593999997E+02  0.45594000000E+02  0.51100000000E-03 0.  1.
    9900012    2    1    2    0    0  0.15271967747E+00  0.11627278021E+01 -0.13227768011E+00  0.90007848897E+02  0.90000111702E+02 0.  0.
         12    1    1    2    0    0 -0.15271967747E+00 -0.11627278021E+01  0.13227768011E+00  0.11801511032E+01  0.00000000000E+00 0. -1.
         11    1    3    3    0    0 -0.35084793860E+02 -0.68932480282E+01 -0.11680187564E+02  0.37614975879E+02  0.51100000000E-03 0. -1.
        -11    1    3    3    0    0 -0.55818452515E+01  0.66591123400E+01 -0.27585379307E+01  0.91164853614E+01  0.51100000000E-03 0.  1.
        -12    1    3    3    0    0  0.40819358789E+02  0.13968634903E+01  0.14306447815E+02  0.43276387657E+02  0.00000000000E+00 0.  1.
</event>
<event>
 7    1  0.2090370E-015  0.9000768E+02  0.7816164E-02  0.1186339E+00
        -11   -1    0    0    0    0  0.00000000000E+00  0.00000000000E+00  0.45593999997E+02  0.45594000000E+02  0.51100000000E-03 0.  1.
         11   -1    0    0    0    0 -0.00000000000E+00 -0.00000000000E+00 -0.45593999997E+02  0.45594000000E+02  0.51100000000E-03 0. -1.
    9900012    2    1    2    0    0  0.59159897052E-01  0.91796367936E+00  0.73958696684E+00  0.90007683902E+02  0.89999944529E+02 0.  0.
         12    1    1    2    0    0 -0.59159897052E-01 -0.91796367936E+00 -0.73958696684E+00  0.11803160982E+01  0.00000000000E+00 0. -1.
         11    1    3    3    0    0 -0.39759694761E+02 -0.10056128972E+02 -0.49726821837E+01  0.41312063925E+02  0.51100000000E-03 0. -1.
        -11    1    3    3    0    0  0.41517710987E+00  0.55148079298E+01 -0.50459753667E+01  0.74864775561E+01  0.51100000000E-03 0.  1.
        -12    1    3    3    0    0  0.39403677548E+02  0.54592847212E+01  0.10758244517E+02  0.41209142421E+02  0.00000000000E+00 0.  1.
</event>
<event>
 7    1  0.2090370E-015  0.9000774E+02  0.7816164E-02  0.1186339E+00
        -11   -1    0    0    0    0  0.00000000000E+00  0.00000000000E+00  0.45593999997E+02  0.45594000000E+02  0.51100000000E-03 0.  1.
         11   -1    0    0    0    0 -0.00000000000E+00 -0.00000000000E+00 -0.45593999997E+02  0.45594000000E+02  0.51100000000E-03 0. -1.
    9900012    2    1    2    0    0  0.92104155596E+00  0.72191933432E+00  0.15338612545E+00  0.90007740547E+02  0.90000001922E+02 0.  0.
         12    1    1    2    0    0 -0.92104155596E+00 -0.72191933432E+00 -0.15338612545E+00  0.11802594531E+01  0.00000000000E+00 0. -1.
         11    1    3    3    0    0  0.77055426136E+01  0.74987908643E+01  0.50612521034E+01  0.11883750440E+02  0.51100000000E-03 0. -1.
        -11    1    3    3    0    0  0.21448242736E+02 -0.71939876758E+01  0.27192468920E+02  0.35372460210E+02  0.51100000000E-03 0.  1.
         12    1    3    3    0    0 -0.28232743794E+02  0.41711614588E+00 -0.32100334897E+02  0.42751529897E+02  0.00000000000E+00 0. -1.
</event>
<event>
 7    1  0.2090370E-015  0.9000774E+02  0.7816164E-02  0.1186339E+00
        -11   -1    0    0    0    0  0.00000000000E+00  0.00000000000E+00  0.45593999997E+02  0.45594000000E+02  0.51100000000E-03 0. -1.
         11   -1    0    0    0    0 -0.00000000000E+00 -0.00000000000E+00 -0.45593999997E+02  0.45594000000E+02  0.51100000000E-03 0.  1.
    9900012    2    1    2    0    0  0.19544415196E-01 -0.10524299211E+01 -0.53387312989E+00  0.90007741028E+02  0.90000002409E+02 0.  0.
         12    1    1    2    0    0 -0.19544415196E-01  0.10524299211E+01  0.53387312989E+00  0.11802589724E+01  0.00000000000E+00 0. -1.
         11    1    3    3    0    0 -0.29892849956E+02 -0.15486845897E+02  0.22221660385E+02  0.40338902624E+02  0.51100000000E-03 0. -1.
        -11    1    3    3    0    0  0.86954931630E+01 -0.78445513032E+00  0.61779747524E+01  0.10695529136E+02  0.51100000000E-03 0.  1.
        -12    1    3    3    0    0  0.21216901208E+02  0.15218871106E+02 -0.28933508268E+02  0.38973309268E+02  0.00000000000E+00 0.  1.
</event>
<event>
 7    1  0.2090370E-015  0.9000767E+02  0.7816164E-02  0.1186339E+00
        -11   -1    0    0    0    0  0.00000000000E+00  0.00000000000E+00  0.45593999997E+02  0.45594000000E+02  0.51100000000E-03 0.  1.
         11   -1    0    0    0    0 -0.00000000000E+00 -0.00000000000E+00 -0.45593999997E+02  0.45594000000E+02  0.51100000000E-03 0. -1.
    9900012    2    1    2    0    0 -0.10214789170E+01  0.12538081113E+00  0.57795432139E+00  0.90007673467E+02  0.89999933957E+02 0.  0.
         12    1    1    2    0    0  0.10214789170E+01 -0.12538081113E+00 -0.57795432139E+00  0.11803265325E+01  0.00000000000E+00 0. -1.
         11    1    3    3    0    0  0.15376409476E+02 -0.17506965139E+01 -0.32955740966E+02  0.36408512322E+02  0.51100000000E-03 0. -1.
        -11    1    3    3    0    0 -0.27204417966E+01  0.75604256994E+01 -0.68665775287E+01  0.10569329569E+02  0.51100000000E-03 0.  1.
        -12    1    3    3    0    0 -0.13677446597E+02 -0.56843483744E+01  0.40400272816E+02  0.43029831576E+02  0.00000000000E+00 0.  1.
</event>
<event>
 7    1  0.2090370E-015  0.9000779E+02  0.7816164E-02  0.1186339E+00
        -11   -1    0    0    0    0  0.00000000000E+00  0.00000000000E+00  0.45593999997E+02  0.45594000000E+02  0.51100000000E-03 0. -1.
         11   -1    0    0    0    0 -0.00000000000E+00 -0.00000000000E+00 -0.45593999997E+02  0.45594000000E+02  0.51100000000E-03 0.  1.
    9900012    2    1    2    0    0 -0.34568345542E+00  0.11283920390E+01  0.11491709840E-01  0.90007789127E+02  0.90000051144E+02 0.  0.
         12    1    1    2    0    0  0.34568345542E+00 -0.11283920390E+01 -0.11491709840E-01  0.11802108729E+01  0.00000000000E+00 0. -1.
         11    1    3    3    0    0  0.29235047712E+02  0.87992314590E+01  0.23167136962E+02  0.38325327451E+02  0.51100000000E-03 0. -1.
        -11    1    3    3    0    0 -0.34197068986E+01 -0.31792601289E+01  0.89078654175E+01  0.10057442856E+02  0.51100000000E-03 0.  1.
        -12    1    3    3    0    0 -0.26161024269E+02 -0.44915792911E+01 -0.32063510669E+02  0.41625018820E+02  0.00000000000E+00 0.  1.
</event>
<event>
 7    1  0.2090370E-015  0.9000778E+02  0.7816164E-02  0.1186339E+00
        -11   -1    0    0    0    0  0.00000000000E+00  0.00000000000E+00  0.45593999997E+02  0.45594000000E+02  0.51100000000E-03 0. -1.
         11   -1    0    0    0    0 -0.00000000000E+00 -0.00000000000E+00 -0.45593999997E+02  0.45594000000E+02  0.51100000000E-03 0.  1.
    9900012    2    1    2    0    0  0.71315370675E+00 -0.19145525489E-01  0.94019775341E+00  0.90007776896E+02  0.90000038751E+02 0.  0.
         12    1    1    2    0    0 -0.71315370675E+00  0.19145525489E-01 -0.94019775341E+00  0.11802231044E+01  0.00000000000E+00 0. -1.
         11    1    3    3    0    0  0.26353173732E+01 -0.27115103177E+02  0.22368411703E+02  0.35249390921E+02  0.51100000000E-03 0. -1.
        -11    1    3    3    0    0 -0.52241734381E+01 -0.49873410256E+01  0.82247256842E+01  0.10945851792E+02  0.51100000000E-03 0.  1.
        -12    1    3    3    0    0  0.33020097716E+01  0.32083298677E+02 -0.29652939634E+02  0.43812534182E+02  0.00000000000E+00 0.  1.
</event>
<event>
 7    1  0.2090370E-015  0.9000784E+02  0.7816164E-02  0.1186339E+00
        -11   -1    0    0    0    0  0.00000000000E+00  0.00000000000E+00  0.45593999997E+02  0.45594000000E+02  0.51100000000E-03 0.  1.
         11   -1    0    0    0    0 -0.00000000000E+00 -0.00000000000E+00 -0.45593999997E+02  0.45594000000E+02  0.51100000000E-03 0. -1.
    9900012    2    1    2    0    0  0.17990265306E+00  0.11647557112E+01 -0.61248481670E-01  0.90007842295E+02  0.90000105014E+02 0.  0.
         12    1    1    2    0    0 -0.17990265306E+00 -0.11647557112E+01  0.61248481670E-01  0.11801577047E+01  0.00000000000E+00 0. -1.
         11    1    3    3    0    0  0.11415358559E+02  0.86213110220E+00 -0.75560855866E+01  0.13716709180E+02  0.51100000000E-03 0. -1.
        -11    1    3    3    0    0  0.13406538145E+02  0.15335738642E+02  0.32330180062E+02  0.38212048987E+02  0.51100000000E-03 0.  1.
         12    1    3    3    0    0 -0.24641994050E+02 -0.15033114033E+02 -0.24835342957E+02  0.38079084129E+02  0.00000000000E+00 0. -1.
</event>
<event>
 7    1  0.2090370E-015  0.9000778E+02  0.7816164E-02  0.1186339E+00
        -11   -1    0    0    0    0  0.00000000000E+00  0.00000000000E+00  0.45593999997E+02  0.45594000000E+02  0.51100000000E-03 0.  1.
         11   -1    0    0    0    0 -0.00000000000E+00 -0.00000000000E+00 -0.45593999997E+02  0.45594000000E+02  0.51100000000E-03 0. -1.
    9900012    2    1    2    0    0  0.21349167118E+00 -0.38692519276E+00  0.10943675633E+01  0.90007775376E+02  0.90000037211E+02 0.  0.
         12    1    1    2    0    0 -0.21349167118E+00  0.38692519276E+00 -0.10943675633E+01  0.11802246236E+01  0.00000000000E+00 0. -1.
         11    1    3    3    0    0 -0.10373333516E+02  0.56588795999E+01 -0.36137748803E+02  0.38020597777E+02  0.51100000000E-03 0. -1.
        -11    1    3    3    0    0 -0.67389073246E+01  0.56439016945E+01 -0.55223522020E+00  0.88074662796E+01  0.51100000000E-03 0.  1.
        -12    1    3    3    0    0  0.17325732512E+02 -0.11689706487E+02  0.37784351586E+02  0.43179711319E+02  0.00000000000E+00 0.  1.
</event>
<event>
 7    1  0.2090370E-015  0.9000773E+02  0.7816164E-02  0.1186339E+00
        -11   -1    0    0    0    0  0.00000000000E+00  0.00000000000E+00  0.45593999997E+02  0.45594000000E+02  0.51100000000E-03 0. -1.
         11   -1    0    0    0    0 -0.00000000000E+00 -0.00000000000E+00 -0.45593999997E+02  0.45594000000E+02  0.51100000000E-03 0.  1.
    9900012    2    1    2    0    0 -0.73129532320E+00 -0.60180370354E+00 -0.70432000412E+00  0.90007734261E+02  0.89999995553E+02 0.  0.
         12    1    1    2    0    0  0.73129532320E+00  0.60180370354E+00  0.70432000412E+00  0.11802657394E+01  0.00000000000E+00 0. -1.
         11    1    3    3    0    0 -0.30236429529E+02  0.98944830363E+01 -0.19354055736E+02  0.37238715591E+02  0.51100000000E-03 0. -1.
        -11    1    3    3    0    0 -0.26923008760E+01  0.10027882702E+02  0.25426264810E+00  0.10386123687E+02  0.51100000000E-03 0.  1.
        -12    1    3    3    0    0  0.32197435081E+02 -0.20524169442E+02  0.18395473084E+02  0.42382894982E+02  0.00000000000E+00 0.  1.
</event>
<event>
 7    1  0.2090370E-015  0.9000774E+02  0.7816164E-02  0.1186339E+00
        -11   -1    0    0    0    0  0.00000000000E+00  0.00000000000E+00  0.45593999997E+02  0.45594000000E+02  0.51100000000E-03 0.  1.
         11   -1    0    0    0    0 -0.00000000000E+00 -0.00000000000E+00 -0.45593999997E+02  0.45594000000E+02  0.51100000000E-03 0. -1.
    9900012    2    1    2    0    0  0.36736672512E-01 -0.11545800614E+01  0.24210789699E+00  0.90007736921E+02  0.89999998249E+02 0.  0.
         12    1    1    2    0    0 -0.36736672512E-01  0.11545800614E+01 -0.24210789699E+00  0.11802630788E+01  0.00000000000E+00 0. -1.
         11    1    3    3    0    0  0.48362900385E+01  0.63933872776E+01  0.70984153266E+01  0.10707595558E+02  0.51100000000E-03 0. -1.
        -11    1    3    3    0    0  0.32717321763E+02  0.11261623125E+02  0.66050854668E+01  0.35226047934E+02  0.51100000000E-03 0.  1.
         12    1    3    3    0    0 -0.37516875129E+02 -0.18809590464E+02 -0.13461392896E+02  0.44074093429E+02  0.00000000000E+00 0. -1.
</event>
<event>
 7    1  0.2090370E-015  0.9000766E+02  0.7816164E-02  0.1186339E+00
        -11   -1    0    0    0    0  0.00000000000E+00  0.00000000000E+00  0.45593999997E+02  0.45594000000E+02  0.51100000000E-03 0.  1.
         11   -1    0    0    0    0 -0.00000000000E+00 -0.00000000000E+00 -0.45593999997E+02  0.45594000000E+02  0.51100000000E-03 0. -1.
    9900012    2    1    2    0    0 -0.72394405246E+00  0.91709995979E+00 -0.16740436759E+00  0.90007664645E+02  0.89999925019E+02 0.  0.
         12    1    1    2    0    0  0.72394405246E+00 -0.91709995979E+00  0.16740436759E+00  0.11803353547E+01  0.00000000000E+00 0. -1.
         11    1    3    3    0    0  0.45556099452E+01  0.29565073054E+01 -0.85627194996E+01  0.10139757537E+02  0.51100000000E-03 0. -1.
        -11    1    3    3    0    0 -0.16648306689E+01 -0.24582970758E+02  0.36262978010E+02  0.43841734533E+02  0.51100000000E-03 0.  1.
         12    1    3    3    0    0 -0.36147233287E+01  0.22543563413E+02 -0.27867662878E+02  0.36026172575E+02  0.00000000000E+00 0. -1.
</event>
<event>
 7    1  0.2090370E-015  0.9000855E+02  0.7816164E-02  0.1186337E+00
        -11   -1    0    0    0    0  0.00000000000E+00  0.00000000000E+00  0.45593999997E+02  0.45594000000E+02  0.51100000000E-03 0.  1.
         11   -1    0    0    0    0 -0.00000000000E+00 -0.00000000000E+00 -0.45593999997E+02  0.45594000000E+02  0.51100000000E-03 0. -1.
    9900012    2    1    2    0    0 -0.19871139816E+00  0.53214520271E+00  0.10336510083E+01  0.90008551339E+02  0.90000823413E+02 0.  0.
         12    1    1    2    0    0  0.19871139816E+00 -0.53214520271E+00 -0.10336510083E+01  0.11794486608E+01  0.00000000000E+00 0. -1.
         11    1    3    3    0    0 -0.31472102512E+02 -0.24181767776E+02 -0.10662434700E+01  0.39703753030E+02  0.51100000000E-03 0. -1.
        -11    1    3    3    0    0  0.42006031253E+01 -0.54075686367E+01  0.66561932133E+01  0.95494383883E+01  0.51100000000E-03 0.  1.
        -12    1    3    3    0    0  0.27072787988E+02  0.30121481615E+02 -0.45562987351E+01  0.40755359921E+02  0.00000000000E+00 0.  1.
</event>
<event>
 7    1  0.2090370E-015  0.9000779E+02  0.7816164E-02  0.1186339E+00
        -11   -1    0    0    0    0  0.00000000000E+00  0.00000000000E+00  0.45593999997E+02  0.45594000000E+02  0.51100000000E-03 0.  1.
         11   -1    0    0    0    0 -0.00000000000E+00 -0.00000000000E+00 -0.45593999997E+02  0.45594000000E+02  0.51100000000E-03 0. -1.
    9900012    2    1    2    0    0 -0.31509995191E+00  0.62520360858E+00  0.95012352527E+00  0.90007787203E+02  0.90000049195E+02 0.  0.
         12    1    1    2    0    0  0.31509995191E+00 -0.62520360858E+00 -0.95012352527E+00  0.11802127966E+01  0.00000000000E+00 0. -1.
         11    1    3    3    0    0  0.23540697001E+00 -0.63226021590E+01 -0.42038943164E+01  0.75962781799E+01  0.51100000000E-03 0. -1.
        -11    1    3    3    0    0  0.29326036387E+02  0.19976307963E+02  0.25762175149E+02  0.43849275463E+02  0.51100000000E-03 0.  1.
         12    1    3    3    0    0 -0.29876543309E+02 -0.13028502196E+02 -0.20608157307E+02  0.38562233560E+02  0.00000000000E+00 0. -1.
</event>
<event>
 7    1  0.2090370E-015  0.9000767E+02  0.7816164E-02  0.1186339E+00
        -11   -1    0    0    0    0  0.00000000000E+00  0.00000000000E+00  0.45593999997E+02  0.45594000000E+02  0.51100000000E-03 0. -1.
         11   -1    0    0    0    0 -0.00000000000E+00 -0.00000000000E+00 -0.45593999997E+02  0.45594000000E+02  0.51100000000E-03 0.  1.
    9900012    2    1    2    0    0  0.64531171801E+00  0.88010431152E+00  0.44963722816E+00  0.90007667653E+02  0.89999928066E+02 0.  0.
         12    1    1    2    0    0 -0.64531171801E+00 -0.88010431152E+00 -0.44963722816E+00  0.11803323471E+01  0.00000000000E+00 0. -1.
         11    1    3    3    0    0 -0.48193364991E+01  0.65563542558E+01  0.85703729987E+01  0.11817913480E+02  0.51100000000E-03 0. -1.
        -11    1    3    3    0    0  0.25804459086E+02  0.15927932631E+02 -0.28959317838E+02  0.41931029519E+02  0.51100000000E-03 0.  1.
         12    1    3    3    0    0 -0.20339810869E+02 -0.21604182576E+02  0.20838582067E+02  0.36258724654E+02  0.00000000000E+00 0. -1.
</event>
<event>
 7    1  0.2090370E-015  0.9000760E+02  0.7816164E-02  0.1186339E+00
        -11   -1    0    0    0    0  0.00000000000E+00  0.00000000000E+00  0.45593999997E+02  0.45594000000E+02  0.51100000000E-03 0.  1.
         11   -1    0    0    0    0 -0.00000000000E+00 -0.00000000000E+00 -0.45593999997E+02  0.45594000000E+02  0.51100000000E-03 0. -1.
    9900012    2    1    2    0    0  0.72421406339E+00  0.92265880896E+00  0.13250735204E+00  0.90007600286E+02  0.89999859809E+02 0.  0.
         12    1    1    2    0    0 -0.72421406339E+00 -0.92265880896E+00 -0.13250735204E+00  0.11803997144E+01  0.00000000000E+00 0. -1.
         11    1    3    3    0    0  0.65123616178E+01 -0.52068102611E+01 -0.37891039491E+01  0.91585498816E+01  0.51100000000E-03 0. -1.
        -11    1    3    3    0    0  0.20801294478E+02 -0.20495847077E+02  0.24359451239E+02  0.38028363944E+02  0.51100000000E-03 0.  1.
         12    1    3    3    0    0 -0.26589442032E+02  0.26625316147E+02 -0.20437839938E+02  0.42820686459E+02  0.00000000000E+00 0. -1.
</event>
<event>
 7    1  0.2090370E-015  0.9000776E+02  0.7816164E-02  0.1186339E+00
        -11   -1    0    0    0    0  0.00000000000E+00  0.00000000000E+00  0.45593999997E+02  0.45594000000E+02  0.51100000000E-03 0.  1.
         11   -1    0    0    0    0 -0.00000000000E+00 -0.00000000000E+00 -0.45593999997E+02  0.45594000000E+02  0.51100000000E-03 0. -1.
    9900012    2    1    2    0    0  0.77433502753E+00  0.72299268203E-01  0.88778157238E+00  0.90007755094E+02  0.90000016661E+02 0.  0.
         12    1    1    2    0    0 -0.77433502753E+00 -0.72299268203E-01 -0.88778157238E+00  0.11802449065E+01  0.00000000000E+00 0. -1.
         11    1    3    3    0    0  0.15034079164E+02  0.16314091184E+01 -0.35483303027E+02  0.38571360178E+02  0.51100000000E-03 0. -1.
        -11    1    3    3    0    0  0.59304896774E+01 -0.72305480653E+01 -0.11539628124E+00  0.93522644157E+01  0.51100000000E-03 0.  1.
        -12    1    3    3    0    0 -0.20190233814E+02  0.56714382151E+01  0.36486480881E+02  0.42084130500E+02  0.00000000000E+00 0.  1.
</event>
<event>
 7    1  0.2090370E-015  0.9000765E+02  0.7816164E-02  0.1186339E+00
        -11   -1    0    0    0    0  0.00000000000E+00  0.00000000000E+00  0.45593999997E+02  0.45594000000E+02  0.51100000000E-03 0. -1.
         11   -1    0    0    0    0 -0.00000000000E+00 -0.00000000000E+00 -0.45593999997E+02  0.45594000000E+02  0.51100000000E-03 0.  1.
    9900012    2    1    2    0    0 -0.31451493666E+00  0.11078757142E+01 -0.25866385856E+00  0.90007654612E+02  0.89999914853E+02 0.  0.
         12    1    1    2    0    0  0.31451493666E+00 -0.11078757142E+01  0.25866385856E+00  0.11803453881E+01  0.00000000000E+00 0. -1.
         11    1    3    3    0    0  0.45529779508E+01  0.75273763160E+01  0.16952154163E+01  0.89590601066E+01  0.51100000000E-03 0. -1.
        -11    1    3    3    0    0  0.20200866724E+02  0.22337253289E+02 -0.22616018778E+02  0.37663141220E+02  0.51100000000E-03 0.  1.
         12    1    3    3    0    0 -0.25068359611E+02 -0.28756753891E+02  0.20662139503E+02  0.43385453286E+02  0.00000000000E+00 0. -1.
</event>
<event>
 7    1  0.2090370E-015  0.9000777E+02  0.7816164E-02  0.1186339E+00
        -11   -1    0    0    0    0  0.00000000000E+00  0.00000000000E+00  0.45593999997E+02  0.45594000000E+02  0.51100000000E-03 0. -1.
         11   -1    0    0    0    0 -0.00000000000E+00 -0.00000000000E+00 -0.45593999997E+02  0.45594000000E+02  0.51100000000E-03 0.  1.
    9900012    2    1    2    0    0 -0.10248503081E+01  0.51542444616E+00 -0.27743634657E+00  0.90007766362E+02  0.90000028078E+02 0.  0.
         12    1    1    2    0    0  0.10248503081E+01 -0.51542444616E+00  0.27743634657E+00  0.11802336380E+01  0.00000000000E+00 0. -1.
         11    1    3    3    0    0 -0.58323322346E+00  0.28908998871E+02  0.17171909853E+00  0.28915391480E+02  0.51100000000E-03 0. -1.
        -11    1    3    3    0    0  0.15482944516E+02 -0.40391287821E+01 -0.20314406388E+02  0.25859451645E+02  0.51100000000E-03 0.  1.
         12    1    3    3    0    0 -0.15924561601E+02 -0.24354445643E+02  0.19865250943E+02  0.35232923237E+02  0.00000000000E+00 0. -1.
</event>
<event>
 7    1  0.3890675E-015  0.9000772E+02  0.7816164E-02  0.1186339E+00
        -11   -1    0    0    0    0  0.00000000000E+00  0.00000000000E+00  0.45593999997E+02  0.45594000000E+02  0.51100000000E-03 0. -1.
         11   -1    0    0    0    0 -0.00000000000E+00 -0.00000000000E+00 -0.45593999997E+02  0.45594000000E+02  0.51100000000E-03 0.  1.
    9900012    2    1    2    0    0 -0.32353577906E-01 -0.30769573151E+00 -0.11390021714E+01  0.90007724878E+02  0.89999986046E+02 0.  0.
         12    1    1    2    0    0  0.32353577906E-01  0.30769573151E+00  0.11390021714E+01  0.11802751220E+01  0.00000000000E+00 0. -1.
         11    1    3    3    0    0 -0.14728989916E+02  0.33754143866E+02  0.16482746344E+02  0.40348064382E+02  0.51100000000E-03 0. -1.
        -11    1    3    3    0    0  0.11194074529E+01  0.21444593677E+01 -0.99472163483E+01  0.10237133015E+02  0.51100000000E-03 0.  1.
        -12    1    3    3    0    0  0.13577228885E+02 -0.36206298966E+02 -0.76745321669E+01  0.39422527481E+02  0.00000000000E+00 0.  1.
</event>
<event>
 7    1  0.2090370E-015  0.9000718E+02  0.7816164E-02  0.1186340E+00
        -11   -1    0    0    0    0  0.00000000000E+00  0.00000000000E+00  0.45593999997E+02  0.45594000000E+02  0.51100000000E-03 0.  1.
         11   -1    0    0    0    0 -0.00000000000E+00 -0.00000000000E+00 -0.45593999997E+02  0.45594000000E+02  0.51100000000E-03 0. -1.
    9900012    2    1    2    0    0  0.26073333514E+00  0.10394109789E+01  0.49596049930E+00  0.90007180847E+02  0.89999434832E+02 0.  0.
         12    1    1    2    0    0 -0.26073333514E+00 -0.10394109789E+01 -0.49596049930E+00  0.11808191530E+01  0.00000000000E+00 0. -1.
         11    1    3    3    0    0  0.28624266863E+02  0.40155851014E+01 -0.23071246973E+02  0.36983185562E+02  0.51100000000E-03 0. -1.
        -11    1    3    3    0    0  0.55369699095E+01  0.93713130178E+01  0.22406482150E+01  0.11113057551E+02  0.51100000000E-03 0.  1.
        -12    1    3    3    0    0 -0.33900503437E+02 -0.12347487140E+02  0.21326559257E+02  0.41910937734E+02  0.00000000000E+00 0.  1.
</event>
<event>
 7    1  0.2090370E-015  0.9000876E+02  0.7816164E-02  0.1186337E+00
        -11   -1    0    0    0    0  0.00000000000E+00  0.00000000000E+00  0.45593999997E+02  0.45594000000E+02  0.51100000000E-03 0.  1.
         11   -1    0    0    0    0 -0.00000000000E+00 -0.00000000000E+00 -0.45593999997E+02  0.45594000000E+02  0.51100000000E-03 0. -1.
    9900012    2    1    2    0    0 -0.19067408414E+00 -0.47173685448E+00  0.10638175835E+01  0.90008762909E+02  0.90001037773E+02 0.  0.
         12    1    1    2    0    0  0.19067408414E+00  0.47173685448E+00 -0.10638175835E+01  0.11792370912E+01  0.00000000000E+00 0. -1.
         11    1    3    3    0    0  0.92524161694E+00 -0.15223788657E+01 -0.90951300271E+01  0.92679609371E+01  0.51100000000E-03 0. -1.
        -11    1    3    3    0    0  0.36102115166E+02  0.35832057803E+01 -0.10927533226E+02  0.37889484898E+02  0.51100000000E-03 0.  1.
         12    1    3    3    0    0 -0.37218030868E+02 -0.25325637691E+01  0.21086480837E+02  0.42851317074E+02  0.00000000000E+00 0. -1.
</event>
<event>
 7    1  0.2090370E-015  0.9000774E+02  0.7816164E-02  0.1186339E+00
        -11   -1    0    0    0    0  0.00000000000E+00  0.00000000000E+00  0.45593999997E+02  0.45594000000E+02  0.51100000000E-03 0.  1.
         11   -1    0    0    0    0 -0.00000000000E+00 -0.00000000000E+00 -0.45593999997E+02  0.45594000000E+02  0.51100000000E-03 0. -1.
    9900012    2    1    2    0    0 -0.31000057480E+00  0.74395768539E+00 -0.86223559077E+00  0.90007735789E+02  0.89999997101E+02 0.  0.
         12    1    1    2    0    0  0.31000057480E+00 -0.74395768539E+00  0.86223559077E+00  0.11802642111E+01  0.00000000000E+00 0. -1.
         11    1    3    3    0    0  0.93004642750E+01  0.47848156922E+01  0.31695184061E+01  0.10928812567E+02  0.51100000000E-03 0. -1.
        -11    1    3    3    0    0  0.12519249522E+02 -0.32519607998E+02  0.15415602780E+02  0.38103770447E+02  0.51100000000E-03 0.  1.
         12    1    3    3    0    0 -0.22129714372E+02  0.28478749992E+02 -0.19447356777E+02  0.40975152774E+02  0.00000000000E+00 0. -1.
</event>
<event>
 7    1  0.2090370E-015  0.9000773E+02  0.7816164E-02  0.1186339E+00
        -11   -1    0    0    0    0  0.00000000000E+00  0.00000000000E+00  0.45593999997E+02  0.45594000000E+02  0.51100000000E-03 0.  1.
         11   -1    0    0    0    0 -0.00000000000E+00 -0.00000000000E+00 -0.45593999997E+02  0.45594000000E+02  0.51100000000E-03 0. -1.
    9900012    2    1    2    0    0  0.72146470808E+00 -0.69301541200E+00  0.62631172389E+00  0.90007725430E+02  0.89999986605E+02 0.  0.
         12    1    1    2    0    0 -0.72146470808E+00  0.69301541200E+00 -0.62631172389E+00  0.11802745705E+01  0.00000000000E+00 0. -1.
         11    1    3    3    0    0 -0.16554289228E+02  0.96499184739E+01 -0.19950516878E+01  0.19265140796E+02  0.51100000000E-03 0. -1.
        -11    1    3    3    0    0  0.32495360842E+00 -0.28738957396E+02  0.24303381364E+02  0.37638910891E+02  0.51100000000E-03 0.  1.
         12    1    3    3    0    0  0.16950800328E+02  0.18396023510E+02 -0.21682017953E+02  0.33103673742E+02  0.00000000000E+00 0. -1.
</event>
<event>
 7    1  0.2090370E-015  0.9000752E+02  0.7816164E-02  0.1186339E+00
        -11   -1    0    0    0    0  0.00000000000E+00  0.00000000000E+00  0.45593999997E+02  0.45594000000E+02  0.51100000000E-03 0.  1.
         11   -1    0    0    0    0 -0.00000000000E+00 -0.00000000000E+00 -0.45593999997E+02  0.45594000000E+02  0.51100000000E-03 0. -1.
    9900012    2    1    2    0    0 -0.72709151588E+00 -0.91215474521E+00  0.18125338331E+00  0.90007516565E+02  0.89999774983E+02 0.  0.
         12    1    1    2    0    0  0.72709151588E+00  0.91215474521E+00 -0.18125338331E+00  0.11804834351E+01  0.00000000000E+00 0. -1.
         11    1    3    3    0    0  0.82130828783E+01 -0.40462938703E+01  0.55785635071E+01  0.10721361645E+02  0.51100000000E-03 0. -1.
        -11    1    3    3    0    0 -0.54782291505E+01 -0.13656198725E+02  0.33603504321E+02  0.36683760183E+02  0.51100000000E-03 0.  1.
         12    1    3    3    0    0 -0.34619452437E+01  0.16790337850E+02 -0.39000814445E+02  0.42602394737E+02  0.00000000000E+00 0. -1.
</event>
<event>
 7    1  0.2090370E-015  0.9000778E+02  0.7816164E-02  0.1186339E+00
        -11   -1    0    0    0    0  0.00000000000E+00  0.00000000000E+00  0.45593999997E+02  0.45594000000E+02  0.51100000000E-03 0. -1.
         11   -1    0    0    0    0 -0.00000000000E+00 -0.00000000000E+00 -0.45593999997E+02  0.45594000000E+02  0.51100000000E-03 0.  1.
    9900012    2    1    2    0    0  0.10910992227E+01  0.44990443125E+00 -0.11566367235E-02  0.90007782711E+02  0.90000044643E+02 0.  0.
         12    1    1    2    0    0 -0.10910992227E+01 -0.44990443125E+00  0.11566367235E-02  0.11802172888E+01  0.00000000000E+00 0. -1.
         11    1    3    3    0    0  0.40503042714E+01  0.20214159601E+02  0.30377883062E+02  0.36712845064E+02  0.51100000000E-03 0. -1.
        -11    1    3    3    0    0 -0.14649632595E+01  0.11821664953E+02 -0.58257517767E+01  0.13260364385E+02  0.51100000000E-03 0.  1.
        -12    1    3    3    0    0 -0.14942417893E+01 -0.31585920123E+02 -0.24553287922E+02  0.40034573262E+02  0.00000000000E+00 0.  1.
</event>
<event>
 7    1  0.2090370E-015  0.9000780E+02  0.7816164E-02  0.1186339E+00
        -11   -1    0    0    0    0  0.00000000000E+00  0.00000000000E+00  0.45593999997E+02  0.45594000000E+02  0.51100000000E-03 0.  1.
         11   -1    0    0    0    0 -0.00000000000E+00 -0.00000000000E+00 -0.45593999997E+02  0.45594000000E+02  0.51100000000E-03 0. -1.
    9900012    2    1    2    0    0 -0.11832197142E+00  0.98949085421E+00 -0.63228705258E+00  0.90007796985E+02  0.90000059105E+02 0.  0.
         12    1    1    2    0    0  0.11832197142E+00 -0.98949085421E+00  0.63228705258E+00  0.11802030149E+01  0.00000000000E+00 0. -1.
         11    1    3    3    0    0 -0.62679010634E+01 -0.74341822493E+01 -0.43386745056E+01  0.10647898675E+02  0.51100000000E-03 0. -1.
        -11    1    3    3    0    0 -0.19169502921E+02  0.25076926603E+02 -0.22928930534E+02  0.39013561050E+02  0.51100000000E-03 0.  1.
         12    1    3    3    0    0  0.25319082013E+02 -0.16653253499E+02  0.26635317987E+02  0.40346337261E+02  0.00000000000E+00 0. -1.
</event>
<event>
 7    1  0.2090370E-015  0.9000785E+02  0.7816164E-02  0.1186339E+00
        -11   -1    0    0    0    0  0.00000000000E+00  0.00000000000E+00  0.45593999997E+02  0.45594000000E+02  0.51100000000E-03 0.  1.
         11   -1    0    0    0    0 -0.00000000000E+00 -0.00000000000E+00 -0.45593999997E+02  0.45594000000E+02  0.51100000000E-03 0. -1.
    9900012    2    1    2    0    0 -0.91622845553E+00 -0.72468317400E+00 -0.16768897799E+00  0.90007847519E+02  0.90000110306E+02 0.  0.
         12    1    1    2    0    0  0.91622845553E+00  0.72468317400E+00  0.16768897799E+00  0.11801524811E+01  0.00000000000E+00 0. -1.
         11    1    3    3    0    0 -0.51637840083E+01 -0.86101686867E+01 -0.34869745344E+02  0.36286344686E+02  0.51100000000E-03 0. -1.
        -11    1    3    3    0    0 -0.38951527743E+00  0.44264987726E+01 -0.87884253684E+01  0.98479456869E+01  0.51100000000E-03 0.  1.
        -12    1    3    3    0    0  0.46370708302E+01  0.34589867401E+01  0.43490481734E+02  0.43873557146E+02  0.00000000000E+00 0.  1.
</event>
<event>
 7    1  0.2090370E-015  0.9000792E+02  0.7816164E-02  0.1186339E+00
        -11   -1    0    0    0    0  0.00000000000E+00  0.00000000000E+00  0.45593999997E+02  0.45594000000E+02  0.51100000000E-03 0.  1.
         11   -1    0    0    0    0 -0.00000000000E+00 -0.00000000000E+00 -0.45593999997E+02  0.45594000000E+02  0.51100000000E-03 0. -1.
    9900012    2    1    2    0    0  0.68707730992E+00 -0.95391167406E+00 -0.10276514595E+00  0.90007922296E+02  0.90000186070E+02 0.  0.
         12    1    1    2    0    0 -0.68707730992E+00  0.95391167406E+00  0.10276514595E+00  0.11800777038E+01  0.00000000000E+00 0. -1.
         11    1    3    3    0    0  0.59080383643E+01 -0.52927350552E+01 -0.48474822720E+01  0.92960231452E+01  0.51100000000E-03 0. -1.
        -11    1    3    3    0    0 -0.44068448207E+01  0.41193522026E+02  0.12020178466E+02  0.43137121239E+02  0.51100000000E-03 0.  1.
         12    1    3    3    0    0 -0.81411623368E+00 -0.36854698645E+02 -0.72754613404E+01  0.37574777912E+02  0.00000000000E+00 0. -1.
</event>
<event>
 7    1  0.2090370E-015  0.9000773E+02  0.7816164E-02  0.1186339E+00
        -11   -1    0    0    0    0  0.00000000000E+00  0.00000000000E+00  0.45593999997E+02  0.45594000000E+02  0.51100000000E-03 0.  1.
         11   -1    0    0    0    0 -0.00000000000E+00 -0.00000000000E+00 -0.45593999997E+02  0.45594000000E+02  0.51100000000E-03 0. -1.
    9900012    2    1    2    0    0 -0.10676586993E+01 -0.28491688361E+00 -0.41468409654E+00  0.90007730697E+02  0.89999991942E+02 0.  0.
         12    1    1    2    0    0  0.10676586993E+01  0.28491688361E+00  0.41468409654E+00  0.11802693035E+01  0.00000000000E+00 0. -1.
         11    1    3    3    0    0  0.67911770078E+00 -0.82481756265E+01  0.30843461940E+01  0.88321454768E+01  0.51100000000E-03 0. -1.
        -11    1    3    3    0    0  0.16838845551E+02 -0.11070535529E+01  0.34222463256E+02  0.38156903420E+02  0.51100000000E-03 0.  1.
         12    1    3    3    0    0 -0.18585621951E+02  0.90703122958E+01 -0.37721493546E+02  0.43018681800E+02  0.00000000000E+00 0. -1.
</event>
<event>
 7    1  0.2090370E-015  0.9000767E+02  0.7816164E-02  0.1186339E+00
        -11   -1    0    0    0    0  0.00000000000E+00  0.00000000000E+00  0.45593999997E+02  0.45594000000E+02  0.51100000000E-03 0.  1.
         11   -1    0    0    0    0 -0.00000000000E+00 -0.00000000000E+00 -0.45593999997E+02  0.45594000000E+02  0.51100000000E-03 0. -1.
    9900012    2    1    2    0    0  0.28711378151E+00  0.57826198326E+00  0.98810473079E+00  0.90007672840E+02  0.89999933322E+02 0.  0.
         12    1    1    2    0    0 -0.28711378151E+00 -0.57826198326E+00 -0.98810473079E+00  0.11803271597E+01  0.00000000000E+00 0. -1.
         11    1    3    3    0    0  0.23133701225E+02  0.15885814095E+02  0.27340005598E+02  0.39179115970E+02  0.51100000000E-03 0. -1.
        -11    1    3    3    0    0  0.77560195370E+00  0.70054759377E+01  0.23944118048E+01  0.74438874021E+01  0.51100000000E-03 0.  1.
        -12    1    3    3    0    0 -0.23622189397E+02 -0.22313028050E+02 -0.28746312672E+02  0.43384669468E+02  0.00000000000E+00 0.  1.
</event>
<event>
 7    1  0.2090370E-015  0.9000686E+02  0.7816164E-02  0.1186341E+00
        -11   -1    0    0    0    0  0.00000000000E+00  0.00000000000E+00  0.45593999997E+02  0.45594000000E+02  0.51100000000E-03 0.  1.
         11   -1    0    0    0    0 -0.00000000000E+00 -0.00000000000E+00 -0.45593999997E+02  0.45594000000E+02  0.51100000000E-03 0. -1.
    9900012    2    1    2    0    0  0.55359136915E+00 -0.22986970146E+00  0.10177348304E+01  0.90006861706E+02  0.89999111477E+02 0.  0.
         12    1    1    2    0    0 -0.55359136915E+00  0.22986970146E+00 -0.10177348304E+01  0.11811382936E+01  0.00000000000E+00 0. -1.
         11    1    3    3    0    0  0.10338030316E+02 -0.22175360266E+02 -0.30368972687E+02  0.38998666337E+02  0.51100000000E-03 0. -1.
        -11    1    3    3    0    0  0.93645856891E+01  0.15572295357E+01  0.74877078924E+00  0.95226617556E+01  0.51100000000E-03 0.  1.
        -12    1    3    3    0    0 -0.19149024636E+02  0.20388261029E+02  0.30637936728E+02  0.41485533614E+02  0.00000000000E+00 0.  1.
</event>
<event>
 7    1  0.2090370E-015  0.9000775E+02  0.7816164E-02  0.1186339E+00
        -11   -1    0    0    0    0  0.00000000000E+00  0.00000000000E+00  0.45593999997E+02  0.45594000000E+02  0.51100000000E-03 0.  1.
         11   -1    0    0    0    0 -0.00000000000E+00 -0.00000000000E+00 -0.45593999997E+02  0.45594000000E+02  0.51100000000E-03 0. -1.
    9900012    2    1    2    0    0  0.47372639479E+00 -0.15475762501E+00  0.10698673441E+01  0.90007753096E+02  0.90000014637E+02 0.  0.
         12    1    1    2    0    0 -0.47372639479E+00  0.15475762501E+00 -0.10698673441E+01  0.11802469036E+01  0.00000000000E+00 0. -1.
         11    1    3    3    0    0 -0.78711983784E+01  0.88731411882E+01 -0.32177209848E+02  0.34293749173E+02  0.51100000000E-03 0. -1.
        -11    1    3    3    0    0  0.74520452215E+01 -0.18046069235E+02 -0.17123268362E+01  0.19599123865E+02  0.51100000000E-03 0.  1.
        -12    1    3    3    0    0  0.89287955165E+00  0.90181704220E+01  0.34959404028E+02  0.36114880059E+02  0.00000000000E+00 0.  1.
</event>
<event>
 7    1  0.2090370E-015  0.9000772E+02  0.7816164E-02  0.1186339E+00
        -11   -1    0    0    0    0  0.00000000000E+00  0.00000000000E+00  0.45593999997E+02  0.45594000000E+02  0.51100000000E-03 0. -1.
         11   -1    0    0    0    0 -0.00000000000E+00 -0.00000000000E+00 -0.45593999997E+02  0.45594000000E+02  0.51100000000E-03 0.  1.
    9900012    2    1    2    0    0  0.17564446280E+00  0.25954870872E+00 -0.11379120327E+01  0.90007720243E+02  0.89999981351E+02 0.  0.
         12    1    1    2    0    0 -0.17564446280E+00 -0.25954870872E+00  0.11379120327E+01  0.11802797565E+01  0.00000000000E+00 0. -1.
         11    1    3    3    0    0 -0.47887916649E+01 -0.81645609063E+01  0.20549595444E+01  0.96858370517E+01  0.51100000000E-03 0. -1.
        -11    1    3    3    0    0  0.21259182815E+02  0.20857295567E+02 -0.32805536379E+02  0.44307819284E+02  0.51100000000E-03 0.  1.
         12    1    3    3    0    0 -0.16294746688E+02 -0.12433185952E+02  0.29612664802E+02  0.36014063908E+02  0.00000000000E+00 0. -1.
</event>
<event>
 7    1  0.2090370E-015  0.9000776E+02  0.7816164E-02  0.1186339E+00
        -11   -1    0    0    0    0  0.00000000000E+00  0.00000000000E+00  0.45593999997E+02  0.45594000000E+02  0.51100000000E-03 0.  1.
         11   -1    0    0    0    0 -0.00000000000E+00 -0.00000000000E+00 -0.45593999997E+02  0.45594000000E+02  0.51100000000E-03 0. -1.
    9900012    2    1    2    0    0 -0.49136142233E+00  0.44889526207E+00  0.97468638285E+00  0.90007764198E+02  0.90000025885E+02 0.  0.
         12    1    1    2    0    0  0.49136142233E+00 -0.44889526207E+00 -0.97468638285E+00  0.11802358021E+01  0.00000000000E+00 0. -1.
         11    1    3    3    0    0 -0.30487138324E+02  0.15050903844E+02 -0.28688595914E+01  0.34120751243E+02  0.51100000000E-03 0. -1.
        -11    1    3    3    0    0 -0.54041235897E+00  0.13535824832E+02 -0.28069448607E+01  0.13834360813E+02  0.51100000000E-03 0.  1.
        -12    1    3    3    0    0  0.30536189261E+02 -0.28137833414E+02  0.66504908350E+01  0.42052652142E+02  0.00000000000E+00 0.  1.
</event>
<event>
 7    1  0.2090370E-015  0.9000768E+02  0.7816164E-02  0.1186339E+00
        -11   -1    0    0    0    0  0.00000000000E+00  0.00000000000E+00  0.45593999997E+02  0.45594000000E+02  0.51100000000E-03 0. -1.
         11   -1    0    0    0    0 -0.00000000000E+00 -0.00000000000E+00 -0.45593999997E+02  0.45594000000E+02  0.51100000000E-03 0.  1.
    9900012    2    1    2    0    0  0.72783876493E-01  0.11091417412E+01  0.39706311155E+00  0.90007681395E+02  0.89999941989E+02 0.  0.
         12    1    1    2    0    0 -0.72783876493E-01 -0.11091417412E+01 -0.39706311155E+00  0.11803186050E+01  0.00000000000E+00 0. -1.
         11    1    3    3    0    0 -0.69120361498E+01  0.14550065033E+01  0.34997394709E+01  0.78829857470E+01  0.51100000000E-03 0. -1.
        -11    1    3    3    0    0 -0.32801987312E+02  0.93263198962E+01 -0.17990408010E+02  0.38556522082E+02  0.51100000000E-03 0.  1.
         12    1    3    3    0    0  0.39786807338E+02 -0.96721846583E+01  0.14887731651E+02  0.43568173566E+02  0.00000000000E+00 0. -1.
</event>
<event>
 7    1  0.2090370E-015  0.9000767E+02  0.7816164E-02  0.1186339E+00
        -11   -1    0    0    0    0  0.00000000000E+00  0.00000000000E+00  0.45593999997E+02  0.45594000000E+02  0.51100000000E-03 0.  1.
         11   -1    0    0    0    0 -0.00000000000E+00 -0.00000000000E+00 -0.45593999997E+02  0.45594000000E+02  0.51100000000E-03 0. -1.
    9900012    2    1    2    0    0  0.68559467389E+00  0.68133248756E+00 -0.67744390939E+00  0.90007667731E+02  0.89999928145E+02 0.  0.
         12    1    1    2    0    0 -0.68559467389E+00 -0.68133248756E+00  0.67744390939E+00  0.11803322693E+01  0.00000000000E+00 0. -1.
         11    1    3    3    0    0 -0.75169431326E+01 -0.34719445936E+01 -0.80393217116E+01  0.11540776714E+02  0.51100000000E-03 0. -1.
        -11    1    3    3    0    0  0.67223799323E-01 -0.17917901673E+02 -0.29631764799E+02  0.34627982973E+02  0.51100000000E-03 0.  1.
         12    1    3    3    0    0  0.81353140072E+01  0.22071178754E+02  0.36993642601E+02  0.43838908044E+02  0.00000000000E+00 0. -1.
</event>
<event>
 7    1  0.2090370E-015  0.9000783E+02  0.7816164E-02  0.1186339E+00
        -11   -1    0    0    0    0  0.00000000000E+00  0.00000000000E+00  0.45593999997E+02  0.45594000000E+02  0.51100000000E-03 0. -1.
         11   -1    0    0    0    0 -0.00000000000E+00 -0.00000000000E+00 -0.45593999997E+02  0.45594000000E+02  0.51100000000E-03 0.  1.
    9900012    2    1    2    0    0  0.97567522475E+00 -0.66370381244E+00  0.19172129871E-01  0.90007825239E+02  0.90000087733E+02 0.  0.
         12    1    1    2    0    0 -0.97567522475E+00  0.66370381244E+00 -0.19172129871E-01  0.11801747605E+01  0.00000000000E+00 0. -1.
         11    1    3    3    0    0 -0.29424152113E+02  0.12409009161E+02  0.20311512591E+02  0.37846027267E+02  0.51100000000E-03 0. -1.
        -11    1    3    3    0    0 -0.67746120073E+01 -0.30074969286E+01  0.19804499055E+01  0.76721957558E+01  0.51100000000E-03 0.  1.
        -12    1    3    3    0    0  0.37174439345E+02 -0.10065216045E+02 -0.22272790367E+02  0.44489602216E+02  0.00000000000E+00 0.  1.
</event>
<event>
 7    1  0.2090370E-015  0.9000762E+02  0.7816164E-02  0.1186339E+00
        -11   -1    0    0    0    0  0.00000000000E+00  0.00000000000E+00  0.45593999997E+02  0.45594000000E+02  0.51100000000E-03 0. -1.
         11   -1    0    0    0    0 -0.00000000000E+00 -0.00000000000E+00 -0.45593999997E+02  0.45594000000E+02  0.51100000000E-03 0.  1.
    9900012    2    1    2    0    0  0.19556964750E+00  0.10091194644E+01 -0.58028691858E+00  0.90007617652E+02  0.89999877405E+02 0.  0.
         12    1    1    2    0    0 -0.19556964750E+00 -0.10091194644E+01  0.58028691858E+00  0.11803823483E+01  0.00000000000E+00 0. -1.
         11    1    3    3    0    0  0.61802876968E+01  0.51172842270E+01 -0.59211156222E+01  0.99720692109E+01  0.51100000000E-03 0. -1.
        -11    1    3    3    0    0  0.27681587243E+02 -0.27036495425E+02 -0.15458382239E+01  0.38725081966E+02  0.51100000000E-03 0.  1.
         12    1    3    3    0    0 -0.33666305293E+02  0.22928330662E+02  0.68866669276E+01  0.41310466475E+02  0.00000000000E+00 0. -1.
</event>
<event>
 7    1  0.2090370E-015  0.9000786E+02  0.7816164E-02  0.1186339E+00
        -11   -1    0    0    0    0  0.00000000000E+00  0.00000000000E+00  0.45593999997E+02  0.45594000000E+02  0.51100000000E-03 0. -1.
         11   -1    0    0    0    0 -0.00000000000E+00 -0.00000000000E+00 -0.45593999997E+02  0.45594000000E+02  0.51100000000E-03 0.  1.
    9900012    2    1    2    0    0 -0.84762236704E-01  0.11646682351E+01 -0.17053549260E+00  0.90007864801E+02  0.90000127816E+02 0.  0.
         12    1    1    2    0    0  0.84762236704E-01 -0.11646682351E+01  0.17053549260E+00  0.11801351994E+01  0.00000000000E+00 0. -1.
         11    1    3    3    0    0  0.52398764817E+01  0.77378261056E+00  0.95176473202E+01  0.10892229149E+02  0.51100000000E-03 0. -1.
        -11    1    3    3    0    0  0.49074293992E+01  0.34910413914E+02 -0.21416974772E+02  0.41249323286E+02  0.51100000000E-03 0.  1.
         12    1    3    3    0    0 -0.10232068118E+02 -0.34519528289E+02  0.11728791959E+02  0.37866312365E+02  0.00000000000E+00 0. -1.
</event>
<event>
 7    1  0.2090370E-015  0.9000776E+02  0.7816164E-02  0.1186339E+00
        -11   -1    0    0    0    0  0.00000000000E+00  0.00000000000E+00  0.45593999997E+02  0.45594000000E+02  0.51100000000E-03 0.  1.
         11   -1    0    0    0    0 -0.00000000000E+00 -0.00000000000E+00 -0.45593999997E+02  0.45594000000E+02  0.51100000000E-03 0. -1.
    9900012    2    1    2    0    0  0.18371761319E-01  0.68097638778E+00  0.96380049287E+00  0.90007755215E+02  0.90000016784E+02 0.  0.
         12    1    1    2    0    0 -0.18371761319E-01 -0.68097638778E+00 -0.96380049287E+00  0.11802447849E+01  0.00000000000E+00 0. -1.
         11    1    3    3    0    0 -0.80590839487E+01  0.26152330550E+01 -0.43115787223E+01  0.95067338957E+01  0.51100000000E-03 0. -1.
        -11    1    3    3    0    0  0.52056100727E+00  0.37168644020E+02 -0.89074036547E+01  0.38224611472E+02  0.51100000000E-03 0.  1.
         12    1    3    3    0    0  0.75568947027E+01 -0.39102900687E+02  0.14182782870E+02  0.42276409848E+02  0.00000000000E+00 0. -1.
</event>
<event>
 7    1  0.2090370E-015  0.9000768E+02  0.7816164E-02  0.1186339E+00
        -11   -1    0    0    0    0  0.00000000000E+00  0.00000000000E+00  0.45593999997E+02  0.45594000000E+02  0.51100000000E-03 0.  1.
         11   -1    0    0    0    0 -0.00000000000E+00 -0.00000000000E+00 -0.45593999997E+02  0.45594000000E+02  0.51100000000E-03 0. -1.
    9900012    2    1    2    0    0  0.47493501097E+00  0.10503391202E+01 -0.25373897190E+00  0.90007678435E+02  0.89999938990E+02 0.  0.
         12    1    1    2    0    0 -0.47493501097E+00 -0.10503391202E+01  0.25373897190E+00  0.11803215655E+01  0.00000000000E+00 0. -1.
         11    1    3    3    0    0  0.23718114961E+02  0.24672542395E+02 -0.17421707812E+02  0.38403114833E+02  0.51100000000E-03 0. -1.
        -11    1    3    3    0    0  0.54683887689E+01 -0.29943701625E+01 -0.65417572757E+01  0.90368200664E+01  0.51100000000E-03 0.  1.
        -12    1    3    3    0    0 -0.28711568719E+02 -0.20627833112E+02  0.23709726116E+02  0.42567743535E+02  0.00000000000E+00 0.  1.
</event>
<event>
 7    1  0.2090370E-015  0.9000777E+02  0.7816164E-02  0.1186339E+00
        -11   -1    0    0    0    0  0.00000000000E+00  0.00000000000E+00  0.45593999997E+02  0.45594000000E+02  0.51100000000E-03 0.  1.
         11   -1    0    0    0    0 -0.00000000000E+00 -0.00000000000E+00 -0.45593999997E+02  0.45594000000E+02  0.51100000000E-03 0. -1.
    9900012    2    1    2    0    0  0.10327650323E+01 -0.31260743720E+00  0.47813349963E+00  0.90007771774E+02  0.90000033562E+02 0.  0.
         12    1    1    2    0    0 -0.10327650323E+01  0.31260743720E+00 -0.47813349963E+00  0.11802282259E+01  0.00000000000E+00 0. -1.
         11    1    3    3    0    0 -0.11584857396E+02  0.94107934679E+01 -0.38599153766E+02  0.41384376597E+02  0.51100000000E-03 0. -1.
        -11    1    3    3    0    0 -0.67963914808E+01 -0.15367259838E+01  0.50667171147E+01  0.86153401843E+01  0.51100000000E-03 0.  1.
        -12    1    3    3    0    0  0.19414013909E+02 -0.81866749214E+01  0.34010570151E+02  0.40008054993E+02  0.00000000000E+00 0.  1.
</event>
<event>
 7    1  0.2090370E-015  0.9000786E+02  0.7816164E-02  0.1186339E+00
        -11   -1    0    0    0    0  0.00000000000E+00  0.00000000000E+00  0.45593999997E+02  0.45594000000E+02  0.51100000000E-03 0.  1.
         11   -1    0    0    0    0 -0.00000000000E+00 -0.00000000000E+00 -0.45593999997E+02  0.45594000000E+02  0.51100000000E-03 0. -1.
    9900012    2    1    2    0    0 -0.70911986750E+00  0.85782547265E+00  0.39244767290E+00  0.90007859880E+02  0.90000122830E+02 0.  0.
         12    1    1    2    0    0  0.70911986750E+00 -0.85782547265E+00 -0.39244767290E+00  0.11801401205E+01  0.00000000000E+00 0. -1.
         11    1    3    3    0    0  0.23156277404E+02  0.32309553388E+01 -0.50046729231E+00  0.23385951411E+02  0.51100000000E-03 0. -1.
        -11    1    3    3    0    0 -0.41123977356E+01  0.79302082927E+01  0.29236379477E+02  0.30570670648E+02  0.51100000000E-03 0.  1.
         12    1    3    3    0    0 -0.19752999536E+02 -0.10303338159E+02 -0.28343464511E+02  0.36051237821E+02  0.00000000000E+00 0. -1.
</event>
<event>
 7    1  0.2090370E-015  0.9000775E+02  0.7816164E-02  0.1186339E+00
        -11   -1    0    0    0    0  0.00000000000E+00  0.00000000000E+00  0.45593999997E+02  0.45594000000E+02  0.51100000000E-03 0.  1.
         11   -1    0    0    0    0 -0.00000000000E+00 -0.00000000000E+00 -0.45593999997E+02  0.45594000000E+02  0.51100000000E-03 0. -1.
    9900012    2    1    2    0    0 -0.84709775722E+00  0.16451307093E+00  0.80519739485E+00  0.90007753413E+02  0.90000014958E+02 0.  0.
         12    1    1    2    0    0  0.84709775722E+00 -0.16451307093E+00 -0.80519739485E+00  0.11802465867E+01  0.00000000000E+00 0. -1.
         11    1    3    3    0    0  0.69219745967E+01  0.17529072528E+02 -0.14491877562E+02  0.23773864464E+02  0.51100000000E-03 0. -1.
        -11    1    3    3    0    0  0.21711930725E+02 -0.15986824248E+02  0.23321368344E+02  0.35649301635E+02  0.51100000000E-03 0.  1.
         12    1    3    3    0    0 -0.29481003079E+02 -0.13777352091E+01 -0.80242933865E+01  0.30584587314E+02  0.00000000000E+00 0. -1.
</event>
<event>
 7    1  0.2090370E-015  0.9000774E+02  0.7816164E-02  0.1186339E+00
        -11   -1    0    0    0    0  0.00000000000E+00  0.00000000000E+00  0.45593999997E+02  0.45594000000E+02  0.51100000000E-03 0. -1.
         11   -1    0    0    0    0 -0.00000000000E+00 -0.00000000000E+00 -0.45593999997E+02  0.45594000000E+02  0.51100000000E-03 0.  1.
    9900012    2    1    2    0    0  0.98057175362E+00 -0.14918051436E+00 -0.63971006429E+00  0.90007743775E+02  0.90000005193E+02 0.  0.
         12    1    1    2    0    0 -0.98057175362E+00  0.14918051436E+00  0.63971006429E+00  0.11802562248E+01  0.00000000000E+00 0. -1.
         11    1    3    3    0    0 -0.68314138404E+00  0.10794373183E+01 -0.96903725719E+01  0.97742103475E+01  0.51100000000E-03 0. -1.
        -11    1    3    3    0    0  0.20430260219E+02  0.24411489644E+02 -0.19655936036E+02  0.37412192945E+02  0.51100000000E-03 0.  1.
         12    1    3    3    0    0 -0.18766547081E+02 -0.25640107477E+02  0.28706598544E+02  0.42821340482E+02  0.00000000000E+00 0. -1.
</event>
<event>
 7    1  0.2090370E-015  0.9000783E+02  0.7816164E-02  0.1186339E+00
        -11   -1    0    0    0    0  0.00000000000E+00  0.00000000000E+00  0.45593999997E+02  0.45594000000E+02  0.51100000000E-03 0.  1.
         11   -1    0    0    0    0 -0.00000000000E+00 -0.00000000000E+00 -0.45593999997E+02  0.45594000000E+02  0.51100000000E-03 0. -1.
    9900012    2    1    2    0    0  0.34169845431E+00 -0.75131687969E+00  0.84354760109E+00  0.90007827367E+02  0.90000089889E+02 0.  0.
         12    1    1    2    0    0 -0.34169845431E+00  0.75131687969E+00 -0.84354760109E+00  0.11801726326E+01  0.00000000000E+00 0. -1.
         11    1    3    3    0    0  0.11004793546E+01  0.33516745593E+02 -0.64115135391E+01  0.34142214282E+02  0.51100000000E-03 0. -1.
        -11    1    3    3    0    0  0.69732917371E+00  0.10517969501E+02  0.53305614238E+00  0.10554529810E+02  0.51100000000E-03 0.  1.
        -12    1    3    3    0    0 -0.14561100740E+01 -0.44786031973E+02  0.67220049978E+01  0.45311083276E+02  0.00000000000E+00 0.  1.
</event>
<event>
 7    1  0.2090370E-015  0.9000747E+02  0.7816164E-02  0.1186340E+00
        -11   -1    0    0    0    0  0.00000000000E+00  0.00000000000E+00  0.45593999997E+02  0.45594000000E+02  0.51100000000E-03 0. -1.
         11   -1    0    0    0    0 -0.00000000000E+00 -0.00000000000E+00 -0.45593999997E+02  0.45594000000E+02  0.51100000000E-03 0.  1.
    9900012    2    1    2    0    0  0.14003970013E+00  0.27400793260E+00 -0.11397156555E+01  0.90007473321E+02  0.89999731168E+02 0.  0.
         12    1    1    2    0    0 -0.14003970013E+00 -0.27400793260E+00  0.11397156555E+01  0.11805266791E+01  0.00000000000E+00 0. -1.
         11    1    3    3    0    0  0.62575496728E+01 -0.39278132109E+02 -0.94482579276E+01  0.40880290704E+02  0.51100000000E-03 0. -1.
        -11    1    3    3    0    0  0.53758525324E+01  0.23335788914E+01 -0.52640409024E+01  0.78775318328E+01  0.51100000000E-03 0.  1.
        -12    1    3    3    0    0 -0.11493362505E+02  0.37218561151E+02  0.13572583175E+02  0.41249650784E+02  0.00000000000E+00 0.  1.
</event>
<event>
 7    1  0.2090370E-015  0.9000772E+02  0.7816164E-02  0.1186339E+00
        -11   -1    0    0    0    0  0.00000000000E+00  0.00000000000E+00  0.45593999997E+02  0.45594000000E+02  0.51100000000E-03 0. -1.
         11   -1    0    0    0    0 -0.00000000000E+00 -0.00000000000E+00 -0.45593999997E+02  0.45594000000E+02  0.51100000000E-03 0.  1.
    9900012    2    1    2    0    0  0.63049974784E+00  0.63473109514E+00 -0.76983129772E+00  0.90007723032E+02  0.89999984176E+02 0.  0.
         12    1    1    2    0    0 -0.63049974784E+00 -0.63473109514E+00  0.76983129772E+00  0.11802769684E+01  0.00000000000E+00 0. -1.
         11    1    3    3    0    0 -0.12410351877E+01  0.42553860249E+01 -0.99809750546E+01  0.10921004618E+02  0.51100000000E-03 0. -1.
        -11    1    3    3    0    0  0.29909796627E+02 -0.84923182437E+00 -0.21925343854E+02  0.37094983924E+02  0.51100000000E-03 0.  1.
         12    1    3    3    0    0 -0.28038261692E+02 -0.27714231054E+01  0.31136487610E+02  0.41991734490E+02  0.00000000000E+00 0. -1.
</event>
<event>
 7    1  0.2090370E-015  0.9000778E+02  0.7816164E-02  0.1186339E+00
        -11   -1    0    0    0    0  0.00000000000E+00  0.00000000000E+00  0.45593999997E+02  0.45594000000E+02  0.51100000000E-03 0. -1.
         11   -1    0    0    0    0 -0.00000000000E+00 -0.00000000000E+00 -0.45593999997E+02  0.45594000000E+02  0.51100000000E-03 0.  1.
    9900012    2    1    2    0    0 -0.11039056057E+01  0.32100135256E+00 -0.26695456948E+00  0.90007782140E+02  0.90000044064E+02 0.  0.
         12    1    1    2    0    0  0.11039056057E+01 -0.32100135256E+00  0.26695456948E+00  0.11802178599E+01  0.00000000000E+00 0. -1.
         11    1    3    3    0    0  0.28006795803E+01  0.79115496420E+00 -0.20009082180E+02  0.20219621714E+02  0.51100000000E-03 0. -1.
        -11    1    3    3    0    0  0.19731074534E+02 -0.24113316669E+02  0.18705474254E+02  0.36340915100E+02  0.51100000000E-03 0.  1.
         12    1    3    3    0    0 -0.23635659719E+02  0.23643163057E+02  0.10366533571E+01  0.33447245326E+02  0.00000000000E+00 0. -1.
</event>
<event>
 7    1  0.2090370E-015  0.9000772E+02  0.7816164E-02  0.1186339E+00
        -11   -1    0    0    0    0  0.00000000000E+00  0.00000000000E+00  0.45593999997E+02  0.45594000000E+02  0.51100000000E-03 0. -1.
         11   -1    0    0    0    0 -0.00000000000E+00 -0.00000000000E+00 -0.45593999997E+02  0.45594000000E+02  0.51100000000E-03 0.  1.
    9900012    2    1    2    0    0 -0.65447493189E+00 -0.98194076032E+00  0.22492560098E-01  0.90007724181E+02  0.89999985340E+02 0.  0.
         12    1    1    2    0    0  0.65447493189E+00  0.98194076032E+00 -0.22492560098E-01  0.11802758188E+01  0.00000000000E+00 0. -1.
         11    1    3    3    0    0  0.35386211733E+02  0.19106120239E+01  0.12946773343E+02  0.37728680859E+02  0.51100000000E-03 0. -1.
        -11    1    3    3    0    0  0.54509740904E+01 -0.69167835898E+01 -0.38772003327E+01  0.96222500718E+01  0.51100000000E-03 0.  1.
        -12    1    3    3    0    0 -0.41491660755E+02  0.40242308056E+01 -0.90470804498E+01  0.42656793251E+02  0.00000000000E+00 0.  1.
</event>
<event>
 7    1  0.2090370E-015  0.9000769E+02  0.7816164E-02  0.1186339E+00
        -11   -1    0    0    0    0  0.00000000000E+00  0.00000000000E+00  0.45593999997E+02  0.45594000000E+02  0.51100000000E-03 0.  1.
         11   -1    0    0    0    0 -0.00000000000E+00 -0.00000000000E+00 -0.45593999997E+02  0.45594000000E+02  0.51100000000E-03 0. -1.
    9900012    2    1    2    0    0  0.85451794736E-01 -0.57966436905E+00  0.10246088034E+01  0.90007688181E+02  0.89999948865E+02 0.  0.
         12    1    1    2    0    0 -0.85451794736E-01  0.57966436905E+00 -0.10246088034E+01  0.11803118190E+01  0.00000000000E+00 0. -1.
         11    1    3    3    0    0 -0.11596973071E+01 -0.39650975304E+01  0.77607464635E+01  0.87918190496E+01  0.51100000000E-03 0. -1.
        -11    1    3    3    0    0 -0.33005208531E+02  0.44394682322E+01  0.19017924942E+02  0.38350151730E+02  0.51100000000E-03 0.  1.
         12    1    3    3    0    0  0.34250357632E+02 -0.10540350709E+01 -0.25754062602E+02  0.42865717402E+02  0.00000000000E+00 0. -1.
</event>
<event>
 7    1  0.2090370E-015  0.9000766E+02  0.7816164E-02  0.1186339E+00
        -11   -1    0    0    0    0  0.00000000000E+00  0.00000000000E+00  0.45593999997E+02  0.45594000000E+02  0.51100000000E-03 0. -1.
         11   -1    0    0    0    0 -0.00000000000E+00 -0.00000000000E+00 -0.45593999997E+02  0.45594000000E+02  0.51100000000E-03 0.  1.
    9900012    2    1    2    0    0 -0.72107291196E+00 -0.39918820473E+00 -0.84492293165E+00  0.90007664400E+02  0.89999924770E+02 0.  0.
         12    1    1    2    0    0  0.72107291196E+00  0.39918820473E+00  0.84492293165E+00  0.11803355996E+01  0.00000000000E+00 0. -1.
         11    1    3    3    0    0  0.91814103456E+01 -0.39394272914E+02  0.53357011427E+01  0.40800450259E+02  0.51100000000E-03 0. -1.
        -11    1    3    3    0    0 -0.91790287008E+01 -0.35746449258E+00  0.84920421879E+00  0.92251556529E+01  0.51100000000E-03 0.  1.
        -12    1    3    3    0    0 -0.72345455674E+00  0.39352549202E+02 -0.70298282932E+01  0.39982058489E+02  0.00000000000E+00 0.  1.
</event>
<event>
 7    1  0.2090370E-015  0.9000799E+02  0.7816164E-02  0.1186339E+00
        -11   -1    0    0    0    0  0.00000000000E+00  0.00000000000E+00  0.45593999997E+02  0.45594000000E+02  0.51100000000E-03 0.  1.
         11   -1    0    0    0    0 -0.00000000000E+00 -0.00000000000E+00 -0.45593999997E+02  0.45594000000E+02  0.51100000000E-03 0. -1.
    9900012    2    1    2    0    0 -0.55020602746E+00  0.92203973822E+00  0.48943161800E+00  0.90007988449E+02  0.90000253096E+02 0.  0.
         12    1    1    2    0    0  0.55020602746E+00 -0.92203973822E+00 -0.48943161800E+00  0.11800115509E+01  0.00000000000E+00 0. -1.
         11    1    3    3    0    0  0.75552619929E+01 -0.37588331877E+01  0.68064687027E+01  0.10841532511E+02  0.51100000000E-03 0. -1.
        -11    1    3    3    0    0  0.23475512450E+02  0.80554908066E+01  0.24526866658E+02  0.34893520963E+02  0.51100000000E-03 0.  1.
         12    1    3    3    0    0 -0.31580980470E+02 -0.33746178806E+01 -0.30843903742E+02  0.44272934975E+02  0.00000000000E+00 0. -1.
</event>
<event>
 7    1  0.2090370E-015  0.9000764E+02  0.7816164E-02  0.1186339E+00
        -11   -1    0    0    0    0  0.00000000000E+00  0.00000000000E+00  0.45593999997E+02  0.45594000000E+02  0.51100000000E-03 0.  1.
         11   -1    0    0    0    0 -0.00000000000E+00 -0.00000000000E+00 -0.45593999997E+02  0.45594000000E+02  0.51100000000E-03 0. -1.
    9900012    2    1    2    0    0  0.79011127740E+00  0.84530554598E+00 -0.23328922411E+00  0.90007643631E+02  0.89999903726E+02 0.  0.
         12    1    1    2    0    0 -0.79011127740E+00 -0.84530554598E+00  0.23328922411E+00  0.11803563694E+01  0.00000000000E+00 0. -1.
         11    1    3    3    0    0  0.13608177971E+02  0.26227189880E+02  0.20802702291E+02  0.36135860575E+02  0.51100000000E-03 0. -1.
        -11    1    3    3    0    0 -0.40477947924E+01  0.85880358025E+01  0.44725052436E+01  0.10494870416E+02  0.51100000000E-03 0.  1.
        -12    1    3    3    0    0 -0.87702719010E+01 -0.33969920136E+02 -0.25508496758E+02  0.43376912640E+02  0.00000000000E+00 0.  1.
</event>
<event>
 7    1  0.2090370E-015  0.9000765E+02  0.7816164E-02  0.1186339E+00
        -11   -1    0    0    0    0  0.00000000000E+00  0.00000000000E+00  0.45593999997E+02  0.45594000000E+02  0.51100000000E-03 0.  1.
         11   -1    0    0    0    0 -0.00000000000E+00 -0.00000000000E+00 -0.45593999997E+02  0.45594000000E+02  0.51100000000E-03 0. -1.
    9900012    2    1    2    0    0  0.64526716675E+00  0.47913940397E+00  0.86446004913E+00  0.90007646044E+02  0.89999906172E+02 0.  0.
         12    1    1    2    0    0 -0.64526716675E+00 -0.47913940397E+00 -0.86446004913E+00  0.11803539560E+01  0.00000000000E+00 0. -1.
         11    1    3    3    0    0 -0.11728976377E+02 -0.32529480856E+02  0.21275531948E+01  0.34644804726E+02  0.51100000000E-03 0. -1.
        -11    1    3    3    0    0 -0.48742021180E+01 -0.87609047383E+01 -0.17076495038E+01  0.10169924543E+02  0.51100000000E-03 0.  1.
        -12    1    3    3    0    0  0.17248445662E+02  0.41769524998E+02  0.44455635805E+00  0.45192916776E+02  0.00000000000E+00 0.  1.
</event>
<event>
 7    1  0.2090370E-015  0.9000770E+02  0.7816164E-02  0.1186339E+00
        -11   -1    0    0    0    0  0.00000000000E+00  0.00000000000E+00  0.45593999997E+02  0.45594000000E+02  0.51100000000E-03 0. -1.
         11   -1    0    0    0    0 -0.00000000000E+00 -0.00000000000E+00 -0.45593999997E+02  0.45594000000E+02  0.51100000000E-03 0.  1.
    9900012    2    1    2    0    0  0.10980375383E+01  0.29876152736E+00 -0.31332644132E+00  0.90007695656E+02  0.89999956439E+02 0.  0.
         12    1    1    2    0    0 -0.10980375383E+01 -0.29876152736E+00  0.31332644132E+00  0.11803043441E+01  0.00000000000E+00 0. -1.
         11    1    3    3    0    0 -0.54190740591E+01  0.32428369613E+01 -0.75956559215E+01  0.98780739193E+01  0.51100000000E-03 0. -1.
        -11    1    3    3    0    0 -0.24869436974E+02 -0.19819087209E+02 -0.17901890184E+02  0.36493325220E+02  0.51100000000E-03 0.  1.
         12    1    3    3    0    0  0.31386548571E+02  0.16875011775E+02  0.25184219664E+02  0.43636296517E+02  0.00000000000E+00 0. -1.
</event>
<event>
 7    1  0.2090370E-015  0.9000776E+02  0.7816164E-02  0.1186339E+00
        -11   -1    0    0    0    0  0.00000000000E+00  0.00000000000E+00  0.45593999997E+02  0.45594000000E+02  0.51100000000E-03 0.  1.
         11   -1    0    0    0    0 -0.00000000000E+00 -0.00000000000E+00 -0.45593999997E+02  0.45594000000E+02  0.51100000000E-03 0. -1.
    9900012    2    1    2    0    0  0.67916884446E+00  0.56401121338E+00  0.78332569726E+00  0.90007755061E+02  0.90000016628E+02 0.  0.
         12    1    1    2    0    0 -0.67916884446E+00 -0.56401121338E+00 -0.78332569726E+00  0.11802449390E+01  0.00000000000E+00 0. -1.
         11    1    3    3    0    0  0.13946099321E+02 -0.22068223076E+02 -0.29469606032E+02  0.39369503882E+02  0.51100000000E-03 0. -1.
        -11    1    3    3    0    0  0.26195114485E+01  0.71565122804E+01 -0.49097766329E+01  0.90655068857E+01  0.51100000000E-03 0.  1.
        -12    1    3    3    0    0 -0.15886441925E+02  0.15475722008E+02  0.35162708362E+02  0.41572744293E+02  0.00000000000E+00 0.  1.
</event>
<event>
 7    1  0.2090370E-015  0.9000775E+02  0.7816164E-02  0.1186339E+00
        -11   -1    0    0    0    0  0.00000000000E+00  0.00000000000E+00  0.45593999997E+02  0.45594000000E+02  0.51100000000E-03 0.  1.
         11   -1    0    0    0    0 -0.00000000000E+00 -0.00000000000E+00 -0.45593999997E+02  0.45594000000E+02  0.51100000000E-03 0. -1.
    9900012    2    1    2    0    0  0.85826033222E+00 -0.31831843038E+00  0.74502632214E+00  0.90007745095E+02  0.90000006530E+02 0.  0.
         12    1    1    2    0    0 -0.85826033222E+00  0.31831843038E+00 -0.74502632214E+00  0.11802549054E+01  0.00000000000E+00 0. -1.
         11    1    3    3    0    0 -0.15474206812E+01  0.39552080231E+01 -0.37058244408E+02  0.37300826534E+02  0.51100000000E-03 0. -1.
        -11    1    3    3    0    0 -0.53813482550E+01 -0.39955420580E+01 -0.55234262148E+01  0.86851311325E+01  0.51100000000E-03 0.  1.
        -12    1    3    3    0    0  0.77870292684E+01 -0.27798439547E+00  0.43326696945E+02  0.44021787428E+02  0.00000000000E+00 0.  1.
</event>
<event>
 7    1  0.2090370E-015  0.9000775E+02  0.7816164E-02  0.1186339E+00
        -11   -1    0    0    0    0  0.00000000000E+00  0.00000000000E+00  0.45593999997E+02  0.45594000000E+02  0.51100000000E-03 0.  1.
         11   -1    0    0    0    0 -0.00000000000E+00 -0.00000000000E+00 -0.45593999997E+02  0.45594000000E+02  0.51100000000E-03 0. -1.
    9900012    2    1    2    0    0  0.63983078101E+00  0.61990555242E+00  0.77415265499E+00  0.90007754832E+02  0.90000016396E+02 0.  0.
         12    1    1    2    0    0 -0.63983078101E+00 -0.61990555242E+00 -0.77415265499E+00  0.11802451675E+01  0.00000000000E+00 0. -1.
         11    1    3    3    0    0 -0.36807275262E+02 -0.13019195093E+02  0.27891863093E+01  0.39141467954E+02  0.51100000000E-03 0. -1.
        -11    1    3    3    0    0  0.13305416979E+01 -0.69339104811E+01  0.50826277678E+01  0.86995724641E+01  0.51100000000E-03 0.  1.
        -12    1    3    3    0    0  0.36116564345E+02  0.20573011126E+02 -0.70976614221E+01  0.42166714415E+02  0.00000000000E+00 0.  1.
</event>
<event>
 7    1  0.2090370E-015  0.9000762E+02  0.7816164E-02  0.1186339E+00
        -11   -1    0    0    0    0  0.00000000000E+00  0.00000000000E+00  0.45593999997E+02  0.45594000000E+02  0.51100000000E-03 0.  1.
         11   -1    0    0    0    0 -0.00000000000E+00 -0.00000000000E+00 -0.45593999997E+02  0.45594000000E+02  0.51100000000E-03 0. -1.
    9900012    2    1    2    0    0 -0.28942933284E+00 -0.93588915433E+00  0.65850393788E+00  0.90007624939E+02  0.89999884788E+02 0.  0.
         12    1    1    2    0    0  0.28942933284E+00  0.93588915433E+00 -0.65850393788E+00  0.11803750608E+01  0.00000000000E+00 0. -1.
         11    1    3    3    0    0  0.32406568692E+02  0.94156130870E+01 -0.10290810592E+02  0.35280876507E+02  0.51100000000E-03 0. -1.
        -11    1    3    3    0    0  0.90364545308E+01 -0.41731731360E+01 -0.28267488412E+01  0.10347144233E+02  0.51100000000E-03 0.  1.
        -12    1    3    3    0    0 -0.41732452556E+02 -0.61783291054E+01  0.13776063371E+02  0.44379604199E+02  0.00000000000E+00 0.  1.
</event>
<event>
 7    1  0.2090370E-015  0.9000742E+02  0.7816164E-02  0.1186340E+00
        -11   -1    0    0    0    0  0.00000000000E+00  0.00000000000E+00  0.45593999997E+02  0.45594000000E+02  0.51100000000E-03 0.  1.
         11   -1    0    0    0    0 -0.00000000000E+00 -0.00000000000E+00 -0.45593999997E+02  0.45594000000E+02  0.51100000000E-03 0. -1.
    9900012    2    1    2    0    0 -0.75307091194E+00  0.74214969895E+00  0.52522244428E+00  0.90007423620E+02  0.89999680811E+02 0.  0.
         12    1    1    2    0    0  0.75307091194E+00 -0.74214969895E+00 -0.52522244428E+00  0.11805763804E+01  0.00000000000E+00 0. -1.
         11    1    3    3    0    0 -0.31571809286E+02 -0.14258910884E+02  0.10859314489E+02  0.36304550577E+02  0.51100000000E-03 0. -1.
        -11    1    3    3    0    0 -0.65107977652E+01 -0.59728288174E+01 -0.59690071107E+01  0.10662749072E+02  0.51100000000E-03 0.  1.
        -12    1    3    3    0    0  0.37329536139E+02  0.20973889400E+02 -0.43650849343E+01  0.43040123971E+02  0.00000000000E+00 0.  1.
</event>
<event>
 7    1  0.2090370E-015  0.9000780E+02  0.7816164E-02  0.1186339E+00
        -11   -1    0    0    0    0  0.00000000000E+00  0.00000000000E+00  0.45593999997E+02  0.45594000000E+02  0.51100000000E-03 0. -1.
         11   -1    0    0    0    0 -0.00000000000E+00 -0.00000000000E+00 -0.45593999997E+02  0.45594000000E+02  0.51100000000E-03 0.  1.
    9900012    2    1    2    0    0 -0.80992812179E+00  0.67623151681E+00 -0.52877936635E+00  0.90007796524E+02  0.90000058638E+02 0.  0.
         12    1    1    2    0    0  0.80992812179E+00 -0.67623151681E+00  0.52877936635E+00  0.11802034761E+01  0.00000000000E+00 0. -1.
         11    1    3    3    0    0  0.66667988205E+01  0.12455466291E+02  0.67526726702E+01  0.15658334378E+02  0.51100000000E-03 0. -1.
        -11    1    3    3    0    0  0.25981607188E+02 -0.24375447832E+02  0.61613399185E+01  0.36154785007E+02  0.51100000000E-03 0.  1.
         12    1    3    3    0    0 -0.33458334130E+02  0.12596213058E+02 -0.13442791955E+02  0.38194677139E+02  0.00000000000E+00 0. -1.
</event>
<event>
 7    1  0.2090370E-015  0.9000773E+02  0.7816164E-02  0.1186339E+00
        -11   -1    0    0    0    0  0.00000000000E+00  0.00000000000E+00  0.45593999997E+02  0.45594000000E+02  0.51100000000E-03 0. -1.
         11   -1    0    0    0    0 -0.00000000000E+00 -0.00000000000E+00 -0.45593999997E+02  0.45594000000E+02  0.51100000000E-03 0.  1.
    9900012    2    1    2    0    0  0.18162572559E-01  0.11735113598E+01  0.12477354306E+00  0.90007734255E+02  0.89999995548E+02 0.  0.
         12    1    1    2    0    0 -0.18162572559E-01 -0.11735113598E+01 -0.12477354306E+00  0.11802657445E+01  0.00000000000E+00 0. -1.
         11    1    3    3    0    0 -0.54647806701E+00 -0.64745419229E+01 -0.97072384518E+01  0.11681130511E+02  0.51100000000E-03 0. -1.
        -11    1    3    3    0    0  0.17353605823E+02 -0.28196086485E+02  0.18329414317E+02  0.37843551070E+02  0.51100000000E-03 0.  1.
         12    1    3    3    0    0 -0.16788965183E+02  0.35844139768E+02 -0.84974023223E+01  0.40483052675E+02  0.00000000000E+00 0. -1.
</event>
<event>
 7    1  0.2090370E-015  0.9000771E+02  0.7816164E-02  0.1186339E+00
        -11   -1    0    0    0    0  0.00000000000E+00  0.00000000000E+00  0.45593999997E+02  0.45594000000E+02  0.51100000000E-03 0.  1.
         11   -1    0    0    0    0 -0.00000000000E+00 -0.00000000000E+00 -0.45593999997E+02  0.45594000000E+02  0.51100000000E-03 0. -1.
    9900012    2    1    2    0    0 -0.58835216486E+00  0.25637658326E+00  0.99055719273E+00  0.90007707335E+02  0.89999968272E+02 0.  0.
         12    1    1    2    0    0  0.58835216486E+00 -0.25637658326E+00 -0.99055719273E+00  0.11802926647E+01  0.00000000000E+00 0. -1.
         11    1    3    3    0    0 -0.16152540082E+01  0.65080523550E+01 -0.69768473631E+01  0.96767861584E+01  0.51100000000E-03 0. -1.
        -11    1    3    3    0    0 -0.22071771896E+02  0.10922567873E+02  0.33688186518E+02  0.41729599982E+02  0.51100000000E-03 0.  1.
         12    1    3    3    0    0  0.23098673739E+02 -0.17174243644E+02 -0.25720781962E+02  0.38601321195E+02  0.00000000000E+00 0. -1.
</event>
<event>
 7    1  0.2090370E-015  0.9000765E+02  0.7816164E-02  0.1186339E+00
        -11   -1    0    0    0    0  0.00000000000E+00  0.00000000000E+00  0.45593999997E+02  0.45594000000E+02  0.51100000000E-03 0.  1.
         11   -1    0    0    0    0 -0.00000000000E+00 -0.00000000000E+00 -0.45593999997E+02  0.45594000000E+02  0.51100000000E-03 0. -1.
    9900012    2    1    2    0    0 -0.32556471884E-01 -0.45908268493E+00  0.10869269902E+01  0.90007649579E+02  0.89999909753E+02 0.  0.
         12    1    1    2    0    0  0.32556471884E-01  0.45908268493E+00 -0.10869269902E+01  0.11803504214E+01  0.00000000000E+00 0. -1.
         11    1    3    3    0    0 -0.32183094842E+02 -0.10302612011E+02 -0.50641754853E+01  0.34169303204E+02  0.51100000000E-03 0. -1.
        -11    1    3    3    0    0 -0.77770060593E+01 -0.84833323234E+01  0.23087605176E+01  0.11737935336E+02  0.51100000000E-03 0.  1.
        -12    1    3    3    0    0  0.39927544429E+02  0.18326861649E+02  0.38423419579E+01  0.44100411039E+02  0.00000000000E+00 0.  1.
</event>
<event>
 7    1  0.2090370E-015  0.9000775E+02  0.7816164E-02  0.1186339E+00
        -11   -1    0    0    0    0  0.00000000000E+00  0.00000000000E+00  0.45593999997E+02  0.45594000000E+02  0.51100000000E-03 0.  1.
         11   -1    0    0    0    0 -0.00000000000E+00 -0.00000000000E+00 -0.45593999997E+02  0.45594000000E+02  0.51100000000E-03 0. -1.
    9900012    2    1    2    0    0 -0.10156900013E+01  0.24194812072E-01  0.60064062068E+00  0.90007753957E+02  0.90000015509E+02 0.  0.
         12    1    1    2    0    0  0.10156900013E+01 -0.24194812072E-01 -0.60064062068E+00  0.11802460433E+01  0.00000000000E+00 0. -1.
         11    1    3    3    0    0 -0.31240572863E+02  0.60541580738E+01 -0.19802139816E+02  0.37480007529E+02  0.51100000000E-03 0. -1.
        -11    1    3    3    0    0 -0.66628862325E+01 -0.53762811728E+01 -0.27246081016E+01  0.89845390402E+01  0.51100000000E-03 0.  1.
        -12    1    3    3    0    0  0.36887769094E+02 -0.65368208893E+00  0.23127388539E+02  0.43543207388E+02  0.00000000000E+00 0.  1.
</event>
<event>
 7    1  0.2090370E-015  0.9000774E+02  0.7816164E-02  0.1186339E+00
        -11   -1    0    0    0    0  0.00000000000E+00  0.00000000000E+00  0.45593999997E+02  0.45594000000E+02  0.51100000000E-03 0.  1.
         11   -1    0    0    0    0 -0.00000000000E+00 -0.00000000000E+00 -0.45593999997E+02  0.45594000000E+02  0.51100000000E-03 0. -1.
    9900012    2    1    2    0    0  0.11116395151E+01  0.23572130578E+00  0.31891436164E+00  0.90007740149E+02  0.90000001519E+02 0.  0.
         12    1    1    2    0    0 -0.11116395151E+01 -0.23572130578E+00 -0.31891436164E+00  0.11802598509E+01  0.00000000000E+00 0. -1.
         11    1    3    3    0    0 -0.16317492999E+02  0.23837801832E+02 -0.21529219455E+02  0.36027887317E+02  0.51100000000E-03 0. -1.
        -11    1    3    3    0    0 -0.66201153934E+00 -0.57007080044E+01  0.27346143464E+02  0.27941866324E+02  0.51100000000E-03 0.  1.
        -12    1    3    3    0    0  0.18091144053E+02 -0.17901372522E+02 -0.54980096471E+01  0.26037986508E+02  0.00000000000E+00 0.  1.
</event>
<event>
 7    1  0.2090370E-015  0.9000776E+02  0.7816164E-02  0.1186339E+00
        -11   -1    0    0    0    0  0.00000000000E+00  0.00000000000E+00  0.45593999997E+02  0.45594000000E+02  0.51100000000E-03 0.  1.
         11   -1    0    0    0    0 -0.00000000000E+00 -0.00000000000E+00 -0.45593999997E+02  0.45594000000E+02  0.51100000000E-03 0. -1.
    9900012    2    1    2    0    0  0.72128792144E+00 -0.88282923282E+00  0.30550440200E+00  0.90007755678E+02  0.90000017253E+02 0.  0.
         12    1    1    2    0    0 -0.72128792144E+00  0.88282923282E+00 -0.30550440200E+00  0.11802443220E+01  0.00000000000E+00 0. -1.
         11    1    3    3    0    0  0.11299610619E+01  0.10014745722E+02  0.31730065921E+01  0.10565979129E+02  0.51100000000E-03 0. -1.
        -11    1    3    3    0    0 -0.18160333358E+02  0.77961290390E+01  0.31070306798E+02  0.36823108240E+02  0.51100000000E-03 0.  1.
         12    1    3    3    0    0  0.17751660218E+02 -0.18693703993E+02 -0.33937808988E+02  0.42618668309E+02  0.00000000000E+00 0. -1.
</event>
<event>
 7    1  0.2090370E-015  0.9000769E+02  0.7816164E-02  0.1186339E+00
        -11   -1    0    0    0    0  0.00000000000E+00  0.00000000000E+00  0.45593999997E+02  0.45594000000E+02  0.51100000000E-03 0. -1.
         11   -1    0    0    0    0 -0.00000000000E+00 -0.00000000000E+00 -0.45593999997E+02  0.45594000000E+02  0.51100000000E-03 0.  1.
    9900012    2    1    2    0    0 -0.89743584398E+00  0.75272202955E+00  0.14542524773E+00  0.90007690697E+02  0.89999951414E+02 0.  0.
         12    1    1    2    0    0  0.89743584398E+00 -0.75272202955E+00 -0.14542524773E+00  0.11803093029E+01  0.00000000000E+00 0. -1.
         11    1    3    3    0    0 -0.17587813576E+02 -0.28225073980E+02  0.12852752318E+02  0.35653600519E+02  0.51100000000E-03 0. -1.
        -11    1    3    3    0    0 -0.85193822577E+01 -0.24489064918E+01  0.51868933553E+01  0.10270388503E+02  0.51100000000E-03 0.  1.
        -12    1    3    3    0    0  0.25209759989E+02  0.31426702501E+02 -0.17894220426E+02  0.44083701676E+02  0.00000000000E+00 0.  1.
</event>
<event>
 7    1  0.2090370E-015  0.9000768E+02  0.7816164E-02  0.1186339E+00
        -11   -1    0    0    0    0  0.00000000000E+00  0.00000000000E+00  0.45593999997E+02  0.45594000000E+02  0.51100000000E-03 0. -1.
         11   -1    0    0    0    0 -0.00000000000E+00 -0.00000000000E+00 -0.45593999997E+02  0.45594000000E+02  0.51100000000E-03 0.  1.
    9900012    2    1    2    0    0  0.86324873218E+00 -0.20799710789E+00 -0.77762369875E+00  0.90007678100E+02  0.89999938651E+02 0.  0.
         12    1    1    2    0    0 -0.86324873218E+00  0.20799710789E+00  0.77762369875E+00  0.11803218999E+01  0.00000000000E+00 0. -1.
         11    1    3    3    0    0 -0.33591768484E+02  0.49545815219E+01  0.29170004242E+01  0.34080253515E+02  0.51100000000E-03 0. -1.
        -11    1    3    3    0    0 -0.64992286808E+01  0.98087401777E+01 -0.36595029981E+01  0.12322472145E+02  0.51100000000E-03 0.  1.
        -12    1    3    3    0    0  0.40954245896E+02 -0.14971318807E+02 -0.35121124784E-01  0.43604952440E+02  0.00000000000E+00 0.  1.
</event>
<event>
 7    1  0.2090370E-015  0.9000805E+02  0.7816164E-02  0.1186338E+00
        -11   -1    0    0    0    0  0.00000000000E+00  0.00000000000E+00  0.45593999997E+02  0.45594000000E+02  0.51100000000E-03 0.  1.
         11   -1    0    0    0    0 -0.00000000000E+00 -0.00000000000E+00 -0.45593999997E+02  0.45594000000E+02  0.51100000000E-03 0. -1.
    9900012    2    1    2    0    0 -0.35573787997E+00  0.68857748447E+00  0.88971928676E+00  0.90008047119E+02  0.90000312541E+02 0.  0.
         12    1    1    2    0    0  0.35573787997E+00 -0.68857748447E+00 -0.88971928676E+00  0.11799528807E+01  0.00000000000E+00 0. -1.
         11    1    3    3    0    0 -0.89055288832E+01  0.19469264660E+01  0.96438443475E+01  0.13270369302E+02  0.51100000000E-03 0. -1.
        -11    1    3    3    0    0 -0.31741846592E+02 -0.10564119549E+01  0.85450220440E+01  0.32888877045E+02  0.51100000000E-03 0.  1.
         12    1    3    3    0    0  0.40291637595E+02 -0.20193702663E+00 -0.17299147105E+02  0.43848800773E+02  0.00000000000E+00 0. -1.
</event>
<event>
 7    1  0.2090370E-015  0.9000767E+02  0.7816164E-02  0.1186339E+00
        -11   -1    0    0    0    0  0.00000000000E+00  0.00000000000E+00  0.45593999997E+02  0.45594000000E+02  0.51100000000E-03 0.  1.
         11   -1    0    0    0    0 -0.00000000000E+00 -0.00000000000E+00 -0.45593999997E+02  0.45594000000E+02  0.51100000000E-03 0. -1.
    9900012    2    1    2    0    0  0.56552085648E+00  0.92604323546E+00 -0.46456183183E+00  0.90007666315E+02  0.89999926710E+02 0.  0.
         12    1    1    2    0    0 -0.56552085648E+00 -0.92604323546E+00  0.46456183183E+00  0.11803336853E+01  0.00000000000E+00 0. -1.
         11    1    3    3    0    0 -0.59761150599E+01  0.39675756435E+01 -0.50457858895E+01  0.87701518345E+01  0.51100000000E-03 0. -1.
        -11    1    3    3    0    0 -0.12518529762E+02  0.20136281460E+02  0.32513734828E+02  0.40240854503E+02  0.51100000000E-03 0.  1.
         12    1    3    3    0    0  0.19060165679E+02 -0.23177813868E+02 -0.27932510770E+02  0.40996659977E+02  0.00000000000E+00 0. -1.
</event>
<event>
 7    1  0.2090370E-015  0.9000780E+02  0.7816164E-02  0.1186339E+00
        -11   -1    0    0    0    0  0.00000000000E+00  0.00000000000E+00  0.45593999997E+02  0.45594000000E+02  0.51100000000E-03 0.  1.
         11   -1    0    0    0    0 -0.00000000000E+00 -0.00000000000E+00 -0.45593999997E+02  0.45594000000E+02  0.51100000000E-03 0. -1.
    9900012    2    1    2    0    0 -0.20842665964E+00 -0.25744616335E+00  0.11327650143E+01  0.90007797993E+02  0.90000060127E+02 0.  0.
         12    1    1    2    0    0  0.20842665964E+00  0.25744616335E+00 -0.11327650143E+01  0.11802020069E+01  0.00000000000E+00 0. -1.
         11    1    3    3    0    0 -0.12700792227E+02 -0.31311846543E+02 -0.17350052357E+02  0.37983761981E+02  0.51100000000E-03 0. -1.
        -11    1    3    3    0    0 -0.86770209218E+00 -0.74452191961E+01  0.53474258933E+01  0.92075599235E+01  0.51100000000E-03 0.  1.
        -12    1    3    3    0    0  0.13360067660E+02  0.38499619576E+02  0.13135391478E+02  0.42816476089E+02  0.00000000000E+00 0.  1.
</event>
<event>
 7    1  0.2090370E-015  0.9000782E+02  0.7816164E-02  0.1186339E+00
        -11   -1    0    0    0    0  0.00000000000E+00  0.00000000000E+00  0.45593999997E+02  0.45594000000E+02  0.51100000000E-03 0.  1.
         11   -1    0    0    0    0 -0.00000000000E+00 -0.00000000000E+00 -0.45593999997E+02  0.45594000000E+02  0.51100000000E-03 0. -1.
    9900012    2    1    2    0    0 -0.60793007752E-01 -0.32659550163E+00  0.11324594483E+01  0.90007820008E+02  0.90000082432E+02 0.  0.
         12    1    1    2    0    0  0.60793007752E-01  0.32659550163E+00 -0.11324594483E+01  0.11801799920E+01  0.00000000000E+00 0. -1.
         11    1    3    3    0    0  0.24859374690E+02 -0.23001598873E+02 -0.18830481616E+01  0.33920612190E+02  0.51100000000E-03 0. -1.
        -11    1    3    3    0    0  0.10190609262E-01 -0.32379751304E+01 -0.15365674736E+02  0.15703138130E+02  0.51100000000E-03 0.  1.
        -12    1    3    3    0    0 -0.24930358307E+02  0.25912978502E+02  0.18381182346E+02  0.40384069688E+02  0.00000000000E+00 0.  1.
</event>
<event>
 7    1  0.2090370E-015  0.9000776E+02  0.7816164E-02  0.1186339E+00
        -11   -1    0    0    0    0  0.00000000000E+00  0.00000000000E+00  0.45593999997E+02  0.45594000000E+02  0.51100000000E-03 0.  1.
         11   -1    0    0    0    0 -0.00000000000E+00 -0.00000000000E+00 -0.45593999997E+02  0.45594000000E+02  0.51100000000E-03 0. -1.
    9900012    2    1    2    0    0 -0.75162832336E+00  0.33294355215E+00  0.84686329510E+00  0.90007756811E+02  0.90000018401E+02 0.  0.
         12    1    1    2    0    0  0.75162832336E+00 -0.33294355215E+00 -0.84686329510E+00  0.11802431893E+01  0.00000000000E+00 0. -1.
         11    1    3    3    0    0  0.62012046033E+01 -0.47661799876E+01  0.59879982828E+01  0.98502555248E+01  0.51100000000E-03 0. -1.
        -11    1    3    3    0    0  0.13098232251E+02 -0.19150220934E+01  0.33523141962E+02  0.36042087134E+02  0.51100000000E-03 0.  1.
         12    1    3    3    0    0 -0.20051065178E+02  0.70141456332E+01 -0.38664276950E+02  0.44115414152E+02  0.00000000000E+00 0. -1.
</event>
<event>
 7    1  0.2090370E-015  0.9000776E+02  0.7816164E-02  0.1186339E+00
        -11   -1    0    0    0    0  0.00000000000E+00  0.00000000000E+00  0.45593999997E+02  0.45594000000E+02  0.51100000000E-03 0.  1.
         11   -1    0    0    0    0 -0.00000000000E+00 -0.00000000000E+00 -0.45593999997E+02  0.45594000000E+02  0.51100000000E-03 0. -1.
    9900012    2    1    2    0    0  0.49396849618E-01  0.79465688140E-01  0.11765300941E+01  0.90007755150E+02  0.90000016718E+02 0.  0.
         12    1    1    2    0    0 -0.49396849618E-01 -0.79465688140E-01 -0.11765300941E+01  0.11802448503E+01  0.00000000000E+00 0. -1.
         11    1    3    3    0    0 -0.96323371685E+01  0.15532666524E+02 -0.30508750329E+02  0.35564441449E+02  0.51100000000E-03 0. -1.
        -11    1    3    3    0    0  0.21840608874E+00  0.11402120408E+02 -0.56960920666E+00  0.11418428348E+02  0.51100000000E-03 0.  1.
        -12    1    3    3    0    0  0.94633279294E+01 -0.26855321244E+02  0.32254889630E+02  0.43024885353E+02  0.00000000000E+00 0.  1.
</event>
<event>
 7    1  0.2090370E-015  0.9000775E+02  0.7816164E-02  0.1186339E+00
        -11   -1    0    0    0    0  0.00000000000E+00  0.00000000000E+00  0.45593999997E+02  0.45594000000E+02  0.51100000000E-03 0.  1.
         11   -1    0    0    0    0 -0.00000000000E+00 -0.00000000000E+00 -0.45593999997E+02  0.45594000000E+02  0.51100000000E-03 0. -1.
    9900012    2    1    2    0    0  0.62086718515E+00 -0.99592627888E+00 -0.12506088933E+00  0.90007751958E+02  0.90000013484E+02 0.  0.
         12    1    1    2    0    0 -0.62086718515E+00  0.99592627888E+00  0.12506088933E+00  0.11802480420E+01  0.00000000000E+00 0. -1.
         11    1    3    3    0    0 -0.15358224642E+02 -0.27647890166E+02 -0.21038495551E+02  0.37985512897E+02  0.51100000000E-03 0. -1.
        -11    1    3    3    0    0 -0.99384018276E+01 -0.62939957240E+00  0.53127767420E+01  0.11286876082E+02  0.51100000000E-03 0.  1.
        -12    1    3    3    0    0  0.25917493654E+02  0.27281363459E+02  0.15600657920E+02  0.40735362979E+02  0.00000000000E+00 0.  1.
</event>
<event>
 7    1  0.2090370E-015  0.9000776E+02  0.7816164E-02  0.1186339E+00
        -11   -1    0    0    0    0  0.00000000000E+00  0.00000000000E+00  0.45593999997E+02  0.45594000000E+02  0.51100000000E-03 0. -1.
         11   -1    0    0    0    0 -0.00000000000E+00 -0.00000000000E+00 -0.45593999997E+02  0.45594000000E+02  0.51100000000E-03 0.  1.
    9900012    2    1    2    0    0  0.14329157401E+00  0.99571508879E+00 -0.61724708955E+00  0.90007756388E+02  0.90000017973E+02 0.  0.
         12    1    1    2    0    0 -0.14329157401E+00 -0.99571508879E+00  0.61724708955E+00  0.11802436116E+01  0.00000000000E+00 0. -1.
         11    1    3    3    0    0 -0.83750972892E+01  0.40244853971E+01 -0.54474295881E+01  0.10770943631E+02  0.51100000000E-03 0. -1.
        -11    1    3    3    0    0 -0.21906568163E+01 -0.18335476365E+02 -0.32564416692E+02  0.37435676908E+02  0.51100000000E-03 0.  1.
         12    1    3    3    0    0  0.10709045680E+02  0.15306706057E+02  0.37394599191E+02  0.41801135849E+02  0.00000000000E+00 0. -1.
</event>
<event>
 7    1  0.2090370E-015  0.9000767E+02  0.7816164E-02  0.1186339E+00
        -11   -1    0    0    0    0  0.00000000000E+00  0.00000000000E+00  0.45593999997E+02  0.45594000000E+02  0.51100000000E-03 0. -1.
         11   -1    0    0    0    0 -0.00000000000E+00 -0.00000000000E+00 -0.45593999997E+02  0.45594000000E+02  0.51100000000E-03 0.  1.
    9900012    2    1    2    0    0  0.13434866824E+00 -0.96970587745E+00 -0.65938977331E+00  0.90007672111E+02  0.89999932582E+02 0.  0.
         12    1    1    2    0    0 -0.13434866824E+00  0.96970587745E+00  0.65938977331E+00  0.11803278894E+01  0.00000000000E+00 0. -1.
         11    1    3    3    0    0  0.22544756548E+02  0.89847205465E+00  0.29890064799E+02  0.37449823415E+02  0.51100000000E-03 0. -1.
        -11    1    3    3    0    0  0.26425891664E+01 -0.75339821447E+01  0.44532078762E+01  0.91419486495E+01  0.51100000000E-03 0.  1.
        -12    1    3    3    0    0 -0.25052997047E+02  0.56658042126E+01 -0.35002662448E+02  0.43415900047E+02  0.00000000000E+00 0.  1.
</event>
<event>
 7    1  0.2215102E-015  0.9000771E+02  0.7816164E-02  0.1186339E+00
        -11   -1    0    0    0    0  0.00000000000E+00  0.00000000000E+00  0.45593999997E+02  0.45594000000E+02  0.51100000000E-03 0.  1.
         11   -1    0    0    0    0 -0.00000000000E+00 -0.00000000000E+00 -0.45593999997E+02  0.45594000000E+02  0.51100000000E-03 0. -1.
    9900012    2    1    2    0    0 -0.12484493192E+00 -0.67111012431E+00  0.96286208715E+00  0.90007712554E+02  0.89999973560E+02 0.  0.
         12    1    1    2    0    0  0.12484493192E+00  0.67111012431E+00 -0.96286208715E+00  0.11802874459E+01  0.00000000000E+00 0. -1.
         11    1    3    3    0    0 -0.17860825706E+02 -0.56843350611E+01 -0.34607659483E+02  0.39357475213E+02  0.51100000000E-03 0. -1.
        -11    1    3    3    0    0  0.59129268376E+01 -0.80642383356E+01 -0.10025028070E+01  0.10049858499E+02  0.51100000000E-03 0.  1.
        -12    1    3    3    0    0  0.11823053936E+02  0.13077463272E+02  0.36573024377E+02  0.40600378842E+02  0.00000000000E+00 0.  1.
</event>
<event>
 7    1  0.2090370E-015  0.9000773E+02  0.7816164E-02  0.1186339E+00
        -11   -1    0    0    0    0  0.00000000000E+00  0.00000000000E+00  0.45593999997E+02  0.45594000000E+02  0.51100000000E-03 0.  1.
         11   -1    0    0    0    0 -0.00000000000E+00 -0.00000000000E+00 -0.45593999997E+02  0.45594000000E+02  0.51100000000E-03 0. -1.
    9900012    2    1    2    0    0 -0.84063400135E+00 -0.11784396220E+00  0.82005160636E+00  0.90007729963E+02  0.89999991198E+02 0.  0.
         12    1    1    2    0    0  0.84063400135E+00  0.11784396220E+00 -0.82005160636E+00  0.11802700372E+01  0.00000000000E+00 0. -1.
         11    1    3    3    0    0  0.41237747127E+01  0.44461224086E+01  0.61841418570E+01  0.86612431627E+01  0.51100000000E-03 0. -1.
        -11    1    3    3    0    0  0.68009532094E+01 -0.12855971205E+01  0.36801980091E+02  0.37447182316E+02  0.51100000000E-03 0.  1.
         12    1    3    3    0    0 -0.11765361923E+02 -0.32783692503E+01 -0.42166070342E+02  0.43899304484E+02  0.00000000000E+00 0. -1.
</event>
<event>
 7    1  0.2090370E-015  0.9000771E+02  0.7816164E-02  0.1186339E+00
        -11   -1    0    0    0    0  0.00000000000E+00  0.00000000000E+00  0.45593999997E+02  0.45594000000E+02  0.51100000000E-03 0.  1.
         11   -1    0    0    0    0 -0.00000000000E+00 -0.00000000000E+00 -0.45593999997E+02  0.45594000000E+02  0.51100000000E-03 0. -1.
    9900012    2    1    2    0    0  0.71827726272E+00  0.59255988633E+00  0.72527893206E+00  0.90007712334E+02  0.89999973337E+02 0.  0.
         12    1    1    2    0    0 -0.71827726272E+00 -0.59255988633E+00 -0.72527893206E+00  0.11802876659E+01  0.00000000000E+00 0. -1.
         11    1    3    3    0    0  0.23025788534E+02 -0.25411487013E+02 -0.22541692221E+02  0.41037281809E+02  0.51100000000E-03 0. -1.
        -11    1    3    3    0    0 -0.28164852671E+01 -0.54215264795E+01  0.31669200238E+01  0.68814912139E+01  0.51100000000E-03 0.  1.
        -12    1    3    3    0    0 -0.19491026004E+02  0.31425573379E+02  0.20100051129E+02  0.42088939311E+02  0.00000000000E+00 0.  1.
</event>
<event>
 7    1  0.2090370E-015  0.9000784E+02  0.7816164E-02  0.1186339E+00
        -11   -1    0    0    0    0  0.00000000000E+00  0.00000000000E+00  0.45593999997E+02  0.45594000000E+02  0.51100000000E-03 0.  1.
         11   -1    0    0    0    0 -0.00000000000E+00 -0.00000000000E+00 -0.45593999997E+02  0.45594000000E+02  0.51100000000E-03 0. -1.
    9900012    2    1    2    0    0  0.25720731872E+00 -0.11492838197E+01 -0.75948449993E-01  0.90007840235E+02  0.90000102926E+02 0.  0.
         12    1    1    2    0    0 -0.25720731872E+00  0.11492838197E+01  0.75948449993E-01  0.11801597647E+01  0.00000000000E+00 0. -1.
         11    1    3    3    0    0  0.67582789182E+01  0.77981195564E+01 -0.45428322800E+01  0.11274853788E+02  0.51100000000E-03 0. -1.
        -11    1    3    3    0    0  0.19365749694E+02  0.24725659838E+02  0.15265090017E+02  0.34920101505E+02  0.51100000000E-03 0.  1.
         12    1    3    3    0    0 -0.25866821294E+02 -0.33673063215E+02 -0.10798206187E+02  0.43812884942E+02  0.00000000000E+00 0. -1.
</event>
<event>
 7    1  0.2090370E-015  0.9000768E+02  0.7816164E-02  0.1186339E+00
        -11   -1    0    0    0    0  0.00000000000E+00  0.00000000000E+00  0.45593999997E+02  0.45594000000E+02  0.51100000000E-03 0. -1.
         11   -1    0    0    0    0 -0.00000000000E+00 -0.00000000000E+00 -0.45593999997E+02  0.45594000000E+02  0.51100000000E-03 0.  1.
    9900012    2    1    2    0    0 -0.40386752057E+00 -0.91521891375E+00 -0.62643505985E+00  0.90007679908E+02  0.89999940483E+02 0.  0.
         12    1    1    2    0    0  0.40386752057E+00  0.91521891375E+00  0.62643505985E+00  0.11803200915E+01  0.00000000000E+00 0. -1.
         11    1    3    3    0    0  0.11197330282E+02  0.11482790304E+01  0.37609961751E+02  0.39258221729E+02  0.51100000000E-03 0. -1.
        -11    1    3    3    0    0 -0.68602856774E+01  0.47130224546E+01  0.28816385482E+01  0.88079476166E+01  0.51100000000E-03 0.  1.
        -12    1    3    3    0    0 -0.47409121252E+01 -0.67765203988E+01 -0.41118035359E+02  0.41941510563E+02  0.00000000000E+00 0.  1.
</event>
<event>
 7    1  0.2090370E-015  0.9000777E+02  0.7816164E-02  0.1186339E+00
        -11   -1    0    0    0    0  0.00000000000E+00  0.00000000000E+00  0.45593999997E+02  0.45594000000E+02  0.51100000000E-03 0.  1.
         11   -1    0    0    0    0 -0.00000000000E+00 -0.00000000000E+00 -0.45593999997E+02  0.45594000000E+02  0.51100000000E-03 0. -1.
    9900012    2    1    2    0    0 -0.67217913880E-01  0.10330337525E+01  0.56679421152E+00  0.90007774318E+02  0.90000036139E+02 0.  0.
         12    1    1    2    0    0  0.67217913880E-01 -0.10330337525E+01 -0.56679421152E+00  0.11802256818E+01  0.00000000000E+00 0. -1.
         11    1    3    3    0    0 -0.12061110216E+01 -0.85912219724E+01 -0.80591252126E+00  0.87128235394E+01  0.51100000000E-03 0. -1.
        -11    1    3    3    0    0 -0.23686459969E+02  0.31626905658E+02  0.18873022083E+02  0.43789273917E+02  0.51100000000E-03 0.  1.
         12    1    3    3    0    0  0.24825353077E+02 -0.22002649934E+02 -0.17500315350E+02  0.37505676862E+02  0.00000000000E+00 0. -1.
</event>
<event>
 7    1  0.2090370E-015  0.9000762E+02  0.7816164E-02  0.1186339E+00
        -11   -1    0    0    0    0  0.00000000000E+00  0.00000000000E+00  0.45593999997E+02  0.45594000000E+02  0.51100000000E-03 0. -1.
         11   -1    0    0    0    0 -0.00000000000E+00 -0.00000000000E+00 -0.45593999997E+02  0.45594000000E+02  0.51100000000E-03 0.  1.
    9900012    2    1    2    0    0  0.23152965080E+00  0.24628047059E+00 -0.11309406630E+01  0.90007624283E+02  0.89999884124E+02 0.  0.
         12    1    1    2    0    0 -0.23152965080E+00 -0.24628047059E+00  0.11309406630E+01  0.11803757167E+01  0.00000000000E+00 0. -1.
         11    1    3    3    0    0  0.24045265726E+01 -0.77307882717E+01 -0.12408765327E-01  0.80961095335E+01  0.51100000000E-03 0. -1.
        -11    1    3    3    0    0 -0.18931051060E+02 -0.32566006207E+02 -0.43695231636E+01  0.37921262999E+02  0.51100000000E-03 0.  1.
         12    1    3    3    0    0  0.16758054138E+02  0.40543074950E+02  0.32509912659E+01  0.43990251750E+02  0.00000000000E+00 0. -1.
</event>
<event>
 7    1  0.2090370E-015  0.9000801E+02  0.7816164E-02  0.1186338E+00
        -11   -1    0    0    0    0  0.00000000000E+00  0.00000000000E+00  0.45593999997E+02  0.45594000000E+02  0.51100000000E-03 0.  1.
         11   -1    0    0    0    0 -0.00000000000E+00 -0.00000000000E+00 -0.45593999997E+02  0.45594000000E+02  0.51100000000E-03 0. -1.
    9900012    2    1    2    0    0  0.36880540693E+00  0.55820817007E-01  0.11194791521E+01  0.90008013999E+02  0.90000278983E+02 0.  0.
         12    1    1    2    0    0 -0.36880540693E+00 -0.55820817007E-01 -0.11194791521E+01  0.11799860015E+01  0.00000000000E+00 0. -1.
         11    1    3    3    0    0  0.48606936222E+00  0.36740197352E+02 -0.29072926368E+01  0.36858251663E+02  0.51100000000E-03 0. -1.
        -11    1    3    3    0    0  0.37968592399E+01  0.74972857043E+01  0.25036926322E+01  0.87689172694E+01  0.51100000000E-03 0.  1.
        -12    1    3    3    0    0 -0.39141231952E+01 -0.44181662240E+02  0.15230791566E+01  0.44380845066E+02  0.00000000000E+00 0.  1.
</event>
<event>
 7    1  0.2090370E-015  0.9000753E+02  0.7816164E-02  0.1186339E+00
        -11   -1    0    0    0    0  0.00000000000E+00  0.00000000000E+00  0.45593999997E+02  0.45594000000E+02  0.51100000000E-03 0.  1.
         11   -1    0    0    0    0 -0.00000000000E+00 -0.00000000000E+00 -0.45593999997E+02  0.45594000000E+02  0.51100000000E-03 0. -1.
    9900012    2    1    2    0    0  0.25400807212E+00 -0.10060134319E+01 -0.56296734433E+00  0.90007527486E+02  0.89999786048E+02 0.  0.
         12    1    1    2    0    0 -0.25400807212E+00  0.10060134319E+01  0.56296734433E+00  0.11804725141E+01  0.00000000000E+00 0. -1.
         11    1    3    3    0    0 -0.35322698813E+02 -0.51096111708E+01 -0.13706114138E+00  0.35690614506E+02  0.51100000000E-03 0. -1.
        -11    1    3    3    0    0 -0.82330463199E+01  0.53945195339E+01 -0.33326928152E+01  0.10391859043E+02  0.51100000000E-03 0.  1.
        -12    1    3    3    0    0  0.43809753205E+02 -0.12909217950E+01  0.29067866122E+01  0.43925053937E+02  0.00000000000E+00 0.  1.
</event>
<event>
 7    1  0.2090370E-015  0.9000780E+02  0.7816164E-02  0.1186339E+00
        -11   -1    0    0    0    0  0.00000000000E+00  0.00000000000E+00  0.45593999997E+02  0.45594000000E+02  0.51100000000E-03 0.  1.
         11   -1    0    0    0    0 -0.00000000000E+00 -0.00000000000E+00 -0.45593999997E+02  0.45594000000E+02  0.51100000000E-03 0. -1.
    9900012    2    1    2    0    0  0.34109700891E-01  0.90325203633E+00  0.75884805543E+00  0.90007797439E+02  0.90000059566E+02 0.  0.
         12    1    1    2    0    0 -0.34109700891E-01 -0.90325203633E+00 -0.75884805543E+00  0.11802025606E+01  0.00000000000E+00 0. -1.
         11    1    3    3    0    0 -0.40569150891E+01  0.13631402958E+01  0.81339921590E+01  0.91912208226E+01  0.51100000000E-03 0. -1.
        -11    1    3    3    0    0 -0.31727782523E+02 -0.18052465224E+02 -0.16214866507E+02  0.39943279542E+02  0.51100000000E-03 0.  1.
         12    1    3    3    0    0  0.35818807313E+02  0.17592576964E+02  0.88397224033E+01  0.40873297075E+02  0.00000000000E+00 0. -1.
</event>
<event>
 7    1  0.2090370E-015  0.9000771E+02  0.7816164E-02  0.1186339E+00
        -11   -1    0    0    0    0  0.00000000000E+00  0.00000000000E+00  0.45593999997E+02  0.45594000000E+02  0.51100000000E-03 0.  1.
         11   -1    0    0    0    0 -0.00000000000E+00 -0.00000000000E+00 -0.45593999997E+02  0.45594000000E+02  0.51100000000E-03 0. -1.
    9900012    2    1    2    0    0  0.91873257744E+00 -0.97873270203E-02 -0.74088540106E+00  0.90007713375E+02  0.89999974391E+02 0.  0.
         12    1    1    2    0    0 -0.91873257744E+00  0.97873270203E-02  0.74088540106E+00  0.11802866254E+01  0.00000000000E+00 0. -1.
         11    1    3    3    0    0  0.26431320925E+02 -0.57606312434E+01  0.14833085371E+02  0.30851580512E+02  0.51100000000E-03 0. -1.
        -11    1    3    3    0    0 -0.21945824683E+01  0.22802985250E+01  0.17920029918E+02  0.18197346678E+02  0.51100000000E-03 0.  1.
        -12    1    3    3    0    0 -0.23318005880E+02  0.34705453913E+01 -0.33494000690E+02  0.40958786185E+02  0.00000000000E+00 0.  1.
</event>
<event>
 7    1  0.2090370E-015  0.9000793E+02  0.7816164E-02  0.1186339E+00
        -11   -1    0    0    0    0  0.00000000000E+00  0.00000000000E+00  0.45593999997E+02  0.45594000000E+02  0.51100000000E-03 0. -1.
         11   -1    0    0    0    0 -0.00000000000E+00 -0.00000000000E+00 -0.45593999997E+02  0.45594000000E+02  0.51100000000E-03 0.  1.
    9900012    2    1    2    0    0  0.70344858536E+00  0.94561231994E+00  0.59588346157E-01  0.90007926552E+02  0.90000190382E+02 0.  0.
         12    1    1    2    0    0 -0.70344858536E+00 -0.94561231994E+00 -0.59588346157E-01  0.11800734481E+01  0.00000000000E+00 0. -1.
         11    1    3    3    0    0  0.10188065729E+02 -0.85711330948E+00  0.60222756659E+01  0.11865880961E+02  0.51100000000E-03 0. -1.
        -11    1    3    3    0    0  0.22353581209E+02  0.20902266898E+02  0.16479581136E+02  0.34758652865E+02  0.51100000000E-03 0.  1.
         12    1    3    3    0    0 -0.31838198352E+02 -0.19099541268E+02 -0.22442268455E+02  0.43383392726E+02  0.00000000000E+00 0. -1.
</event>
<event>
 7    1  0.2090370E-015  0.9000778E+02  0.7816164E-02  0.1186339E+00
        -11   -1    0    0    0    0  0.00000000000E+00  0.00000000000E+00  0.45593999997E+02  0.45594000000E+02  0.51100000000E-03 0. -1.
         11   -1    0    0    0    0 -0.00000000000E+00 -0.00000000000E+00 -0.45593999997E+02  0.45594000000E+02  0.51100000000E-03 0.  1.
    9900012    2    1    2    0    0 -0.36239640314E+00 -0.15803114802E+00 -0.11120341606E+01  0.90007777576E+02  0.90000039440E+02 0.  0.
         12    1    1    2    0    0  0.36239640314E+00  0.15803114802E+00  0.11120341606E+01  0.11802224244E+01  0.00000000000E+00 0. -1.
         11    1    3    3    0    0 -0.42403164484E+01  0.83717844098E+01  0.26960493748E+01  0.97640022675E+01  0.51100000000E-03 0. -1.
        -11    1    3    3    0    0  0.29927160103E+02 -0.12663189399E+01 -0.30144022133E+02  0.42495888579E+02  0.51100000000E-03 0.  1.
         12    1    3    3    0    0 -0.26049240058E+02 -0.72634966179E+01  0.26335938597E+02  0.37747886729E+02  0.00000000000E+00 0. -1.
</event>
<event>
 7    1  0.2090370E-015  0.9000775E+02  0.7816164E-02  0.1186339E+00
        -11   -1    0    0    0    0  0.00000000000E+00  0.00000000000E+00  0.45593999997E+02  0.45594000000E+02  0.51100000000E-03 0.  1.
         11   -1    0    0    0    0 -0.00000000000E+00 -0.00000000000E+00 -0.45593999997E+02  0.45594000000E+02  0.51100000000E-03 0. -1.
    9900012    2    1    2    0    0  0.32764351331E+00 -0.41582981990E+00  0.10548589189E+01  0.90007749158E+02  0.90000010647E+02 0.  0.
         12    1    1    2    0    0 -0.32764351331E+00  0.41582981990E+00 -0.10548589189E+01  0.11802508419E+01  0.00000000000E+00 0. -1.
         11    1    3    3    0    0  0.27593562884E+02  0.25431008429E+02 -0.63638982719E+01  0.38061005030E+02  0.51100000000E-03 0. -1.
        -11    1    3    3    0    0 -0.48457075130E+01  0.88568913481E+01  0.16570590145E+01  0.10230896857E+02  0.51100000000E-03 0.  1.
        -12    1    3    3    0    0 -0.22420211858E+02 -0.34703729597E+02  0.57616981764E+01  0.41715847272E+02  0.00000000000E+00 0.  1.
</event>
<event>
 7    1  0.2090370E-015  0.9000763E+02  0.7816164E-02  0.1186339E+00
        -11   -1    0    0    0    0  0.00000000000E+00  0.00000000000E+00  0.45593999997E+02  0.45594000000E+02  0.51100000000E-03 0.  1.
         11   -1    0    0    0    0 -0.00000000000E+00 -0.00000000000E+00 -0.45593999997E+02  0.45594000000E+02  0.51100000000E-03 0. -1.
    9900012    2    1    2    0    0 -0.38546607309E+00  0.10126785766E+01  0.46814622241E+00  0.90007634430E+02  0.89999894405E+02 0.  0.
         12    1    1    2    0    0  0.38546607309E+00 -0.10126785766E+01 -0.46814622241E+00  0.11803655699E+01  0.00000000000E+00 0. -1.
         11    1    3    3    0    0  0.10717672921E+02 -0.30466131808E+01  0.83089134993E+01  0.13899223306E+02  0.51100000000E-03 0. -1.
        -11    1    3    3    0    0  0.95525556978E+01 -0.31980169771E+02 -0.89462296917E+01  0.34554559828E+02  0.51100000000E-03 0.  1.
         12    1    3    3    0    0 -0.20655694692E+02  0.36039461528E+02  0.11054624148E+01  0.41553851297E+02  0.00000000000E+00 0. -1.
</event>
<event>
 7    1  0.2090370E-015  0.9000772E+02  0.7816164E-02  0.1186339E+00
        -11   -1    0    0    0    0  0.00000000000E+00  0.00000000000E+00  0.45593999997E+02  0.45594000000E+02  0.51100000000E-03 0.  1.
         11   -1    0    0    0    0 -0.00000000000E+00 -0.00000000000E+00 -0.45593999997E+02  0.45594000000E+02  0.51100000000E-03 0. -1.
    9900012    2    1    2    0    0  0.41079881338E+00 -0.83317611528E+00  0.72809096456E+00  0.90007722678E+02  0.89999983817E+02 0.  0.
         12    1    1    2    0    0 -0.41079881338E+00  0.83317611528E+00 -0.72809096456E+00  0.11802773220E+01  0.00000000000E+00 0. -1.
         11    1    3    3    0    0 -0.28570024323E+02  0.11529432509E+02 -0.21652876749E+02  0.37656621935E+02  0.51100000000E-03 0. -1.
        -11    1    3    3    0    0 -0.18892472045E+01 -0.37566297971E+01 -0.74588865577E+01  0.85625061386E+01  0.51100000000E-03 0.  1.
        -12    1    3    3    0    0  0.30870070341E+02 -0.86059788268E+01  0.29839854272E+02  0.43788594604E+02  0.00000000000E+00 0.  1.
</event>
<event>
 7    1  0.2090370E-015  0.9000794E+02  0.7816164E-02  0.1186339E+00
        -11   -1    0    0    0    0  0.00000000000E+00  0.00000000000E+00  0.45593999997E+02  0.45594000000E+02  0.51100000000E-03 0. -1.
         11   -1    0    0    0    0 -0.00000000000E+00 -0.00000000000E+00 -0.45593999997E+02  0.45594000000E+02  0.51100000000E-03 0.  1.
    9900012    2    1    2    0    0  0.42119882060E+00 -0.90318471544E+00 -0.63197862574E+00  0.90007937264E+02  0.90000201236E+02 0.  0.
         12    1    1    2    0    0 -0.42119882060E+00  0.90318471544E+00  0.63197862574E+00  0.11800627357E+01  0.00000000000E+00 0. -1.
         11    1    3    3    0    0  0.25863453193E+01  0.38941098608E+01 -0.77509330875E+01  0.90515323402E+01  0.51100000000E-03 0. -1.
        -11    1    3    3    0    0 -0.20731470885E+01 -0.18695370759E+01 -0.36817115274E+02  0.36922798988E+02  0.51100000000E-03 0.  1.
         12    1    3    3    0    0 -0.91999410250E-01 -0.29277575003E+01  0.43936069736E+02  0.44033605936E+02  0.00000000000E+00 0. -1.
</event>
<event>
 7    1  0.2090370E-015  0.9000776E+02  0.7816164E-02  0.1186339E+00
        -11   -1    0    0    0    0  0.00000000000E+00  0.00000000000E+00  0.45593999997E+02  0.45594000000E+02  0.51100000000E-03 0. -1.
         11   -1    0    0    0    0 -0.00000000000E+00 -0.00000000000E+00 -0.45593999997E+02  0.45594000000E+02  0.51100000000E-03 0.  1.
    9900012    2    1    2    0    0  0.89638463360E+00 -0.18282160798E+00  0.74568109563E+00  0.90007758733E+02  0.90000020348E+02 0.  0.
         12    1    1    2    0    0 -0.89638463360E+00  0.18282160798E+00 -0.74568109563E+00  0.11802412669E+01  0.00000000000E+00 0. -1.
         11    1    3    3    0    0 -0.34620383225E+01 -0.74440660865E+01  0.66620836061E+01  0.10572756853E+02  0.51100000000E-03 0. -1.
        -11    1    3    3    0    0  0.40413154763E+02  0.72187730552E+01  0.59410908345E+01  0.41480481228E+02  0.51100000000E-03 0.  1.
         12    1    3    3    0    0 -0.36054731807E+02  0.42471423326E-01 -0.11857493345E+02  0.37954520652E+02  0.00000000000E+00 0. -1.
</event>
<event>
 7    1  0.2090370E-015  0.9000775E+02  0.7816164E-02  0.1186339E+00
        -11   -1    0    0    0    0  0.00000000000E+00  0.00000000000E+00  0.45593999997E+02  0.45594000000E+02  0.51100000000E-03 0. -1.
         11   -1    0    0    0    0 -0.00000000000E+00 -0.00000000000E+00 -0.45593999997E+02  0.45594000000E+02  0.51100000000E-03 0.  1.
    9900012    2    1    2    0    0 -0.98355891732E-01 -0.11675375886E+01  0.14205838235E+00  0.90007746431E+02  0.90000007884E+02 0.  0.
         12    1    1    2    0    0  0.98355891732E-01  0.11675375886E+01 -0.14205838235E+00  0.11802535687E+01  0.00000000000E+00 0. -1.
         11    1    3    3    0    0 -0.35599544122E+02  0.89546662645E+01  0.13789651782E+02  0.39213111151E+02  0.51100000000E-03 0. -1.
        -11    1    3    3    0    0  0.19036880040E+00 -0.81799587717E+01  0.61777379495E+01  0.10252434453E+02  0.51100000000E-03 0.  1.
        -12    1    3    3    0    0  0.35310819430E+02 -0.19422450814E+01 -0.19825331349E+02  0.40542200827E+02  0.00000000000E+00 0.  1.
</event>
<event>
 7    1  0.2090370E-015  0.9000772E+02  0.7816164E-02  0.1186339E+00
        -11   -1    0    0    0    0  0.00000000000E+00  0.00000000000E+00  0.45593999997E+02  0.45594000000E+02  0.51100000000E-03 0.  1.
         11   -1    0    0    0    0 -0.00000000000E+00 -0.00000000000E+00 -0.45593999997E+02  0.45594000000E+02  0.51100000000E-03 0. -1.
    9900012    2    1    2    0    0  0.86536305674E+00  0.76530150282E+00  0.24188867638E+00  0.90007724718E+02  0.89999985884E+02 0.  0.
         12    1    1    2    0    0 -0.86536305674E+00 -0.76530150282E+00 -0.24188867638E+00  0.11802752823E+01  0.00000000000E+00 0. -1.
         11    1    3    3    0    0 -0.30622861456E+01 -0.86489644878E+01  0.11633952580E+01  0.92485497207E+01  0.51100000000E-03 0. -1.
        -11    1    3    3    0    0 -0.42679819565E+01  0.17632487447E+02  0.36942300165E+02  0.41156455452E+02  0.51100000000E-03 0.  1.
         12    1    3    3    0    0  0.81956311588E+01 -0.82182214569E+01 -0.37863806747E+02  0.39602719545E+02  0.00000000000E+00 0. -1.
</event>
<event>
 7    1  0.2090370E-015  0.9000771E+02  0.7816164E-02  0.1186339E+00
        -11   -1    0    0    0    0  0.00000000000E+00  0.00000000000E+00  0.45593999997E+02  0.45594000000E+02  0.51100000000E-03 0. -1.
         11   -1    0    0    0    0 -0.00000000000E+00 -0.00000000000E+00 -0.45593999997E+02  0.45594000000E+02  0.51100000000E-03 0.  1.
    9900012    2    1    2    0    0  0.31778953560E-01  0.10717947452E+01  0.49327604838E+00  0.90007713959E+02  0.89999974984E+02 0.  0.
         12    1    1    2    0    0 -0.31778953560E-01 -0.10717947452E+01 -0.49327604838E+00  0.11802860406E+01  0.00000000000E+00 0. -1.
         11    1    3    3    0    0  0.27037158933E+02 -0.20995446209E+02  0.21884688006E+02  0.40629500294E+02  0.51100000000E-03 0. -1.
        -11    1    3    3    0    0  0.47448041595E+01  0.62135321208E+01  0.23153966356E+00  0.78214294604E+01  0.51100000000E-03 0.  1.
        -12    1    3    3    0    0 -0.31750184139E+02  0.15853708834E+02 -0.21622951621E+02  0.41556784205E+02  0.00000000000E+00 0.  1.
</event>
<event>
 7    1  0.2090370E-015  0.9000805E+02  0.7816164E-02  0.1186338E+00
        -11   -1    0    0    0    0  0.00000000000E+00  0.00000000000E+00  0.45593999997E+02  0.45594000000E+02  0.51100000000E-03 0.  1.
         11   -1    0    0    0    0 -0.00000000000E+00 -0.00000000000E+00 -0.45593999997E+02  0.45594000000E+02  0.51100000000E-03 0. -1.
    9900012    2    1    2    0    0  0.90646500705E+00 -0.62933343024E+00 -0.41778879173E+00  0.90008047946E+02  0.90000313378E+02 0.  0.
         12    1    1    2    0    0 -0.90646500705E+00  0.62933343024E+00  0.41778879173E+00  0.11799520541E+01  0.00000000000E+00 0. -1.
         11    1    3    3    0    0 -0.16168911466E+01 -0.10659544082E+02 -0.25574227419E+01  0.11080642055E+02  0.51100000000E-03 0. -1.
        -11    1    3    3    0    0  0.87192225668E+01  0.46507647665E+01  0.39479056411E+02  0.40697055796E+02  0.51100000000E-03 0.  1.
         12    1    3    3    0    0 -0.61958664131E+01  0.53794458852E+01 -0.37339422461E+02  0.38230350095E+02  0.00000000000E+00 0. -1.
</event>
<event>
 7    1  0.2090370E-015  0.9000783E+02  0.7816164E-02  0.1186339E+00
        -11   -1    0    0    0    0  0.00000000000E+00  0.00000000000E+00  0.45593999997E+02  0.45594000000E+02  0.51100000000E-03 0.  1.
         11   -1    0    0    0    0 -0.00000000000E+00 -0.00000000000E+00 -0.45593999997E+02  0.45594000000E+02  0.51100000000E-03 0. -1.
    9900012    2    1    2    0    0  0.89998297490E+00 -0.29517589609E+00  0.70406998837E+00  0.90007825134E+02  0.90000087626E+02 0.  0.
         12    1    1    2    0    0 -0.89998297490E+00  0.29517589609E+00 -0.70406998837E+00  0.11801748655E+01  0.00000000000E+00 0. -1.
         11    1    3    3    0    0 -0.82981185773E+01 -0.22401639057E+02  0.80810989926E+00  0.23902829252E+02  0.51100000000E-03 0. -1.
        -11    1    3    3    0    0 -0.15935528323E+02 -0.55226486217E+01 -0.18018784735E+02  0.24680302152E+02  0.51100000000E-03 0.  1.
         12    1    3    3    0    0  0.25133629875E+02  0.27629111783E+02  0.17914744824E+02  0.41424693731E+02  0.00000000000E+00 0. -1.
</event>
<event>
 7    1  0.3041141E-015  0.9000773E+02  0.7816164E-02  0.1186339E+00
        -11   -1    0    0    0    0  0.00000000000E+00  0.00000000000E+00  0.45593999997E+02  0.45594000000E+02  0.51100000000E-03 0. -1.
         11   -1    0    0    0    0 -0.00000000000E+00 -0.00000000000E+00 -0.45593999997E+02  0.45594000000E+02  0.51100000000E-03 0.  1.
    9900012    2    1    2    0    0 -0.10113448561E+01  0.60495459294E+00 -0.65124330174E-01  0.90007733227E+02  0.89999994505E+02 0.  0.
         12    1    1    2    0    0  0.10113448561E+01 -0.60495459294E+00  0.65124330174E-01  0.11802667731E+01  0.00000000000E+00 0. -1.
         11    1    3    3    0    0 -0.15218011092E+02  0.34038468504E+02  0.14606666666E+02  0.40044474164E+02  0.51100000000E-03 0. -1.
        -11    1    3    3    0    0 -0.90082570501E+01 -0.34912626516E+01 -0.11240645298E+01  0.97263112901E+01  0.51100000000E-03 0.  1.
        -12    1    3    3    0    0  0.23214923286E+02 -0.29942251259E+02 -0.13547726467E+02  0.40236947773E+02  0.00000000000E+00 0.  1.
</event>
<event>
 7    1  0.2090370E-015  0.9000788E+02  0.7816164E-02  0.1186339E+00
        -11   -1    0    0    0    0  0.00000000000E+00  0.00000000000E+00  0.45593999997E+02  0.45594000000E+02  0.51100000000E-03 0. -1.
         11   -1    0    0    0    0 -0.00000000000E+00 -0.00000000000E+00 -0.45593999997E+02  0.45594000000E+02  0.51100000000E-03 0.  1.
    9900012    2    1    2    0    0  0.10504170707E+01  0.16183703866E+00 -0.51295144664E+00  0.90007878635E+02  0.90000141833E+02 0.  0.
         12    1    1    2    0    0 -0.10504170707E+01 -0.16183703866E+00  0.51295144664E+00  0.11801213650E+01  0.00000000000E+00 0. -1.
         11    1    3    3    0    0 -0.38795440612E+01 -0.78695751724E+01  0.11644156712E+01  0.88508157609E+01  0.51100000000E-03 0. -1.
        -11    1    3    3    0    0 -0.29092051113E+02 -0.18707570713E+02 -0.12107446594E+02  0.36645748774E+02  0.51100000000E-03 0.  1.
         12    1    3    3    0    0  0.34022012245E+02  0.26738982924E+02  0.10430079476E+02  0.44511314100E+02  0.00000000000E+00 0. -1.
</event>
<event>
 7    1  0.2090370E-015  0.9000766E+02  0.7816164E-02  0.1186339E+00
        -11   -1    0    0    0    0  0.00000000000E+00  0.00000000000E+00  0.45593999997E+02  0.45594000000E+02  0.51100000000E-03 0.  1.
         11   -1    0    0    0    0 -0.00000000000E+00 -0.00000000000E+00 -0.45593999997E+02  0.45594000000E+02  0.51100000000E-03 0. -1.
    9900012    2    1    2    0    0  0.74819405825E+00 -0.29513421348E+00  0.86389082657E+00  0.90007658561E+02  0.89999918854E+02 0.  0.
         12    1    1    2    0    0 -0.74819405825E+00  0.29513421348E+00 -0.86389082657E+00  0.11803414392E+01  0.00000000000E+00 0. -1.
         11    1    3    3    0    0  0.98759514922E+01  0.10312762531E+01  0.81007552648E+00  0.99626387672E+01  0.51100000000E-03 0. -1.
        -11    1    3    3    0    0  0.30030589558E+02 -0.19232665448E+02  0.72465713558E+01  0.36390170735E+02  0.51100000000E-03 0.  1.
         12    1    3    3    0    0 -0.39158346992E+02  0.17906254982E+02 -0.71927560557E+01  0.43654849058E+02  0.00000000000E+00 0. -1.
</event>
<event>
 7    1  0.2090370E-015  0.9000775E+02  0.7816164E-02  0.1186339E+00
        -11   -1    0    0    0    0  0.00000000000E+00  0.00000000000E+00  0.45593999997E+02  0.45594000000E+02  0.51100000000E-03 0.  1.
         11   -1    0    0    0    0 -0.00000000000E+00 -0.00000000000E+00 -0.45593999997E+02  0.45594000000E+02  0.51100000000E-03 0. -1.
    9900012    2    1    2    0    0  0.99677891179E+00  0.62467317936E+00 -0.95920567400E-01  0.90007751918E+02  0.90000013443E+02 0.  0.
         12    1    1    2    0    0 -0.99677891179E+00 -0.62467317936E+00  0.95920567400E-01  0.11802480821E+01  0.00000000000E+00 0. -1.
         11    1    3    3    0    0 -0.27194413496E+02  0.24847941942E+02  0.53673265026E+00  0.36840798395E+02  0.51100000000E-03 0. -1.
        -11    1    3    3    0    0 -0.51686639250E+01  0.36462321952E+01  0.65528310168E+01  0.91076720729E+01  0.51100000000E-03 0.  1.
        -12    1    3    3    0    0  0.33359856333E+02 -0.27869500958E+02 -0.71854842345E+01  0.44059281450E+02  0.00000000000E+00 0.  1.
</event>
<event>
 7    1  0.2090370E-015  0.9000772E+02  0.7816164E-02  0.1186339E+00
        -11   -1    0    0    0    0  0.00000000000E+00  0.00000000000E+00  0.45593999997E+02  0.45594000000E+02  0.51100000000E-03 0. -1.
         11   -1    0    0    0    0 -0.00000000000E+00 -0.00000000000E+00 -0.45593999997E+02  0.45594000000E+02  0.51100000000E-03 0.  1.
    9900012    2    1    2    0    0  0.50590824332E+00 -0.89726484185E+00 -0.57622773755E+00  0.90007717935E+02  0.89999979012E+02 0.  0.
         12    1    1    2    0    0 -0.50590824332E+00  0.89726484185E+00  0.57622773755E+00  0.11802820648E+01  0.00000000000E+00 0. -1.
         11    1    3    3    0    0  0.30140808755E+02  0.27141848120E+02  0.34908092761E+01  0.40710367493E+02  0.51100000000E-03 0. -1.
        -11    1    3    3    0    0  0.33626650096E+01 -0.10857992281E+02  0.21800207674E+01  0.11573936372E+02  0.51100000000E-03 0.  1.
        -12    1    3    3    0    0 -0.32997565521E+02 -0.17181120681E+02 -0.62470577810E+01  0.37723414070E+02  0.00000000000E+00 0.  1.
</event>
<event>
 7    1  0.2090370E-015  0.9000774E+02  0.7816164E-02  0.1186339E+00
        -11   -1    0    0    0    0  0.00000000000E+00  0.00000000000E+00  0.45593999997E+02  0.45594000000E+02  0.51100000000E-03 0. -1.
         11   -1    0    0    0    0 -0.00000000000E+00 -0.00000000000E+00 -0.45593999997E+02  0.45594000000E+02  0.51100000000E-03 0.  1.
    9900012    2    1    2    0    0  0.65441840772E+00  0.98156871592E+00 -0.35792511595E-01  0.90007736597E+02  0.89999997920E+02 0.  0.
         12    1    1    2    0    0 -0.65441840772E+00 -0.98156871592E+00  0.35792511595E-01  0.11802634029E+01  0.00000000000E+00 0. -1.
         11    1    3    3    0    0  0.29872518904E+01 -0.68247795436E+01  0.37131073003E+02  0.37871069067E+02  0.51100000000E-03 0. -1.
        -11    1    3    3    0    0 -0.33564163181E+01  0.51831485634E+01  0.61577892011E+01  0.87206036280E+01  0.51100000000E-03 0.  1.
        -12    1    3    3    0    0  0.10235828354E+01  0.26231996961E+01 -0.43324654716E+02  0.43416063902E+02  0.00000000000E+00 0.  1.
</event>
<event>
 7    1  0.2090370E-015  0.9000786E+02  0.7816164E-02  0.1186339E+00
        -11   -1    0    0    0    0  0.00000000000E+00  0.00000000000E+00  0.45593999997E+02  0.45594000000E+02  0.51100000000E-03 0. -1.
         11   -1    0    0    0    0 -0.00000000000E+00 -0.00000000000E+00 -0.45593999997E+02  0.45594000000E+02  0.51100000000E-03 0.  1.
    9900012    2    1    2    0    0 -0.27727002283E+00  0.13284885547E+00 -0.11393919718E+01  0.90007855285E+02  0.90000118174E+02 0.  0.
         12    1    1    2    0    0  0.27727002283E+00 -0.13284885547E+00  0.11393919718E+01  0.11801447155E+01  0.00000000000E+00 0. -1.
         11    1    3    3    0    0  0.98220222306E+01  0.11555518003E+02 -0.37654712123E+02  0.40594081617E+02  0.51100000000E-03 0. -1.
        -11    1    3    3    0    0 -0.98369279353E+01 -0.45481936927E+00 -0.13969514130E+01  0.99460286233E+01  0.51100000000E-03 0.  1.
        -12    1    3    3    0    0 -0.26236431809E+00 -0.10967849778E+02  0.37912271564E+02  0.39467745045E+02  0.00000000000E+00 0.  1.
</event>
<event>
 7    1  0.2090370E-015  0.9000778E+02  0.7816164E-02  0.1186339E+00
        -11   -1    0    0    0    0  0.00000000000E+00  0.00000000000E+00  0.45593999997E+02  0.45594000000E+02  0.51100000000E-03 0.  1.
         11   -1    0    0    0    0 -0.00000000000E+00 -0.00000000000E+00 -0.45593999997E+02  0.45594000000E+02  0.51100000000E-03 0. -1.
    9900012    2    1    2    0    0  0.43897251308E+00 -0.94178111880E+00  0.55969873739E+00  0.90007783401E+02  0.90000045342E+02 0.  0.
         12    1    1    2    0    0 -0.43897251308E+00  0.94178111880E+00 -0.55969873739E+00  0.11802165986E+01  0.00000000000E+00 0. -1.
         11    1    3    3    0    0 -0.11137364833E+02 -0.32553021390E+01  0.23237913993E+01  0.11833760779E+02  0.51100000000E-03 0. -1.
        -11    1    3    3    0    0 -0.28059967613E+02 -0.14182111463E+02  0.11122696445E+02  0.33349789272E+02  0.51100000000E-03 0.  1.
         12    1    3    3    0    0  0.39636304960E+02  0.16495632484E+02 -0.12886789107E+02  0.44824233350E+02  0.00000000000E+00 0. -1.
</event>
<event>
 7    1  0.2090370E-015  0.9000779E+02  0.7816164E-02  0.1186339E+00
        -11   -1    0    0    0    0  0.00000000000E+00  0.00000000000E+00  0.45593999997E+02  0.45594000000E+02  0.51100000000E-03 0.  1.
         11   -1    0    0    0    0 -0.00000000000E+00 -0.00000000000E+00 -0.45593999997E+02  0.45594000000E+02  0.51100000000E-03 0. -1.
    9900012    2    1    2    0    0 -0.39756835594E-01 -0.72171307098E+00  0.93298085391E+00  0.90007786614E+02  0.90000048597E+02 0.  0.
         12    1    1    2    0    0  0.39756835594E-01  0.72171307098E+00 -0.93298085391E+00  0.11802133860E+01  0.00000000000E+00 0. -1.
         11    1    3    3    0    0 -0.13077924530E+01 -0.92975425160E+01 -0.25937520022E+01  0.97407477971E+01  0.51100000000E-03 0. -1.
        -11    1    3    3    0    0 -0.27833259039E+02  0.11752076251E+02 -0.25132687124E+02  0.39299536476E+02  0.51100000000E-03 0.  1.
         12    1    3    3    0    0  0.29101294656E+02 -0.31762468059E+01  0.28659419980E+02  0.40967502341E+02  0.00000000000E+00 0. -1.
</event>
<event>
 7    1  0.2259936E-015  0.9000772E+02  0.7816164E-02  0.1186339E+00
        -11   -1    0    0    0    0  0.00000000000E+00  0.00000000000E+00  0.45593999997E+02  0.45594000000E+02  0.51100000000E-03 0.  1.
         11   -1    0    0    0    0 -0.00000000000E+00 -0.00000000000E+00 -0.45593999997E+02  0.45594000000E+02  0.51100000000E-03 0. -1.
    9900012    2    1    2    0    0  0.82408586752E+00  0.22890182818E+00  0.81335279626E+00  0.90007721925E+02  0.89999983054E+02 0.  0.
         12    1    1    2    0    0 -0.82408586752E+00 -0.22890182818E+00 -0.81335279626E+00  0.11802780754E+01  0.00000000000E+00 0. -1.
         11    1    3    3    0    0 -0.19090520073E+02  0.34997804964E+02 -0.71971559400E+01  0.40510410549E+02  0.51100000000E-03 0. -1.
        -11    1    3    3    0    0  0.41362194394E+01  0.21773236573E+01  0.80664238470E+01  0.93228881523E+01  0.51100000000E-03 0.  1.
        -12    1    3    3    0    0  0.15778386501E+02 -0.36946226793E+02 -0.55915110780E-01  0.40174423223E+02  0.00000000000E+00 0.  1.
</event>
<event>
 7    1  0.2090370E-015  0.9000771E+02  0.7816164E-02  0.1186339E+00
        -11   -1    0    0    0    0  0.00000000000E+00  0.00000000000E+00  0.45593999997E+02  0.45594000000E+02  0.51100000000E-03 0.  1.
         11   -1    0    0    0    0 -0.00000000000E+00 -0.00000000000E+00 -0.45593999997E+02  0.45594000000E+02  0.51100000000E-03 0. -1.
    9900012    2    1    2    0    0 -0.10030864037E+01 -0.12043173826E+00  0.61024871449E+00  0.90007707820E+02  0.89999968763E+02 0.  0.
         12    1    1    2    0    0  0.10030864037E+01  0.12043173826E+00 -0.61024871449E+00  0.11802921801E+01  0.00000000000E+00 0. -1.
         11    1    3    3    0    0  0.76107158047E+01  0.34734735844E+01 -0.56100360518E+01  0.10072761218E+02  0.51100000000E-03 0. -1.
        -11    1    3    3    0    0 -0.70874163245E+01  0.26607313949E+02  0.30546502363E+02  0.41125046293E+02  0.51100000000E-03 0.  1.
         12    1    3    3    0    0 -0.15263858839E+01 -0.30201219272E+02 -0.24326217597E+02  0.38809900308E+02  0.00000000000E+00 0. -1.
</event>
<event>
 7    1  0.2090370E-015  0.9000760E+02  0.7816164E-02  0.1186339E+00
        -11   -1    0    0    0    0  0.00000000000E+00  0.00000000000E+00  0.45593999997E+02  0.45594000000E+02  0.51100000000E-03 0. -1.
         11   -1    0    0    0    0 -0.00000000000E+00 -0.00000000000E+00 -0.45593999997E+02  0.45594000000E+02  0.51100000000E-03 0.  1.
    9900012    2    1    2    0    0 -0.75948338778E+00 -0.69731925200E+00 -0.57469857509E+00  0.90007598540E+02  0.89999858040E+02 0.  0.
         12    1    1    2    0    0  0.75948338778E+00  0.69731925200E+00  0.57469857509E+00  0.11804014604E+01  0.00000000000E+00 0. -1.
         11    1    3    3    0    0 -0.16939023989E+01 -0.62880026246E+01  0.93392968219E+01  0.11385549953E+02  0.51100000000E-03 0. -1.
        -11    1    3    3    0    0 -0.21236559563E+02 -0.28105750655E+02  0.50760963624E+01  0.35590608824E+02  0.51100000000E-03 0.  1.
         12    1    3    3    0    0  0.22170978574E+02  0.33696434027E+02 -0.14990091759E+02  0.43031439763E+02  0.00000000000E+00 0. -1.
</event>
<event>
 7    1  0.2090370E-015  0.9000768E+02  0.7816164E-02  0.1186339E+00
        -11   -1    0    0    0    0  0.00000000000E+00  0.00000000000E+00  0.45593999997E+02  0.45594000000E+02  0.51100000000E-03 0.  1.
         11   -1    0    0    0    0 -0.00000000000E+00 -0.00000000000E+00 -0.45593999997E+02  0.45594000000E+02  0.51100000000E-03 0. -1.
    9900012    2    1    2    0    0  0.44944295825E+00 -0.22966977859E+00  0.10669569790E+01  0.90007684629E+02  0.89999945266E+02 0.  0.
         12    1    1    2    0    0 -0.44944295825E+00  0.22966977859E+00 -0.10669569790E+01  0.11803153710E+01  0.00000000000E+00 0. -1.
         11    1    3    3    0    0  0.31615602580E+02 -0.15121063268E+02  0.62058929340E+01  0.35590813256E+02  0.51100000000E-03 0. -1.
        -11    1    3    3    0    0  0.54381347037E+01 -0.65387250689E+01  0.61842796227E+01  0.10515395822E+02  0.51100000000E-03 0.  1.
        -12    1    3    3    0    0 -0.36604294326E+02  0.21430118558E+02 -0.11323215578E+02  0.43901475551E+02  0.00000000000E+00 0.  1.
</event>
<event>
 7    1  0.2090370E-015  0.9000758E+02  0.7816164E-02  0.1186339E+00
        -11   -1    0    0    0    0  0.00000000000E+00  0.00000000000E+00  0.45593999997E+02  0.45594000000E+02  0.51100000000E-03 0.  1.
         11   -1    0    0    0    0 -0.00000000000E+00 -0.00000000000E+00 -0.45593999997E+02  0.45594000000E+02  0.51100000000E-03 0. -1.
    9900012    2    1    2    0    0  0.27824891242E+00 -0.32086413351E+00  0.11013734741E+01  0.90007576441E+02  0.89999835650E+02 0.  0.
         12    1    1    2    0    0 -0.27824891242E+00  0.32086413351E+00 -0.11013734741E+01  0.11804235591E+01  0.00000000000E+00 0. -1.
         11    1    3    3    0    0  0.36424890647E+01  0.70728558032E+01  0.67170356462E+01  0.10412088356E+02  0.51100000000E-03 0. -1.
        -11    1    3    3    0    0  0.30339943573E+02  0.18671257383E+02  0.42026971761E+01  0.35871864910E+02  0.51100000000E-03 0.  1.
         12    1    3    3    0    0 -0.33704183725E+02 -0.26064977320E+02 -0.98183593482E+01  0.43723623175E+02  0.00000000000E+00 0. -1.
</event>
<event>
 7    1  0.2090370E-015  0.9000777E+02  0.7816164E-02  0.1186339E+00
        -11   -1    0    0    0    0  0.00000000000E+00  0.00000000000E+00  0.45593999997E+02  0.45594000000E+02  0.51100000000E-03 0. -1.
         11   -1    0    0    0    0 -0.00000000000E+00 -0.00000000000E+00 -0.45593999997E+02  0.45594000000E+02  0.51100000000E-03 0.  1.
    9900012    2    1    2    0    0 -0.11085589602E+01  0.16076037959E+00 -0.37174979170E+00  0.90007769185E+02  0.90000030939E+02 0.  0.
         12    1    1    2    0    0  0.11085589602E+01 -0.16076037959E+00  0.37174979170E+00  0.11802308145E+01  0.00000000000E+00 0. -1.
         11    1    3    3    0    0  0.21495235698E+01 -0.84801379665E+01 -0.41732338751E+01  0.96927329864E+01  0.51100000000E-03 0. -1.
        -11    1    3    3    0    0  0.30363779257E+02 -0.14143104911E+02 -0.13571267553E+02  0.36140916017E+02  0.51100000000E-03 0.  1.
         12    1    3    3    0    0 -0.33621861787E+02  0.22784003258E+02  0.17372751637E+02  0.44174120182E+02  0.00000000000E+00 0. -1.
</event>
<event>
 7    1  0.2090370E-015  0.9000877E+02  0.7816164E-02  0.1186337E+00
        -11   -1    0    0    0    0  0.00000000000E+00  0.00000000000E+00  0.45593999997E+02  0.45594000000E+02  0.51100000000E-03 0.  1.
         11   -1    0    0    0    0 -0.00000000000E+00 -0.00000000000E+00 -0.45593999997E+02  0.45594000000E+02  0.51100000000E-03 0. -1.
    9900012    2    1    2    0    0 -0.11250594556E+01  0.21975268029E+00 -0.27666202825E+00  0.90008766394E+02  0.90001041305E+02 0.  0.
         12    1    1    2    0    0  0.11250594556E+01 -0.21975268029E+00  0.27666202825E+00  0.11792336058E+01  0.00000000000E+00 0. -1.
         11    1    3    3    0    0 -0.22479479957E+02  0.12034578022E+02 -0.18301779795E+02  0.31386513524E+02  0.51100000000E-03 0. -1.
        -11    1    3    3    0    0 -0.98814547797E+00  0.10556098340E+01 -0.15925109659E+02  0.15990617921E+02  0.51100000000E-03 0.  1.
        -12    1    3    3    0    0  0.22342565979E+02 -0.12870435176E+02  0.33950227425E+02  0.42631634948E+02  0.00000000000E+00 0.  1.
</event>
<event>
 7    1  0.2090370E-015  0.9000775E+02  0.7816164E-02  0.1186339E+00
        -11   -1    0    0    0    0  0.00000000000E+00  0.00000000000E+00  0.45593999997E+02  0.45594000000E+02  0.51100000000E-03 0. -1.
         11   -1    0    0    0    0 -0.00000000000E+00 -0.00000000000E+00 -0.45593999997E+02  0.45594000000E+02  0.51100000000E-03 0.  1.
    9900012    2    1    2    0    0 -0.70739787528E+00  0.73202566461E+00 -0.59725549262E+00  0.90007751106E+02  0.90000012621E+02 0.  0.
         12    1    1    2    0    0  0.70739787528E+00 -0.73202566461E+00  0.59725549262E+00  0.11802488937E+01  0.00000000000E+00 0. -1.
         11    1    3    3    0    0  0.25775772339E+02 -0.29852476423E+02 -0.23322286445E+01  0.39509493529E+02  0.51100000000E-03 0. -1.
        -11    1    3    3    0    0 -0.41998499893E+01 -0.17255746105E+01 -0.87630343405E+01  0.98695044852E+01  0.51100000000E-03 0.  1.
        -12    1    3    3    0    0 -0.22283320225E+02  0.32310076698E+02  0.10498007492E+02  0.40628753092E+02  0.00000000000E+00 0.  1.
</event>
<event>
 7    1  0.2090370E-015  0.9000774E+02  0.7816164E-02  0.1186339E+00
        -11   -1    0    0    0    0  0.00000000000E+00  0.00000000000E+00  0.45593999997E+02  0.45594000000E+02  0.51100000000E-03 0.  1.
         11   -1    0    0    0    0 -0.00000000000E+00 -0.00000000000E+00 -0.45593999997E+02  0.45594000000E+02  0.51100000000E-03 0. -1.
    9900012    2    1    2    0    0 -0.87312283065E+00  0.49382280377E+00  0.62193910098E+00  0.90007740417E+02  0.90000001790E+02 0.  0.
         12    1    1    2    0    0  0.87312283065E+00 -0.49382280377E+00 -0.62193910098E+00  0.11802595834E+01  0.00000000000E+00 0. -1.
         11    1    3    3    0    0 -0.79692353270E+01  0.42588333022E+01  0.41776245548E+01  0.99548440457E+01  0.51100000000E-03 0. -1.
        -11    1    3    3    0    0  0.18329720682E+02 -0.25610602212E+01  0.35153907493E+02  0.39728263264E+02  0.51100000000E-03 0.  1.
         12    1    3    3    0    0 -0.11233608185E+02 -0.12039502771E+01 -0.38709592946E+02  0.40324633107E+02  0.00000000000E+00 0. -1.
</event>
<event>
 7    1  0.2090370E-015  0.9000761E+02  0.7816164E-02  0.1186339E+00
        -11   -1    0    0    0    0  0.00000000000E+00  0.00000000000E+00  0.45593999997E+02  0.45594000000E+02  0.51100000000E-03 0.  1.
         11   -1    0    0    0    0 -0.00000000000E+00 -0.00000000000E+00 -0.45593999997E+02  0.45594000000E+02  0.51100000000E-03 0. -1.
    9900012    2    1    2    0    0  0.52031179440E+00  0.10595193312E+01  0.21357167273E-02  0.90007614411E+02  0.89999874121E+02 0.  0.
         12    1    1    2    0    0 -0.52031179440E+00 -0.10595193312E+01 -0.21357167273E-02  0.11803855887E+01  0.00000000000E+00 0. -1.
         11    1    3    3    0    0  0.49299189156E+01 -0.13981003023E+02 -0.37379060075E+01  0.15288704576E+02  0.51100000000E-03 0. -1.
        -11    1    3    3    0    0 -0.18758788533E+01  0.27107784441E+01  0.38039819275E+02  0.38182392434E+02  0.51100000000E-03 0.  1.
         12    1    3    3    0    0 -0.25337282679E+01  0.12329743910E+02 -0.34299777550E+02  0.36536517401E+02  0.00000000000E+00 0. -1.
</event>
<event>
 7    1  0.2090370E-015  0.9000778E+02  0.7816164E-02  0.1186339E+00
        -11   -1    0    0    0    0  0.00000000000E+00  0.00000000000E+00  0.45593999997E+02  0.45594000000E+02  0.51100000000E-03 0. -1.
         11   -1    0    0    0    0 -0.00000000000E+00 -0.00000000000E+00 -0.45593999997E+02  0.45594000000E+02  0.51100000000E-03 0.  1.
    9900012    2    1    2    0    0 -0.20523314770E+00  0.10962345255E+01 -0.38609835683E+00  0.90007778529E+02  0.90000040405E+02 0.  0.
         12    1    1    2    0    0  0.20523314770E+00 -0.10962345255E+01  0.38609835683E+00  0.11802214711E+01  0.00000000000E+00 0. -1.
         11    1    3    3    0    0  0.48143622191E+01  0.35851169197E+00 -0.77840153380E+01  0.91595583547E+01  0.51100000000E-03 0. -1.
        -11    1    3    3    0    0  0.11001532516E+02 -0.34603875499E+02 -0.10949757998E+02  0.37925705237E+02  0.51100000000E-03 0.  1.
         12    1    3    3    0    0 -0.16021127883E+02  0.35341598333E+02  0.18347674979E+02  0.42922514937E+02  0.00000000000E+00 0. -1.
</event>
<event>
 7    1  0.2090370E-015  0.9000777E+02  0.7816164E-02  0.1186339E+00
        -11   -1    0    0    0    0  0.00000000000E+00  0.00000000000E+00  0.45593999997E+02  0.45594000000E+02  0.51100000000E-03 0. -1.
         11   -1    0    0    0    0 -0.00000000000E+00 -0.00000000000E+00 -0.45593999997E+02  0.45594000000E+02  0.51100000000E-03 0.  1.
    9900012    2    1    2    0    0  0.78251334954E+00  0.73737345144E+00  0.48673085064E+00  0.90007765417E+02  0.90000027121E+02 0.  0.
         12    1    1    2    0    0 -0.78251334954E+00 -0.73737345144E+00 -0.48673085064E+00  0.11802345826E+01  0.00000000000E+00 0. -1.
         11    1    3    3    0    0  0.12416862769E+02 -0.19968897327E+02  0.31070839607E+02  0.38965785192E+02  0.51100000000E-03 0. -1.
        -11    1    3    3    0    0  0.19924406809E+01  0.53466719695E+01  0.65023171234E+01  0.86508293967E+01  0.51100000000E-03 0.  1.
        -12    1    3    3    0    0 -0.13626790100E+02  0.15359598809E+02 -0.37086425880E+02  0.42391150828E+02  0.00000000000E+00 0.  1.
</event>
<event>
 7    1  0.2090370E-015  0.9000774E+02  0.7816164E-02  0.1186339E+00
        -11   -1    0    0    0    0  0.00000000000E+00  0.00000000000E+00  0.45593999997E+02  0.45594000000E+02  0.51100000000E-03 0. -1.
         11   -1    0    0    0    0 -0.00000000000E+00 -0.00000000000E+00 -0.45593999997E+02  0.45594000000E+02  0.51100000000E-03 0.  1.
    9900012    2    1    2    0    0 -0.82948835192E+00 -0.49285427473E-01 -0.83817763760E+00  0.90007736584E+02  0.89999997907E+02 0.  0.
         12    1    1    2    0    0  0.82948835192E+00  0.49285427473E-01  0.83817763760E+00  0.11802634162E+01  0.00000000000E+00 0. -1.
         11    1    3    3    0    0 -0.20847854576E+02 -0.10937029942E+02  0.21098503432E+02  0.31613264806E+02  0.51100000000E-03 0. -1.
        -11    1    3    3    0    0 -0.10715469885E+02 -0.11524791437E+02 -0.34875861489E+01  0.16118479145E+02  0.51100000000E-03 0.  1.
        -12    1    3    3    0    0  0.30733836109E+02  0.22412535952E+02 -0.18449094921E+02  0.42275992633E+02  0.00000000000E+00 0.  1.
</event>
<event>
 7    1  0.2090370E-015  0.9000778E+02  0.7816164E-02  0.1186339E+00
        -11   -1    0    0    0    0  0.00000000000E+00  0.00000000000E+00  0.45593999997E+02  0.45594000000E+02  0.51100000000E-03 0.  1.
         11   -1    0    0    0    0 -0.00000000000E+00 -0.00000000000E+00 -0.45593999997E+02  0.45594000000E+02  0.51100000000E-03 0. -1.
    9900012    2    1    2    0    0  0.96419041435E+00  0.62591650551E+00 -0.26737627880E+00  0.90007777690E+02  0.90000039555E+02 0.  0.
         12    1    1    2    0    0 -0.96419041435E+00 -0.62591650551E+00  0.26737627880E+00  0.11802223102E+01  0.00000000000E+00 0. -1.
         11    1    3    3    0    0  0.46315160456E+01 -0.94863726467E+00  0.55980751029E+01  0.73272981828E+01  0.51100000000E-03 0. -1.
        -11    1    3    3    0    0  0.26688960150E+02  0.25886675051E+02  0.13086409493E+02  0.39416679880E+02  0.51100000000E-03 0.  1.
         12    1    3    3    0    0 -0.30356285781E+02 -0.24312121280E+02 -0.18951860875E+02  0.43263799627E+02  0.00000000000E+00 0. -1.
</event>
<event>
 7    1  0.2090370E-015  0.9000763E+02  0.7816164E-02  0.1186339E+00
        -11   -1    0    0    0    0  0.00000000000E+00  0.00000000000E+00  0.45593999997E+02  0.45594000000E+02  0.51100000000E-03 0.  1.
         11   -1    0    0    0    0 -0.00000000000E+00 -0.00000000000E+00 -0.45593999997E+02  0.45594000000E+02  0.51100000000E-03 0. -1.
    9900012    2    1    2    0    0 -0.10053861008E+01 -0.61727674114E-01  0.61535362026E+00  0.90007630738E+02  0.89999890663E+02 0.  0.
         12    1    1    2    0    0  0.10053861008E+01  0.61727674114E-01 -0.61535362026E+00  0.11803692623E+01  0.00000000000E+00 0. -1.
         11    1    3    3    0    0  0.25794252640E+02  0.26290972177E+02  0.72603502048E+01  0.37540263353E+02  0.51100000000E-03 0. -1.
        -11    1    3    3    0    0 -0.31433300618E+01  0.81452043031E+01 -0.60704630961E+01  0.10633691715E+02  0.51100000000E-03 0.  1.
        -12    1    3    3    0    0 -0.23656308679E+02 -0.34497904154E+02 -0.57453348837E+00  0.41833675670E+02  0.00000000000E+00 0.  1.
</event>
<event>
 7    1  0.2224931E-015  0.9000775E+02  0.7816164E-02  0.1186339E+00
        -11   -1    0    0    0    0  0.00000000000E+00  0.00000000000E+00  0.45593999997E+02  0.45594000000E+02  0.51100000000E-03 0.  1.
         11   -1    0    0    0    0 -0.00000000000E+00 -0.00000000000E+00 -0.45593999997E+02  0.45594000000E+02  0.51100000000E-03 0. -1.
    9900012    2    1    2    0    0  0.10702080315E+01  0.17605318527E+00  0.46545004441E+00  0.90007752696E+02  0.90000014232E+02 0.  0.
         12    1    1    2    0    0 -0.10702080315E+01 -0.17605318527E+00 -0.46545004441E+00  0.11802473040E+01  0.00000000000E+00 0. -1.
         11    1    3    3    0    0 -0.13171820979E+02  0.27474525898E+01 -0.33722740536E+02  0.36307968728E+02  0.51100000000E-03 0. -1.
        -11    1    3    3    0    0  0.20004618782E+00 -0.62139536395E+01 -0.73935886360E+01  0.96601444860E+01  0.51100000000E-03 0.  1.
        -12    1    3    3    0    0  0.14041982823E+02  0.36425542349E+01  0.41581779216E+02  0.44039639482E+02  0.00000000000E+00 0.  1.
</event>
<event>
 7    1  0.2090370E-015  0.9000775E+02  0.7816164E-02  0.1186339E+00
        -11   -1    0    0    0    0  0.00000000000E+00  0.00000000000E+00  0.45593999997E+02  0.45594000000E+02  0.51100000000E-03 0.  1.
         11   -1    0    0    0    0 -0.00000000000E+00 -0.00000000000E+00 -0.45593999997E+02  0.45594000000E+02  0.51100000000E-03 0. -1.
    9900012    2    1    2    0    0  0.87249605059E+00  0.75053706383E+00 -0.26159268362E+00  0.90007751732E+02  0.90000013255E+02 0.  0.
         12    1    1    2    0    0 -0.87249605059E+00 -0.75053706383E+00  0.26159268362E+00  0.11802482682E+01  0.00000000000E+00 0. -1.
         11    1    3    3    0    0  0.52940545338E+01 -0.37486621550E+01 -0.58384390712E+01  0.87273622824E+01  0.51100000000E-03 0. -1.
        -11    1    3    3    0    0 -0.13875768524E+02 -0.35284971165E+02  0.12254980700E+02  0.39846589496E+02  0.51100000000E-03 0.  1.
         12    1    3    3    0    0  0.94542100405E+01  0.39784170384E+02 -0.66781343128E+01  0.41433799953E+02  0.00000000000E+00 0. -1.
</event>
<event>
 7    1  0.2090370E-015  0.9000856E+02  0.7816164E-02  0.1186337E+00
        -11   -1    0    0    0    0  0.00000000000E+00  0.00000000000E+00  0.45593999997E+02  0.45594000000E+02  0.51100000000E-03 0.  1.
         11   -1    0    0    0    0 -0.00000000000E+00 -0.00000000000E+00 -0.45593999997E+02  0.45594000000E+02  0.51100000000E-03 0. -1.
    9900012    2    1    2    0    0  0.96264716511E+00  0.57290017759E+00 -0.36901595241E+00  0.90008560747E+02  0.90000832945E+02 0.  0.
         12    1    1    2    0    0 -0.96264716511E+00 -0.57290017759E+00  0.36901595241E+00  0.11794392528E+01  0.00000000000E+00 0. -1.
         11    1    3    3    0    0 -0.28873022126E+02  0.20137764604E+02 -0.83577772890E+01  0.36180566765E+02  0.51100000000E-03 0. -1.
        -11    1    3    3    0    0 -0.84993925708E+01 -0.75351141822E+00  0.71267931005E+01  0.11117492239E+02  0.51100000000E-03 0.  1.
        -12    1    3    3    0    0  0.38335061862E+02 -0.18811353009E+02  0.86196823614E+00  0.42710501743E+02  0.00000000000E+00 0.  1.
</event>
<event>
 7    1  0.2090370E-015  0.9000770E+02  0.7816164E-02  0.1186339E+00
        -11   -1    0    0    0    0  0.00000000000E+00  0.00000000000E+00  0.45593999997E+02  0.45594000000E+02  0.51100000000E-03 0. -1.
         11   -1    0    0    0    0 -0.00000000000E+00 -0.00000000000E+00 -0.45593999997E+02  0.45594000000E+02  0.51100000000E-03 0.  1.
    9900012    2    1    2    0    0  0.58340270000E+00 -0.55702452725E+00 -0.86167126517E+00  0.90007698173E+02  0.89999958989E+02 0.  0.
         12    1    1    2    0    0 -0.58340270000E+00  0.55702452725E+00  0.86167126517E+00  0.11803018273E+01  0.00000000000E+00 0. -1.
         11    1    3    3    0    0 -0.15829161351E+02 -0.32610035931E+02 -0.21352797125E+02  0.42070402159E+02  0.51100000000E-03 0. -1.
        -11    1    3    3    0    0  0.39632844389E+01 -0.19559421249E+01  0.88571257082E+01  0.98985862229E+01  0.51100000000E-03 0.  1.
        -12    1    3    3    0    0  0.12449279612E+02  0.34008953529E+02  0.11634000152E+02  0.38038709790E+02  0.00000000000E+00 0.  1.
</event>
<event>
 7    1  0.2090370E-015  0.9000776E+02  0.7816164E-02  0.1186339E+00
        -11   -1    0    0    0    0  0.00000000000E+00  0.00000000000E+00  0.45593999997E+02  0.45594000000E+02  0.51100000000E-03 0. -1.
         11   -1    0    0    0    0 -0.00000000000E+00 -0.00000000000E+00 -0.45593999997E+02  0.45594000000E+02  0.51100000000E-03 0.  1.
    9900012    2    1    2    0    0 -0.94834941925E+00  0.69861966795E+00  0.74343485110E-01  0.90007761458E+02  0.90000023110E+02 0.  0.
         12    1    1    2    0    0  0.94834941925E+00 -0.69861966795E+00 -0.74343485110E-01  0.11802385417E+01  0.00000000000E+00 0. -1.
         11    1    3    3    0    0  0.30102134460E+02 -0.77903790710E+01  0.19868548444E+02  0.36899698137E+02  0.51100000000E-03 0. -1.
        -11    1    3    3    0    0  0.21137925748E+01 -0.10320419477E+02 -0.79039125510E+01  0.13170080148E+02  0.51100000000E-03 0.  1.
        -12    1    3    3    0    0 -0.33164276454E+02  0.18809418216E+02 -0.11890292408E+02  0.39937983173E+02  0.00000000000E+00 0.  1.
</event>
<event>
 7    1  0.2090370E-015  0.9000766E+02  0.7816164E-02  0.1186339E+00
        -11   -1    0    0    0    0  0.00000000000E+00  0.00000000000E+00  0.45593999997E+02  0.45594000000E+02  0.51100000000E-03 0.  1.
         11   -1    0    0    0    0 -0.00000000000E+00 -0.00000000000E+00 -0.45593999997E+02  0.45594000000E+02  0.51100000000E-03 0. -1.
    9900012    2    1    2    0    0 -0.70727152134E-01 -0.21793117082E+00  0.11578846468E+01  0.90007663954E+02  0.89999924319E+02 0.  0.
         12    1    1    2    0    0  0.70727152134E-01  0.21793117082E+00 -0.11578846468E+01  0.11803360456E+01  0.00000000000E+00 0. -1.
         11    1    3    3    0    0 -0.41061207179E+01  0.48377033874E+01  0.71744786327E+01  0.95779301170E+01  0.51100000000E-03 0. -1.
        -11    1    3    3    0    0 -0.21736091354E+01 -0.22077914320E+02  0.31638872879E+02  0.38641650517E+02  0.51100000000E-03 0.  1.
         12    1    3    3    0    0  0.62090027011E+01  0.17022279761E+02 -0.37655466865E+02  0.41788083321E+02  0.00000000000E+00 0. -1.
</event>
<event>
 7    1  0.2090370E-015  0.9000777E+02  0.7816164E-02  0.1186339E+00
        -11   -1    0    0    0    0  0.00000000000E+00  0.00000000000E+00  0.45593999997E+02  0.45594000000E+02  0.51100000000E-03 0.  1.
         11   -1    0    0    0    0 -0.00000000000E+00 -0.00000000000E+00 -0.45593999997E+02  0.45594000000E+02  0.51100000000E-03 0. -1.
    9900012    2    1    2    0    0  0.66161289075E+00  0.20890863161E+00  0.95476574481E+00  0.90007766099E+02  0.90000027812E+02 0.  0.
         12    1    1    2    0    0 -0.66161289075E+00 -0.20890863161E+00 -0.95476574481E+00  0.11802339010E+01  0.00000000000E+00 0. -1.
         11    1    3    3    0    0  0.38392924845E+01  0.77907689591E+01 -0.35906224784E+02  0.36941754509E+02  0.51100000000E-03 0. -1.
        -11    1    3    3    0    0 -0.80740835640E+01  0.40473438378E+01 -0.43081661756E+01  0.10006603500E+02  0.51100000000E-03 0.  1.
        -12    1    3    3    0    0  0.48964039702E+01 -0.11629204165E+02  0.41169156704E+02  0.43059408090E+02  0.00000000000E+00 0.  1.
</event>
<event>
 7    1  0.2090370E-015  0.9000779E+02  0.7816164E-02  0.1186339E+00
        -11   -1    0    0    0    0  0.00000000000E+00  0.00000000000E+00  0.45593999997E+02  0.45594000000E+02  0.51100000000E-03 0.  1.
         11   -1    0    0    0    0 -0.00000000000E+00 -0.00000000000E+00 -0.45593999997E+02  0.45594000000E+02  0.51100000000E-03 0. -1.
    9900012    2    1    2    0    0  0.40418639756E-01  0.11787008656E+01 -0.43902480290E-01  0.90007789500E+02  0.90000051521E+02 0.  0.
         12    1    1    2    0    0 -0.40418639756E-01 -0.11787008656E+01  0.43902480290E-01  0.11802105002E+01  0.00000000000E+00 0. -1.
         11    1    3    3    0    0  0.16070922207E+02  0.45060806209E+01 -0.31777143461E+02  0.35893817712E+02  0.51100000000E-03 0. -1.
        -11    1    3    3    0    0  0.44561224514E+01  0.66250912769E+01 -0.60357692479E+01  0.10008964602E+02  0.51100000000E-03 0.  1.
        -12    1    3    3    0    0 -0.20486626018E+02 -0.99524710322E+01  0.37769010228E+02  0.44105007186E+02  0.00000000000E+00 0.  1.
</event>
<event>
 7    1  0.2090370E-015  0.9000769E+02  0.7816164E-02  0.1186339E+00
        -11   -1    0    0    0    0  0.00000000000E+00  0.00000000000E+00  0.45593999997E+02  0.45594000000E+02  0.51100000000E-03 0.  1.
         11   -1    0    0    0    0 -0.00000000000E+00 -0.00000000000E+00 -0.45593999997E+02  0.45594000000E+02  0.51100000000E-03 0. -1.
    9900012    2    1    2    0    0  0.66838880938E+00  0.79939073882E-01  0.96952888556E+00  0.90007694906E+02  0.89999955678E+02 0.  0.
         12    1    1    2    0    0 -0.66838880938E+00 -0.79939073882E-01 -0.96952888556E+00  0.11803050944E+01  0.00000000000E+00 0. -1.
         11    1    3    3    0    0 -0.68399427225E+01 -0.18803400398E+01  0.65424413894E+01  0.96500795182E+01  0.51100000000E-03 0. -1.
        -11    1    3    3    0    0 -0.33887500928E+02  0.12702459477E+02  0.43619504823E+01  0.36451910899E+02  0.51100000000E-03 0.  1.
         12    1    3    3    0    0  0.41395832460E+02 -0.10742180363E+02 -0.99348629861E+01  0.43905704488E+02  0.00000000000E+00 0. -1.
</event>
<event>
 7    1  0.2090370E-015  0.9000768E+02  0.7816164E-02  0.1186339E+00
        -11   -1    0    0    0    0  0.00000000000E+00  0.00000000000E+00  0.45593999997E+02  0.45594000000E+02  0.51100000000E-03 0. -1.
         11   -1    0    0    0    0 -0.00000000000E+00 -0.00000000000E+00 -0.45593999997E+02  0.45594000000E+02  0.51100000000E-03 0.  1.
    9900012    2    1    2    0    0  0.69515361155E+00 -0.90107580799E+00 -0.31302323658E+00  0.90007678136E+02  0.89999938688E+02 0.  0.
         12    1    1    2    0    0 -0.69515361155E+00  0.90107580799E+00  0.31302323658E+00  0.11803218637E+01  0.00000000000E+00 0. -1.
         11    1    3    3    0    0 -0.22066754093E+02  0.52293094141E+01  0.28700608971E+02  0.36578850019E+02  0.51100000000E-03 0. -1.
        -11    1    3    3    0    0  0.16769838328E+00 -0.11925679981E+02  0.43711019292E+01  0.12702617766E+02  0.51100000000E-03 0.  1.
        -12    1    3    3    0    0  0.22594209321E+02  0.57952947592E+01 -0.33384734137E+02  0.40726210351E+02  0.00000000000E+00 0.  1.
</event>
<event>
 7    1  0.2090370E-015  0.9000857E+02  0.7816164E-02  0.1186337E+00
        -11   -1    0    0    0    0  0.00000000000E+00  0.00000000000E+00  0.45593999997E+02  0.45594000000E+02  0.51100000000E-03 0.  1.
         11   -1    0    0    0    0 -0.00000000000E+00 -0.00000000000E+00 -0.45593999997E+02  0.45594000000E+02  0.51100000000E-03 0. -1.
    9900012    2    1    2    0    0  0.22147310534E-03 -0.53476551015E+00  0.10512234179E+01  0.90008574346E+02  0.90000846723E+02 0.  0.
         12    1    1    2    0    0 -0.22147310534E-03  0.53476551015E+00 -0.10512234179E+01  0.11794256544E+01  0.00000000000E+00 0. -1.
         11    1    3    3    0    0 -0.88102950567E+00 -0.83145844673E+01 -0.14933919236E+01  0.84934532172E+01  0.51100000000E-03 0. -1.
        -11    1    3    3    0    0 -0.98008931910E+00 -0.45140385196E+01  0.40917814241E+02  0.41177720206E+02  0.51100000000E-03 0.  1.
         12    1    3    3    0    0  0.18613402979E+01  0.12293857477E+02 -0.38373198900E+02  0.40337400922E+02  0.00000000000E+00 0. -1.
</event>
<event>
 7    1  0.2090370E-015  0.9000783E+02  0.7816164E-02  0.1186339E+00
        -11   -1    0    0    0    0  0.00000000000E+00  0.00000000000E+00  0.45593999997E+02  0.45594000000E+02  0.51100000000E-03 0. -1.
         11   -1    0    0    0    0 -0.00000000000E+00 -0.00000000000E+00 -0.45593999997E+02  0.45594000000E+02  0.51100000000E-03 0.  1.
    9900012    2    1    2    0    0  0.16279669873E+00  0.17214657037E+00 -0.11561391738E+01  0.90007832641E+02  0.90000095232E+02 0.  0.
         12    1    1    2    0    0 -0.16279669873E+00 -0.17214657037E+00  0.11561391738E+01  0.11801673593E+01  0.00000000000E+00 0. -1.
         11    1    3    3    0    0 -0.95987458563E+01 -0.13364838006E+02 -0.41033621853E+01  0.16958549420E+02  0.51100000000E-03 0. -1.
        -11    1    3    3    0    0 -0.20343247378E+02  0.16745418150E+02 -0.21601691319E+02  0.34071833103E+02  0.51100000000E-03 0.  1.
         12    1    3    3    0    0  0.30104789933E+02 -0.32084335730E+01  0.24548914330E+02  0.38977450118E+02  0.00000000000E+00 0. -1.
</event>
<event>
 7    1  0.2090370E-015  0.9000823E+02  0.7816164E-02  0.1186338E+00
        -11   -1    0    0    0    0  0.00000000000E+00  0.00000000000E+00  0.45593999997E+02  0.45594000000E+02  0.51100000000E-03 0.  1.
         11   -1    0    0    0    0 -0.00000000000E+00 -0.00000000000E+00 -0.45593999997E+02  0.45594000000E+02  0.51100000000E-03 0. -1.
    9900012    2    1    2    0    0 -0.11543954995E+01  0.18739397878E+00  0.15527793452E+00  0.90008230230E+02  0.90000498068E+02 0.  0.
         12    1    1    2    0    0  0.11543954995E+01 -0.18739397878E+00 -0.15527793452E+00  0.11797697697E+01  0.00000000000E+00 0. -1.
         11    1    3    3    0    0  0.22388657858E+02 -0.16051194318E+02 -0.21299837490E+02  0.34822060782E+02  0.51100000000E-03 0. -1.
        -11    1    3    3    0    0  0.42877191691E+01 -0.71712310881E+01 -0.54260883155E+01  0.99626063688E+01  0.51100000000E-03 0.  1.
        -12    1    3    3    0    0 -0.27830772527E+02  0.23409819385E+02  0.26881203740E+02  0.45223563080E+02  0.00000000000E+00 0.  1.
</event>
<event>
 7    1  0.2090370E-015  0.9000772E+02  0.7816164E-02  0.1186339E+00
        -11   -1    0    0    0    0  0.00000000000E+00  0.00000000000E+00  0.45593999997E+02  0.45594000000E+02  0.51100000000E-03 0. -1.
         11   -1    0    0    0    0 -0.00000000000E+00 -0.00000000000E+00 -0.45593999997E+02  0.45594000000E+02  0.51100000000E-03 0.  1.
    9900012    2    1    2    0    0 -0.98649720256E+00  0.33399451579E+00 -0.55527612688E+00  0.90007720099E+02  0.89999981204E+02 0.  0.
         12    1    1    2    0    0  0.98649720256E+00 -0.33399451579E+00  0.55527612688E+00  0.11802799008E+01  0.00000000000E+00 0. -1.
         11    1    3    3    0    0  0.26188275888E+01  0.78848599830E+01 -0.35114684014E+01  0.90199603928E+01  0.51100000000E-03 0. -1.
        -11    1    3    3    0    0 -0.34276307633E+02 -0.27033142154E+02  0.77531903364E+01  0.44336982310E+02  0.51100000000E-03 0.  1.
         12    1    3    3    0    0  0.30670982841E+02  0.19482276687E+02 -0.47969980618E+01  0.36650777397E+02  0.00000000000E+00 0. -1.
</event>
<event>
 7    1  0.2414278E-015  0.9000781E+02  0.7816164E-02  0.1186339E+00
        -11   -1    0    0    0    0  0.00000000000E+00  0.00000000000E+00  0.45593999997E+02  0.45594000000E+02  0.51100000000E-03 0.  1.
         11   -1    0    0    0    0 -0.00000000000E+00 -0.00000000000E+00 -0.45593999997E+02  0.45594000000E+02  0.51100000000E-03 0. -1.
    9900012    2    1    2    0    0  0.53966515249E+00 -0.12207579745E+00  0.10424481140E+01  0.90007813978E+02  0.90000076322E+02 0.  0.
         12    1    1    2    0    0 -0.53966515249E+00  0.12207579745E+00 -0.10424481140E+01  0.11801860224E+01  0.00000000000E+00 0. -1.
         11    1    3    3    0    0 -0.20347412531E+02 -0.20863880918E+02 -0.26124013883E+02  0.39137997206E+02  0.51100000000E-03 0. -1.
        -11    1    3    3    0    0 -0.11147180809E+01 -0.72663808692E+01  0.54961692822E+01  0.91788215134E+01  0.51100000000E-03 0.  1.
        -12    1    3    3    0    0  0.22001795764E+02  0.28008185990E+02  0.21670292715E+02  0.41690995258E+02  0.00000000000E+00 0.  1.
</event>
<event>
 7    1  0.2090370E-015  0.9000781E+02  0.7816164E-02  0.1186339E+00
        -11   -1    0    0    0    0  0.00000000000E+00  0.00000000000E+00  0.45593999997E+02  0.45594000000E+02  0.51100000000E-03 0.  1.
         11   -1    0    0    0    0 -0.00000000000E+00 -0.00000000000E+00 -0.45593999997E+02  0.45594000000E+02  0.51100000000E-03 0. -1.
    9900012    2    1    2    0    0 -0.15740027721E+00  0.10307831671E+01  0.55277970354E+00  0.90007807564E+02  0.90000069824E+02 0.  0.
         12    1    1    2    0    0  0.15740027721E+00 -0.10307831671E+01 -0.55277970354E+00  0.11801924358E+01  0.00000000000E+00 0. -1.
         11    1    3    3    0    0  0.33245594672E+02  0.19679263254E+02  0.66273570771E+01  0.39197765618E+02  0.51100000000E-03 0. -1.
        -11    1    3    3    0    0 -0.16148043966E+01  0.33888833950E+01  0.86443561359E+01  0.94242780715E+01  0.51100000000E-03 0.  1.
        -12    1    3    3    0    0 -0.31788190553E+02 -0.22037363482E+02 -0.14718933509E+02  0.41385763875E+02  0.00000000000E+00 0.  1.
</event>
<event>
 7    1  0.2090370E-015  0.9000895E+02  0.7816164E-02  0.1186337E+00
        -11   -1    0    0    0    0  0.00000000000E+00  0.00000000000E+00  0.45593999997E+02  0.45594000000E+02  0.51100000000E-03 0. -1.
         11   -1    0    0    0    0 -0.00000000000E+00 -0.00000000000E+00 -0.45593999997E+02  0.45594000000E+02  0.51100000000E-03 0.  1.
    9900012    2    1    2    0    0 -0.94823288713E+00  0.70059302899E+00 -0.13384411110E-01  0.90008951509E+02  0.90001228861E+02 0.  0.
         12    1    1    2    0    0  0.94823288713E+00 -0.70059302899E+00  0.13384411110E-01  0.11790484905E+01  0.00000000000E+00 0. -1.
         11    1    3    3    0    0  0.11581118158E+01 -0.19556260793E+01 -0.93291806812E+01  0.96020471143E+01  0.51100000000E-03 0. -1.
        -11    1    3    3    0    0  0.19952593765E+02 -0.21089815209E+02 -0.21154372902E+02  0.35922051676E+02  0.51100000000E-03 0.  1.
         12    1    3    3    0    0 -0.22058938468E+02  0.23746034317E+02  0.30470169172E+02  0.44484852719E+02  0.00000000000E+00 0. -1.
</event>
<event>
 7    1  0.2090370E-015  0.9000782E+02  0.7816164E-02  0.1186339E+00
        -11   -1    0    0    0    0  0.00000000000E+00  0.00000000000E+00  0.45593999997E+02  0.45594000000E+02  0.51100000000E-03 0.  1.
         11   -1    0    0    0    0 -0.00000000000E+00 -0.00000000000E+00 -0.45593999997E+02  0.45594000000E+02  0.51100000000E-03 0. -1.
    9900012    2    1    2    0    0 -0.11269314555E+01  0.15244995141E+00 -0.31560599340E+00  0.90007820930E+02  0.90000083367E+02 0.  0.
         12    1    1    2    0    0  0.11269314555E+01 -0.15244995141E+00  0.31560599340E+00  0.11801790695E+01  0.00000000000E+00 0. -1.
         11    1    3    3    0    0 -0.22896126000E+02 -0.30170912247E+02 -0.46656469114E+01  0.38161299676E+02  0.51100000000E-03 0. -1.
        -11    1    3    3    0    0 -0.35329637503E+01 -0.38649744760E+01  0.75559348386E+01  0.91930415047E+01  0.51100000000E-03 0.  1.
        -12    1    3    3    0    0  0.25302158295E+02  0.34188336674E+02 -0.32058939206E+01  0.42653479750E+02  0.00000000000E+00 0.  1.
</event>
<event>
 7    1  0.2090370E-015  0.9000792E+02  0.7816164E-02  0.1186339E+00
        -11   -1    0    0    0    0  0.00000000000E+00  0.00000000000E+00  0.45593999997E+02  0.45594000000E+02  0.51100000000E-03 0. -1.
         11   -1    0    0    0    0 -0.00000000000E+00 -0.00000000000E+00 -0.45593999997E+02  0.45594000000E+02  0.51100000000E-03 0.  1.
    9900012    2    1    2    0    0  0.38659788862E+00  0.15861766112E+00 -0.11036146046E+01  0.90007922593E+02  0.90000186371E+02 0.  0.
         12    1    1    2    0    0 -0.38659788862E+00 -0.15861766112E+00  0.11036146046E+01  0.11800774065E+01  0.00000000000E+00 0. -1.
         11    1    3    3    0    0 -0.37512053781E+00  0.48809926008E+01 -0.85982866387E+01  0.98942072734E+01  0.51100000000E-03 0. -1.
        -11    1    3    3    0    0  0.33621483939E+02 -0.24087712937E+02  0.71340392675E+01  0.41970425461E+02  0.51100000000E-03 0.  1.
         12    1    3    3    0    0 -0.32859765513E+02  0.19365337998E+02  0.36063276656E+00  0.38143289859E+02  0.00000000000E+00 0. -1.
</event>
<event>
 7    1  0.2090370E-015  0.9000781E+02  0.7816164E-02  0.1186339E+00
        -11   -1    0    0    0    0  0.00000000000E+00  0.00000000000E+00  0.45593999997E+02  0.45594000000E+02  0.51100000000E-03 0.  1.
         11   -1    0    0    0    0 -0.00000000000E+00 -0.00000000000E+00 -0.45593999997E+02  0.45594000000E+02  0.51100000000E-03 0. -1.
    9900012    2    1    2    0    0  0.13478622193E+00  0.10651412571E+01 -0.49006365341E+00  0.90007806962E+02  0.90000069214E+02 0.  0.
         12    1    1    2    0    0 -0.13478622193E+00 -0.10651412571E+01  0.49006365341E+00  0.11801930383E+01  0.00000000000E+00 0. -1.
         11    1    3    3    0    0 -0.31067113965E+02  0.99397068063E+01  0.14257357056E+02  0.35598252373E+02  0.51100000000E-03 0. -1.
        -11    1    3    3    0    0 -0.20760400982E+01  0.48547379212E+01  0.95958477070E+01  0.10952566651E+02  0.51100000000E-03 0.  1.
        -12    1    3    3    0    0  0.33277940285E+02 -0.13729303470E+02 -0.24343268416E+02  0.43456987938E+02  0.00000000000E+00 0.  1.
</event>
<event>
 7    1  0.2090370E-015  0.9000774E+02  0.7816164E-02  0.1186339E+00
        -11   -1    0    0    0    0  0.00000000000E+00  0.00000000000E+00  0.45593999997E+02  0.45594000000E+02  0.51100000000E-03 0.  1.
         11   -1    0    0    0    0 -0.00000000000E+00 -0.00000000000E+00 -0.45593999997E+02  0.45594000000E+02  0.51100000000E-03 0. -1.
    9900012    2    1    2    0    0 -0.10320009238E+01  0.37346883366E+00  0.43417583419E+00  0.90007740058E+02  0.90000001426E+02 0.  0.
         12    1    1    2    0    0  0.10320009238E+01 -0.37346883366E+00 -0.43417583419E+00  0.11802599423E+01  0.00000000000E+00 0. -1.
         11    1    3    3    0    0  0.72779815855E+01  0.23119287421E+00  0.63289157839E+01  0.96476754384E+01  0.51100000000E-03 0. -1.
        -11    1    3    3    0    0  0.30255551209E+02 -0.26923859094E+01 -0.22975892441E+02  0.38085941692E+02  0.51100000000E-03 0.  1.
         12    1    3    3    0    0 -0.38565533718E+02  0.28346618688E+01  0.17081152491E+02  0.42274122928E+02  0.00000000000E+00 0. -1.
</event>
<event>
 7    1  0.2090370E-015  0.9000779E+02  0.7816164E-02  0.1186339E+00
        -11   -1    0    0    0    0  0.00000000000E+00  0.00000000000E+00  0.45593999997E+02  0.45594000000E+02  0.51100000000E-03 0. -1.
         11   -1    0    0    0    0 -0.00000000000E+00 -0.00000000000E+00 -0.45593999997E+02  0.45594000000E+02  0.51100000000E-03 0.  1.
    9900012    2    1    2    0    0  0.71652340666E+00  0.72383050301E-01 -0.93501662151E+00  0.90007787654E+02  0.90000049651E+02 0.  0.
         12    1    1    2    0    0 -0.71652340666E+00 -0.72383050301E-01  0.93501662151E+00  0.11802123456E+01  0.00000000000E+00 0. -1.
         11    1    3    3    0    0 -0.27961696906E+01 -0.35008512734E+02  0.19868667134E+02  0.40350693460E+02  0.51100000000E-03 0. -1.
        -11    1    3    3    0    0  0.26697636047E+01  0.72726432978E+01  0.69150740581E+01  0.10384470508E+02  0.51100000000E-03 0.  1.
        -12    1    3    3    0    0  0.84292949257E+00  0.27808252487E+02 -0.27718757813E+02  0.39272623686E+02  0.00000000000E+00 0.  1.
</event>
<event>
 7    1  0.2090370E-015  0.9000787E+02  0.7816164E-02  0.1186339E+00
        -11   -1    0    0    0    0  0.00000000000E+00  0.00000000000E+00  0.45593999997E+02  0.45594000000E+02  0.51100000000E-03 0.  1.
         11   -1    0    0    0    0 -0.00000000000E+00 -0.00000000000E+00 -0.45593999997E+02  0.45594000000E+02  0.51100000000E-03 0. -1.
    9900012    2    1    2    0    0  0.10588401942E+01  0.51414177673E+00  0.84991028881E-01  0.90007869584E+02  0.90000132663E+02 0.  0.
         12    1    1    2    0    0 -0.10588401942E+01 -0.51414177673E+00 -0.84991028881E-01  0.11801304159E+01  0.00000000000E+00 0. -1.
         11    1    3    3    0    0  0.49882108786E+01  0.68778261347E+01 -0.45737052045E+01  0.96491201499E+01  0.51100000000E-03 0. -1.
        -11    1    3    3    0    0  0.59704757806E+01  0.13757853653E+02  0.37616060908E+02  0.40495594287E+02  0.51100000000E-03 0.  1.
         12    1    3    3    0    0 -0.98998464650E+01 -0.20121538011E+02 -0.32957364675E+02  0.39863155147E+02  0.00000000000E+00 0. -1.
</event>
<event>
 7    1  0.3035112E-015  0.9000788E+02  0.7816164E-02  0.1186339E+00
        -11   -1    0    0    0    0  0.00000000000E+00  0.00000000000E+00  0.45593999997E+02  0.45594000000E+02  0.51100000000E-03 0.  1.
         11   -1    0    0    0    0 -0.00000000000E+00 -0.00000000000E+00 -0.45593999997E+02  0.45594000000E+02  0.51100000000E-03 0. -1.
    9900012    2    1    2    0    0 -0.11076645764E+01  0.13616116621E+00  0.38368585613E+00  0.90007883263E+02  0.90000146522E+02 0.  0.
         12    1    1    2    0    0  0.11076645764E+01 -0.13616116621E+00 -0.38368585613E+00  0.11801167371E+01  0.00000000000E+00 0. -1.
         11    1    3    3    0    0 -0.91424554435E+01 -0.34090762638E+01 -0.38572308682E+02  0.39787300610E+02  0.51100000000E-03 0. -1.
        -11    1    3    3    0    0  0.88817034479E+01  0.11670443776E+01 -0.20067913937E+01  0.91800795571E+01  0.51100000000E-03 0.  1.
        -12    1    3    3    0    0 -0.84691258079E+00  0.23781930524E+01  0.40962785932E+02  0.41040503096E+02  0.00000000000E+00 0.  1.
</event>
<event>
 7    1  0.2090370E-015  0.9000775E+02  0.7816164E-02  0.1186339E+00
        -11   -1    0    0    0    0  0.00000000000E+00  0.00000000000E+00  0.45593999997E+02  0.45594000000E+02  0.51100000000E-03 0.  1.
         11   -1    0    0    0    0 -0.00000000000E+00 -0.00000000000E+00 -0.45593999997E+02  0.45594000000E+02  0.51100000000E-03 0. -1.
    9900012    2    1    2    0    0  0.23515239306E+00  0.11562700323E+01  0.26980531634E-01  0.90007752151E+02  0.90000013680E+02 0.  0.
         12    1    1    2    0    0 -0.23515239306E+00 -0.11562700323E+01 -0.26980531634E-01  0.11802478489E+01  0.00000000000E+00 0. -1.
         11    1    3    3    0    0  0.55382990650E+01 -0.10597384988E+02 -0.20414917086E+01  0.12130334446E+02  0.51100000000E-03 0. -1.
        -11    1    3    3    0    0  0.27116095412E+02 -0.18599283335E+02  0.54822384384E+01  0.33335730223E+02  0.51100000000E-03 0.  1.
         12    1    3    3    0    0 -0.32419242084E+02  0.30352938355E+02 -0.34137661982E+01  0.44541687482E+02  0.00000000000E+00 0. -1.
</event>
<event>
 7    1  0.2090370E-015  0.9000781E+02  0.7816164E-02  0.1186339E+00
        -11   -1    0    0    0    0  0.00000000000E+00  0.00000000000E+00  0.45593999997E+02  0.45594000000E+02  0.51100000000E-03 0. -1.
         11   -1    0    0    0    0 -0.00000000000E+00 -0.00000000000E+00 -0.45593999997E+02  0.45594000000E+02  0.51100000000E-03 0.  1.
    9900012    2    1    2    0    0 -0.78770205054E+00 -0.33191641555E+00 -0.81375465581E+00  0.90007813715E+02  0.90000076056E+02 0.  0.
         12    1    1    2    0    0  0.78770205054E+00  0.33191641555E+00  0.81375465581E+00  0.11801862850E+01  0.00000000000E+00 0. -1.
         11    1    3    3    0    0 -0.22420793224E+02 -0.21963072275E+02  0.13915547172E+02  0.34332360331E+02  0.51100000000E-03 0. -1.
        -11    1    3    3    0    0 -0.12108439689E+02 -0.56103523449E+00  0.13715378473E+01  0.12198778159E+02  0.51100000000E-03 0.  1.
        -12    1    3    3    0    0  0.33741530862E+02  0.22192191094E+02 -0.16100839675E+02  0.43476675226E+02  0.00000000000E+00 0.  1.
</event>
<event>
 7    1  0.2090370E-015  0.9000776E+02  0.7816164E-02  0.1186339E+00
        -11   -1    0    0    0    0  0.00000000000E+00  0.00000000000E+00  0.45593999997E+02  0.45594000000E+02  0.51100000000E-03 0. -1.
         11   -1    0    0    0    0 -0.00000000000E+00 -0.00000000000E+00 -0.45593999997E+02  0.45594000000E+02  0.51100000000E-03 0.  1.
    9900012    2    1    2    0    0  0.89564644840E+00 -0.42037536774E+00 -0.64348364042E+00  0.90007758836E+02  0.90000020452E+02 0.  0.
         12    1    1    2    0    0 -0.89564644840E+00  0.42037536774E+00  0.64348364042E+00  0.11802411643E+01  0.00000000000E+00 0. -1.
         11    1    3    3    0    0 -0.15369169110E+01 -0.55427498700E+01  0.75045311052E+01  0.94552724489E+01  0.51100000000E-03 0. -1.
        -11    1    3    3    0    0  0.26978925894E+02 -0.18071404210E+02 -0.26683615723E+02  0.42029197480E+02  0.51100000000E-03 0.  1.
         12    1    3    3    0    0 -0.24546362534E+02  0.23193778712E+02  0.18535600977E+02  0.38523288907E+02  0.00000000000E+00 0. -1.
</event>
<event>
 7    1  0.2090370E-015  0.9000780E+02  0.7816164E-02  0.1186339E+00
        -11   -1    0    0    0    0  0.00000000000E+00  0.00000000000E+00  0.45593999997E+02  0.45594000000E+02  0.51100000000E-03 0. -1.
         11   -1    0    0    0    0 -0.00000000000E+00 -0.00000000000E+00 -0.45593999997E+02  0.45594000000E+02  0.51100000000E-03 0.  1.
    9900012    2    1    2    0    0 -0.10928422386E+01  0.30400928077E+00 -0.32578618761E+00  0.90007804067E+02  0.90000066280E+02 0.  0.
         12    1    1    2    0    0  0.10928422386E+01 -0.30400928077E+00  0.32578618761E+00  0.11801959334E+01  0.00000000000E+00 0. -1.
         11    1    3    3    0    0 -0.19082266899E+02  0.30416624992E+02  0.23335511341E+02  0.42823475755E+02  0.51100000000E-03 0. -1.
        -11    1    3    3    0    0 -0.13688820034E+00  0.15004224398E+00 -0.89685808361E+01  0.89708803096E+01  0.51100000000E-03 0.  1.
        -12    1    3    3    0    0  0.18126312860E+02 -0.30262657955E+02 -0.14692716692E+02  0.38213448002E+02  0.00000000000E+00 0.  1.
</event>
<event>
 7    1  0.2090370E-015  0.9000787E+02  0.7816164E-02  0.1186339E+00
        -11   -1    0    0    0    0  0.00000000000E+00  0.00000000000E+00  0.45593999997E+02  0.45594000000E+02  0.51100000000E-03 0. -1.
         11   -1    0    0    0    0 -0.00000000000E+00 -0.00000000000E+00 -0.45593999997E+02  0.45594000000E+02  0.51100000000E-03 0.  1.
    9900012    2    1    2    0    0 -0.71906549216E+00 -0.65962174691E+00 -0.66374052147E+00  0.90007869706E+02  0.90000132786E+02 0.  0.
         12    1    1    2    0    0  0.71906549216E+00  0.65962174691E+00  0.66374052147E+00  0.11801302940E+01  0.00000000000E+00 0. -1.
         11    1    3    3    0    0 -0.15517016183E+01  0.87247871278E+01 -0.28553830808E+01  0.93103652526E+01  0.51100000000E-03 0. -1.
        -11    1    3    3    0    0  0.39380559186E+02 -0.26456440926E+01 -0.79726487438E+01  0.40266499758E+02  0.51100000000E-03 0.  1.
         12    1    3    3    0    0 -0.38547923060E+02 -0.67387647821E+01  0.10164291303E+02  0.40431004696E+02  0.00000000000E+00 0. -1.
</event>
<event>
 7    1  0.2090370E-015  0.9000773E+02  0.7816164E-02  0.1186339E+00
        -11   -1    0    0    0    0  0.00000000000E+00  0.00000000000E+00  0.45593999997E+02  0.45594000000E+02  0.51100000000E-03 0. -1.
         11   -1    0    0    0    0 -0.00000000000E+00 -0.00000000000E+00 -0.45593999997E+02  0.45594000000E+02  0.51100000000E-03 0.  1.
    9900012    2    1    2    0    0  0.76832490024E+00  0.43456420688E+00 -0.78350481494E+00  0.90007725033E+02  0.89999986204E+02 0.  0.
         12    1    1    2    0    0 -0.76832490024E+00 -0.43456420688E+00  0.78350481494E+00  0.11802749668E+01  0.00000000000E+00 0. -1.
         11    1    3    3    0    0 -0.44470634864E+00 -0.35031124825E+02  0.61717740638E+01  0.35573420774E+02  0.51100000000E-03 0. -1.
        -11    1    3    3    0    0  0.94162540441E+00 -0.89662363644E+01 -0.41167112293E+01  0.99109719277E+01  0.51100000000E-03 0.  1.
        -12    1    3    3    0    0  0.27140584447E+00  0.44431925396E+02 -0.28385676495E+01  0.44523332331E+02  0.00000000000E+00 0.  1.
</event>
<event>
 7    1  0.2090370E-015  0.9000761E+02  0.7816164E-02  0.1186339E+00
        -11   -1    0    0    0    0  0.00000000000E+00  0.00000000000E+00  0.45593999997E+02  0.45594000000E+02  0.51100000000E-03 0.  1.
         11   -1    0    0    0    0 -0.00000000000E+00 -0.00000000000E+00 -0.45593999997E+02  0.45594000000E+02  0.51100000000E-03 0. -1.
    9900012    2    1    2    0    0 -0.28460168591E+00 -0.10051486965E+01  0.54953403004E+00  0.90007614609E+02  0.89999874322E+02 0.  0.
         12    1    1    2    0    0  0.28460168591E+00  0.10051486965E+01 -0.54953403004E+00  0.11803853912E+01  0.00000000000E+00 0. -1.
         11    1    3    3    0    0  0.58215100016E+01 -0.60389856789E+01  0.58561425562E+01  0.10230040695E+02  0.51100000000E-03 0. -1.
        -11    1    3    3    0    0 -0.18297116314E+02 -0.34016524523E+02 -0.42078828950E+01  0.38853760240E+02  0.51100000000E-03 0.  1.
         12    1    3    3    0    0  0.12191004627E+02  0.39050361506E+02 -0.10987256312E+01  0.40923813673E+02  0.00000000000E+00 0. -1.
</event>
<event>
 7    1  0.2090370E-015  0.9000771E+02  0.7816164E-02  0.1186339E+00
        -11   -1    0    0    0    0  0.00000000000E+00  0.00000000000E+00  0.45593999997E+02  0.45594000000E+02  0.51100000000E-03 0.  1.
         11   -1    0    0    0    0 -0.00000000000E+00 -0.00000000000E+00 -0.45593999997E+02  0.45594000000E+02  0.51100000000E-03 0. -1.
    9900012    2    1    2    0    0  0.79551660122E-01 -0.83726544537E+00 -0.82810240835E+00  0.90007705337E+02  0.89999966248E+02 0.  0.
         12    1    1    2    0    0 -0.79551660122E-01  0.83726544537E+00  0.82810240835E+00  0.11802946629E+01  0.00000000000E+00 0. -1.
         11    1    3    3    0    0 -0.48699781081E+00 -0.40256689498E+02  0.33222415029E-01  0.40259648784E+02  0.51100000000E-03 0. -1.
        -11    1    3    3    0    0 -0.32420635124E+01 -0.34596523633E+01 -0.45127092427E+01  0.65455874652E+01  0.51100000000E-03 0.  1.
        -12    1    3    3    0    0  0.38086129834E+01  0.42879076416E+02  0.36513844194E+01  0.43202469088E+02  0.00000000000E+00 0.  1.
</event>
<event>
 7    1  0.2271123E-015  0.9000774E+02  0.7816164E-02  0.1186339E+00
        -11   -1    0    0    0    0  0.00000000000E+00  0.00000000000E+00  0.45593999997E+02  0.45594000000E+02  0.51100000000E-03 0.  1.
         11   -1    0    0    0    0 -0.00000000000E+00 -0.00000000000E+00 -0.45593999997E+02  0.45594000000E+02  0.51100000000E-03 0. -1.
    9900012    2    1    2    0    0  0.28394509079E+00  0.61518888461E+00  0.96640456818E+00  0.90007737331E+02  0.89999998664E+02 0.  0.
         12    1    1    2    0    0 -0.28394509079E+00 -0.61518888461E+00 -0.96640456818E+00  0.11802626690E+01  0.00000000000E+00 0. -1.
         11    1    3    3    0    0  0.61640723933E+01 -0.93116094082E+01 -0.36264366341E+02  0.37944777304E+02  0.51100000000E-03 0. -1.
        -11    1    3    3    0    0 -0.24262680607E+01  0.80733197022E+01 -0.48997223235E+01  0.97505152081E+01  0.51100000000E-03 0.  1.
        -12    1    3    3    0    0 -0.34538592419E+01  0.18534785907E+01  0.42130493233E+02  0.42312444819E+02  0.00000000000E+00 0.  1.
</event>
<event>
 7    1  0.2090370E-015  0.9000768E+02  0.7816164E-02  0.1186339E+00
        -11   -1    0    0    0    0  0.00000000000E+00  0.00000000000E+00  0.45593999997E+02  0.45594000000E+02  0.51100000000E-03 0.  1.
         11   -1    0    0    0    0 -0.00000000000E+00 -0.00000000000E+00 -0.45593999997E+02  0.45594000000E+02  0.51100000000E-03 0. -1.
    9900012    2    1    2    0    0 -0.13156430817E-01  0.43166953671E+00  0.10984766177E+01  0.90007676925E+02  0.89999937461E+02 0.  0.
         12    1    1    2    0    0  0.13156430817E-01 -0.43166953671E+00 -0.10984766177E+01  0.11803230745E+01  0.00000000000E+00 0. -1.
         11    1    3    3    0    0  0.73049257911E+01 -0.79156098016E+00  0.66068784236E+01  0.98812626907E+01  0.51100000000E-03 0. -1.
        -11    1    3    3    0    0  0.35281165684E+02 -0.82907212418E+01 -0.38512088539E+01  0.36446241516E+02  0.51100000000E-03 0.  1.
         12    1    3    3    0    0 -0.42599247906E+02  0.95139517587E+01 -0.16571929519E+01  0.43680172719E+02  0.00000000000E+00 0. -1.
</event>
<event>
 7    1  0.2090370E-015  0.9000774E+02  0.7816164E-02  0.1186339E+00
        -11   -1    0    0    0    0  0.00000000000E+00  0.00000000000E+00  0.45593999997E+02  0.45594000000E+02  0.51100000000E-03 0. -1.
         11   -1    0    0    0    0 -0.00000000000E+00 -0.00000000000E+00 -0.45593999997E+02  0.45594000000E+02  0.51100000000E-03 0.  1.
    9900012    2    1    2    0    0  0.84246462450E+00 -0.40643758073E+00 -0.71976777535E+00  0.90007744180E+02  0.90000005603E+02 0.  0.
         12    1    1    2    0    0 -0.84246462450E+00  0.40643758073E+00  0.71976777535E+00  0.11802558202E+01  0.00000000000E+00 0. -1.
         11    1    3    3    0    0  0.26310485806E+01  0.91300109312E+01 -0.18087854411E+01  0.96721880291E+01  0.51100000000E-03 0. -1.
        -11    1    3    3    0    0 -0.35446766053E+02 -0.86270557007E+01  0.20116994582E+02  0.41660446288E+02  0.51100000000E-03 0.  1.
         12    1    3    3    0    0  0.33658182097E+02 -0.90939281116E+00 -0.19027976916E+02  0.38675109862E+02  0.00000000000E+00 0. -1.
</event>
<event>
 7    1  0.2090370E-015  0.9000779E+02  0.7816164E-02  0.1186339E+00
        -11   -1    0    0    0    0  0.00000000000E+00  0.00000000000E+00  0.45593999997E+02  0.45594000000E+02  0.51100000000E-03 0.  1.
         11   -1    0    0    0    0 -0.00000000000E+00 -0.00000000000E+00 -0.45593999997E+02  0.45594000000E+02  0.51100000000E-03 0. -1.
    9900012    2    1    2    0    0  0.22537829767E+00  0.50601645524E+00  0.10421412875E+01  0.90007785404E+02  0.90000047371E+02 0.  0.
         12    1    1    2    0    0 -0.22537829767E+00 -0.50601645524E+00 -0.10421412875E+01  0.11802145962E+01  0.00000000000E+00 0. -1.
         11    1    3    3    0    0 -0.57678007227E+01  0.38306738913E+02  0.66965446538E+01  0.39313070115E+02  0.51100000000E-03 0. -1.
        -11    1    3    3    0    0  0.45404296409E+01  0.10200953642E+01  0.82180071248E+01  0.94441377182E+01  0.51100000000E-03 0.  1.
        -12    1    3    3    0    0  0.14527493794E+01 -0.38820817821E+02 -0.13872410491E+02  0.41250577571E+02  0.00000000000E+00 0.  1.
</event>
<event>
 7    1  0.2090370E-015  0.9000780E+02  0.7816164E-02  0.1186339E+00
        -11   -1    0    0    0    0  0.00000000000E+00  0.00000000000E+00  0.45593999997E+02  0.45594000000E+02  0.51100000000E-03 0.  1.
         11   -1    0    0    0    0 -0.00000000000E+00 -0.00000000000E+00 -0.45593999997E+02  0.45594000000E+02  0.51100000000E-03 0. -1.
    9900012    2    1    2    0    0  0.86430366816E+00 -0.48392364335E+00  0.64161731762E+00  0.90007798447E+02  0.90000060586E+02 0.  0.
         12    1    1    2    0    0 -0.86430366816E+00  0.48392364335E+00 -0.64161731762E+00  0.11802015530E+01  0.00000000000E+00 0. -1.
         11    1    3    3    0    0  0.26581183105E+02 -0.25173916825E+02  0.13708743122E+02  0.39092390843E+02  0.51100000000E-03 0. -1.
        -11    1    3    3    0    0  0.79157194339E+01  0.40636750183E+01  0.11636622849E+01  0.89736380017E+01  0.51100000000E-03 0.  1.
        -12    1    3    3    0    0 -0.33632598871E+02  0.20626318163E+02 -0.14230788089E+02  0.41941769603E+02  0.00000000000E+00 0.  1.
</event>
<event>
 7    1  0.2090370E-015  0.9000740E+02  0.7816164E-02  0.1186340E+00
        -11   -1    0    0    0    0  0.00000000000E+00  0.00000000000E+00  0.45593999997E+02  0.45594000000E+02  0.51100000000E-03 0. -1.
         11   -1    0    0    0    0 -0.00000000000E+00 -0.00000000000E+00 -0.45593999997E+02  0.45594000000E+02  0.51100000000E-03 0.  1.
    9900012    2    1    2    0    0  0.80701611037E+00 -0.16261531266E+00 -0.84623111760E+00  0.90007395982E+02  0.89999652809E+02 0.  0.
         12    1    1    2    0    0 -0.80701611037E+00  0.16261531266E+00  0.84623111760E+00  0.11806040177E+01  0.00000000000E+00 0. -1.
         11    1    3    3    0    0 -0.60626137493E+01  0.52262459942E+01  0.81771680114E+01  0.11442683672E+02  0.51100000000E-03 0. -1.
        -11    1    3    3    0    0  0.33659943458E+02  0.10195072305E+02  0.16088329682E+02  0.38675129542E+02  0.51100000000E-03 0.  1.
         12    1    3    3    0    0 -0.26790313598E+02 -0.15583933612E+02 -0.25111728811E+02  0.39889582768E+02  0.00000000000E+00 0. -1.
</event>
<event>
 7    1  0.2090370E-015  0.9000772E+02  0.7816164E-02  0.1186339E+00
        -11   -1    0    0    0    0  0.00000000000E+00  0.00000000000E+00  0.45593999997E+02  0.45594000000E+02  0.51100000000E-03 0.  1.
         11   -1    0    0    0    0 -0.00000000000E+00 -0.00000000000E+00 -0.45593999997E+02  0.45594000000E+02  0.51100000000E-03 0. -1.
    9900012    2    1    2    0    0 -0.10770468589E+00 -0.57784692532E+00  0.10234977454E+01  0.90007722489E+02  0.89999983626E+02 0.  0.
         12    1    1    2    0    0  0.10770468589E+00  0.57784692532E+00 -0.10234977454E+01  0.11802775111E+01  0.00000000000E+00 0. -1.
         11    1    3    3    0    0  0.19097491110E+02  0.15027695728E+02 -0.24957212952E+02  0.34834010452E+02  0.51100000000E-03 0. -1.
        -11    1    3    3    0    0  0.56952629498E+00  0.10158532351E+02 -0.40390491054E+01  0.10946874333E+02  0.51100000000E-03 0.  1.
        -12    1    3    3    0    0 -0.19774722091E+02 -0.25764075005E+02  0.30019759803E+02  0.44226837703E+02  0.00000000000E+00 0.  1.
</event>
<event>
 7    1  0.2090370E-015  0.9000776E+02  0.7816164E-02  0.1186339E+00
        -11   -1    0    0    0    0  0.00000000000E+00  0.00000000000E+00  0.45593999997E+02  0.45594000000E+02  0.51100000000E-03 0. -1.
         11   -1    0    0    0    0 -0.00000000000E+00 -0.00000000000E+00 -0.45593999997E+02  0.45594000000E+02  0.51100000000E-03 0.  1.
    9900012    2    1    2    0    0 -0.45721146462E+00 -0.78501062689E+00  0.75344322384E+00  0.90007762439E+02  0.90000024104E+02 0.  0.
         12    1    1    2    0    0  0.45721146462E+00  0.78501062689E+00 -0.75344322384E+00  0.11802375605E+01  0.00000000000E+00 0. -1.
         11    1    3    3    0    0  0.25943138661E+01  0.11917878906E+02  0.26257620362E+02  0.28952183499E+02  0.51100000000E-03 0. -1.
        -11    1    3    3    0    0  0.11011667192E+02 -0.11060363274E+01  0.13824154443E+02  0.17708398488E+02  0.51100000000E-03 0.  1.
        -12    1    3    3    0    0 -0.14063192522E+02 -0.11596853205E+02 -0.39328331581E+02  0.43347180452E+02  0.00000000000E+00 0.  1.
</event>
<event>
 7    1  0.2939336E-015  0.9000758E+02  0.7816164E-02  0.1186339E+00
        -11   -1    0    0    0    0  0.00000000000E+00  0.00000000000E+00  0.45593999997E+02  0.45594000000E+02  0.51100000000E-03 0. -1.
         11   -1    0    0    0    0 -0.00000000000E+00 -0.00000000000E+00 -0.45593999997E+02  0.45594000000E+02  0.51100000000E-03 0.  1.
    9900012    2    1    2    0    0  0.45077671100E+00  0.40475093696E+00 -0.10131008501E+01  0.90007577916E+02  0.89999837144E+02 0.  0.
         12    1    1    2    0    0 -0.45077671100E+00 -0.40475093696E+00  0.10131008501E+01  0.11804220841E+01  0.00000000000E+00 0. -1.
         11    1    3    3    0    0 -0.22220336044E+02  0.28123591384E+02  0.18080477779E+02  0.40144531423E+02  0.51100000000E-03 0. -1.
        -11    1    3    3    0    0  0.19441132098E+01 -0.48692815558E+01  0.74878843390E+01  0.91410005567E+01  0.51100000000E-03 0.  1.
        -12    1    3    3    0    0  0.20726999545E+02 -0.22849558891E+02 -0.26581462968E+02  0.40722045936E+02  0.00000000000E+00 0.  1.
</event>
<event>
 7    1  0.2090370E-015  0.9000771E+02  0.7816164E-02  0.1186339E+00
        -11   -1    0    0    0    0  0.00000000000E+00  0.00000000000E+00  0.45593999997E+02  0.45594000000E+02  0.51100000000E-03 0.  1.
         11   -1    0    0    0    0 -0.00000000000E+00 -0.00000000000E+00 -0.45593999997E+02  0.45594000000E+02  0.51100000000E-03 0. -1.
    9900012    2    1    2    0    0  0.82129545528E+00  0.41539039155E+00  0.73892702358E+00  0.90007708278E+02  0.89999969228E+02 0.  0.
         12    1    1    2    0    0 -0.82129545528E+00 -0.41539039155E+00 -0.73892702358E+00  0.11802917217E+01  0.00000000000E+00 0. -1.
         11    1    3    3    0    0  0.38638887261E+01 -0.16749476522E+01  0.86536335921E+01  0.96239524278E+01  0.51100000000E-03 0. -1.
        -11    1    3    3    0    0 -0.30372685361E+02  0.25983635982E+02  0.79720325939E+01  0.40757853952E+02  0.51100000000E-03 0.  1.
         12    1    3    3    0    0  0.27330092090E+02 -0.23893297938E+02 -0.15886739162E+02  0.39625901898E+02  0.00000000000E+00 0. -1.
</event>
<event>
 7    1  0.2090370E-015  0.9000774E+02  0.7816164E-02  0.1186339E+00
        -11   -1    0    0    0    0  0.00000000000E+00  0.00000000000E+00  0.45593999997E+02  0.45594000000E+02  0.51100000000E-03 0.  1.
         11   -1    0    0    0    0 -0.00000000000E+00 -0.00000000000E+00 -0.45593999997E+02  0.45594000000E+02  0.51100000000E-03 0. -1.
    9900012    2    1    2    0    0  0.19186612799E+00 -0.10021023748E+01 -0.59329100677E+00  0.90007739012E+02  0.90000000367E+02 0.  0.
         12    1    1    2    0    0 -0.19186612799E+00  0.10021023748E+01  0.59329100677E+00  0.11802609878E+01  0.00000000000E+00 0. -1.
         11    1    3    3    0    0 -0.29466273656E+02  0.68678594602E+00 -0.23068628782E+01  0.29564413993E+02  0.51100000000E-03 0. -1.
        -11    1    3    3    0    0  0.24648825903E+02 -0.14194855697E+02  0.22091246234E+02  0.36015020576E+02  0.51100000000E-03 0.  1.
         12    1    3    3    0    0  0.50093138810E+01  0.12505967376E+02 -0.20377674362E+02  0.24428304443E+02  0.00000000000E+00 0. -1.
</event>
<event>
 7    1  0.2090370E-015  0.9000776E+02  0.7816164E-02  0.1186339E+00
        -11   -1    0    0    0    0  0.00000000000E+00  0.00000000000E+00  0.45593999997E+02  0.45594000000E+02  0.51100000000E-03 0.  1.
         11   -1    0    0    0    0 -0.00000000000E+00 -0.00000000000E+00 -0.45593999997E+02  0.45594000000E+02  0.51100000000E-03 0. -1.
    9900012    2    1    2    0    0 -0.90177155685E+00  0.89694955056E-01  0.75613032971E+00  0.90007758414E+02  0.90000020025E+02 0.  0.
         12    1    1    2    0    0  0.90177155685E+00 -0.89694955056E-01 -0.75613032971E+00  0.11802415860E+01  0.00000000000E+00 0. -1.
         11    1    3    3    0    0  0.87144456382E+00  0.35538911617E+01  0.11243843743E+02  0.11824279276E+02  0.51100000000E-03 0. -1.
        -11    1    3    3    0    0  0.21617256020E+02 -0.61517241027E+01  0.26244566158E+02  0.34553244716E+02  0.51100000000E-03 0.  1.
         12    1    3    3    0    0 -0.23390472141E+02  0.26875278961E+01 -0.36732279572E+02  0.43630234422E+02  0.00000000000E+00 0. -1.
</event>
<event>
 7    1  0.2090370E-015  0.9000777E+02  0.7816164E-02  0.1186339E+00
        -11   -1    0    0    0    0  0.00000000000E+00  0.00000000000E+00  0.45593999997E+02  0.45594000000E+02  0.51100000000E-03 0.  1.
         11   -1    0    0    0    0 -0.00000000000E+00 -0.00000000000E+00 -0.45593999997E+02  0.45594000000E+02  0.51100000000E-03 0. -1.
    9900012    2    1    2    0    0  0.16758604200E+00  0.11587632153E+01 -0.14874402122E+00  0.90007770338E+02  0.90000032107E+02 0.  0.
         12    1    1    2    0    0 -0.16758604200E+00 -0.11587632153E+01  0.14874402122E+00  0.11802296618E+01  0.00000000000E+00 0. -1.
         11    1    3    3    0    0 -0.48644097573E+01 -0.88310676904E+00  0.84363289244E+01  0.97782414490E+01  0.51100000000E-03 0. -1.
        -11    1    3    3    0    0  0.56877964027E+01 -0.12580808477E+02  0.33199144604E+02  0.35955680671E+02  0.51100000000E-03 0.  1.
         12    1    3    3    0    0 -0.65580060339E+00  0.14622678461E+02 -0.41784217549E+02  0.44273848218E+02  0.00000000000E+00 0. -1.
</event>
<event>
 7    1  0.2090370E-015  0.9000785E+02  0.7816164E-02  0.1186339E+00
        -11   -1    0    0    0    0  0.00000000000E+00  0.00000000000E+00  0.45593999997E+02  0.45594000000E+02  0.51100000000E-03 0.  1.
         11   -1    0    0    0    0 -0.00000000000E+00 -0.00000000000E+00 -0.45593999997E+02  0.45594000000E+02  0.51100000000E-03 0. -1.
    9900012    2    1    2    0    0  0.36264631004E+00 -0.11151410068E+01  0.13308041742E+00  0.90007846532E+02  0.90000109306E+02 0.  0.
         12    1    1    2    0    0 -0.36264631004E+00  0.11151410068E+01 -0.13308041742E+00  0.11801534683E+01  0.00000000000E+00 0. -1.
         11    1    3    3    0    0 -0.18281161037E+02 -0.21505764009E+02 -0.26222849995E+02  0.38527089127E+02  0.51100000000E-03 0. -1.
        -11    1    3    3    0    0 -0.81277147371E+01 -0.12500378733E+01  0.16364415346E+00  0.82249085832E+01  0.51100000000E-03 0.  1.
        -12    1    3    3    0    0  0.26771522084E+02  0.21640660875E+02  0.26192286259E+02  0.43255848822E+02  0.00000000000E+00 0.  1.
</event>
<event>
 7    1  0.2090370E-015  0.9000764E+02  0.7816164E-02  0.1186339E+00
        -11   -1    0    0    0    0  0.00000000000E+00  0.00000000000E+00  0.45593999997E+02  0.45594000000E+02  0.51100000000E-03 0.  1.
         11   -1    0    0    0    0 -0.00000000000E+00 -0.00000000000E+00 -0.45593999997E+02  0.45594000000E+02  0.51100000000E-03 0. -1.
    9900012    2    1    2    0    0 -0.82692678949E+00  0.24814074372E+00  0.80490762897E+00  0.90007636482E+02  0.89999896483E+02 0.  0.
         12    1    1    2    0    0  0.82692678949E+00 -0.24814074372E+00 -0.80490762897E+00  0.11803635182E+01  0.00000000000E+00 0. -1.
         11    1    3    3    0    0  0.72266007993E+01 -0.54738112473E+01 -0.42829487443E+01  0.10026465922E+02  0.51100000000E-03 0. -1.
        -11    1    3    3    0    0  0.29455217507E+02  0.87609608740E+01 -0.18210628535E+02  0.35721019942E+02  0.51100000000E-03 0.  1.
         12    1    3    3    0    0 -0.37508745096E+02 -0.30390088830E+01  0.23298484908E+02  0.44260150617E+02  0.00000000000E+00 0. -1.
</event>
<event>
 7    1  0.2090370E-015  0.9000753E+02  0.7816164E-02  0.1186339E+00
        -11   -1    0    0    0    0  0.00000000000E+00  0.00000000000E+00  0.45593999997E+02  0.45594000000E+02  0.51100000000E-03 0. -1.
         11   -1    0    0    0    0 -0.00000000000E+00 -0.00000000000E+00 -0.45593999997E+02  0.45594000000E+02  0.51100000000E-03 0.  1.
    9900012    2    1    2    0    0 -0.10591555769E+01 -0.28297791870E+00 -0.43775242202E+00  0.90007527967E+02  0.89999786536E+02 0.  0.
         12    1    1    2    0    0  0.10591555769E+01  0.28297791870E+00  0.43775242202E+00  0.11804720333E+01  0.00000000000E+00 0. -1.
         11    1    3    3    0    0 -0.84285263317E+01 -0.34168791534E+01 -0.48896237886E+01  0.10325867534E+02  0.51100000000E-03 0. -1.
        -11    1    3    3    0    0 -0.32363208892E+02  0.17718082979E+02  0.57273873601E+01  0.37337792121E+02  0.51100000000E-03 0.  1.
         12    1    3    3    0    0  0.39732579647E+02 -0.14584181744E+02 -0.12755159936E+01  0.42343868312E+02  0.00000000000E+00 0. -1.
</event>
<event>
 7    1  0.2090370E-015  0.9000778E+02  0.7816164E-02  0.1186339E+00
        -11   -1    0    0    0    0  0.00000000000E+00  0.00000000000E+00  0.45593999997E+02  0.45594000000E+02  0.51100000000E-03 0.  1.
         11   -1    0    0    0    0 -0.00000000000E+00 -0.00000000000E+00 -0.45593999997E+02  0.45594000000E+02  0.51100000000E-03 0. -1.
    9900012    2    1    2    0    0 -0.86355133763E+00  0.52932851744E+00  0.60582088333E+00  0.90007776066E+02  0.90000037910E+02 0.  0.
         12    1    1    2    0    0  0.86355133763E+00 -0.52932851744E+00 -0.60582088333E+00  0.11802239342E+01  0.00000000000E+00 0. -1.
         11    1    3    3    0    0  0.59946616409E+01 -0.35193496293E+02  0.82611743003E+01  0.36643760050E+02  0.51100000000E-03 0. -1.
        -11    1    3    3    0    0  0.35314794287E+01 -0.50887981586E+01  0.64583283057E+01  0.89485875097E+01  0.51100000000E-03 0.  1.
        -12    1    3    3    0    0 -0.10389692407E+02  0.40811622969E+02 -0.14113681723E+02  0.44415428507E+02  0.00000000000E+00 0.  1.
</event>
<event>
 7    1  0.2090370E-015  0.9000788E+02  0.7816164E-02  0.1186339E+00
        -11   -1    0    0    0    0  0.00000000000E+00  0.00000000000E+00  0.45593999997E+02  0.45594000000E+02  0.51100000000E-03 0. -1.
         11   -1    0    0    0    0 -0.00000000000E+00 -0.00000000000E+00 -0.45593999997E+02  0.45594000000E+02  0.51100000000E-03 0.  1.
    9900012    2    1    2    0    0 -0.15800937196E+00  0.60493548656E+00 -0.10008832034E+01  0.90007880899E+02  0.90000144127E+02 0.  0.
         12    1    1    2    0    0  0.15800937196E+00 -0.60493548656E+00  0.10008832034E+01  0.11801191005E+01  0.00000000000E+00 0. -1.
         11    1    3    3    0    0  0.25903774408E+02 -0.15505623998E+02  0.14812707806E+02  0.33628056991E+02  0.51100000000E-03 0. -1.
        -11    1    3    3    0    0  0.11594560260E+02  0.84129902760E-01  0.19647326060E+01  0.11760147956E+02  0.51100000000E-03 0.  1.
        -12    1    3    3    0    0 -0.37656344040E+02  0.16026429582E+02 -0.17778323615E+02  0.44619675953E+02  0.00000000000E+00 0.  1.
</event>
<event>
 7    1  0.2090370E-015  0.9000771E+02  0.7816164E-02  0.1186339E+00
        -11   -1    0    0    0    0  0.00000000000E+00  0.00000000000E+00  0.45593999997E+02  0.45594000000E+02  0.51100000000E-03 0.  1.
         11   -1    0    0    0    0 -0.00000000000E+00 -0.00000000000E+00 -0.45593999997E+02  0.45594000000E+02  0.51100000000E-03 0. -1.
    9900012    2    1    2    0    0  0.34911548289E+00  0.78376846437E+00  0.81050060246E+00  0.90007709420E+02  0.89999970385E+02 0.  0.
         12    1    1    2    0    0 -0.34911548289E+00 -0.78376846437E+00 -0.81050060246E+00  0.11802905798E+01  0.00000000000E+00 0. -1.
         11    1    3    3    0    0  0.10252100878E+02  0.29511388771E+01  0.13334717227E+01  0.10751415729E+02  0.51100000000E-03 0. -1.
        -11    1    3    3    0    0  0.22121716316E+02 -0.15414286058E+02  0.24563043520E+02  0.36473465076E+02  0.51100000000E-03 0.  1.
         12    1    3    3    0    0 -0.32024701710E+02  0.13246915646E+02 -0.25086014640E+02  0.42782828615E+02  0.00000000000E+00 0. -1.
</event>
<event>
 7    1  0.2090370E-015  0.9000784E+02  0.7816164E-02  0.1186339E+00
        -11   -1    0    0    0    0  0.00000000000E+00  0.00000000000E+00  0.45593999997E+02  0.45594000000E+02  0.51100000000E-03 0. -1.
         11   -1    0    0    0    0 -0.00000000000E+00 -0.00000000000E+00 -0.45593999997E+02  0.45594000000E+02  0.51100000000E-03 0.  1.
    9900012    2    1    2    0    0 -0.69263210468E+00  0.46594867289E+00 -0.83422676763E+00  0.90007838275E+02  0.90000100940E+02 0.  0.
         12    1    1    2    0    0  0.69263210468E+00 -0.46594867289E+00  0.83422676763E+00  0.11801617254E+01  0.00000000000E+00 0. -1.
         11    1    3    3    0    0 -0.17566530495E+01 -0.15453561500E+01 -0.53369464749E+01  0.58272595192E+01  0.51100000000E-03 0. -1.
        -11    1    3    3    0    0 -0.14545528396E+02  0.33476136388E+02 -0.19746702187E+02  0.41498871687E+02  0.51100000000E-03 0.  1.
         12    1    3    3    0    0  0.15609549341E+02 -0.31464831565E+02  0.24249421894E+02  0.42681707068E+02  0.00000000000E+00 0. -1.
</event>
<event>
 7    1  0.2090370E-015  0.9000769E+02  0.7816164E-02  0.1186339E+00
        -11   -1    0    0    0    0  0.00000000000E+00  0.00000000000E+00  0.45593999997E+02  0.45594000000E+02  0.51100000000E-03 0. -1.
         11   -1    0    0    0    0 -0.00000000000E+00 -0.00000000000E+00 -0.45593999997E+02  0.45594000000E+02  0.51100000000E-03 0.  1.
    9900012    2    1    2    0    0  0.47477800862E+00 -0.10462428192E+01 -0.27035896628E+00  0.90007689801E+02  0.89999950507E+02 0.  0.
         12    1    1    2    0    0 -0.47477800862E+00  0.10462428192E+01  0.27035896628E+00  0.11803101986E+01  0.00000000000E+00 0. -1.
         11    1    3    3    0    0  0.13640092716E+01 -0.65323453955E+01 -0.66060661525E+01  0.93900036172E+01  0.51100000000E-03 0. -1.
        -11    1    3    3    0    0  0.18842239049E+02 -0.32292998417E+02  0.67589590325E+01  0.37994094892E+02  0.51100000000E-03 0.  1.
         12    1    3    3    0    0 -0.19731470312E+02  0.37779100994E+02 -0.42325184627E+00  0.42623591293E+02  0.00000000000E+00 0. -1.
</event>
<event>
 7    1  0.2090370E-015  0.9000750E+02  0.7816164E-02  0.1186340E+00
        -11   -1    0    0    0    0  0.00000000000E+00  0.00000000000E+00  0.45593999997E+02  0.45594000000E+02  0.51100000000E-03 0.  1.
         11   -1    0    0    0    0 -0.00000000000E+00 -0.00000000000E+00 -0.45593999997E+02  0.45594000000E+02  0.51100000000E-03 0. -1.
    9900012    2    1    2    0    0 -0.55910732124E+00  0.86895339202E+00  0.57088245359E+00  0.90007496815E+02  0.89999754973E+02 0.  0.
         12    1    1    2    0    0  0.55910732124E+00 -0.86895339202E+00 -0.57088245359E+00  0.11805031851E+01  0.00000000000E+00 0. -1.
         11    1    3    3    0    0  0.21538608847E+02 -0.28909626259E+01 -0.36751406757E+02  0.42695845639E+02  0.51100000000E-03 0. -1.
        -11    1    3    3    0    0 -0.47928949755E+01 -0.65220773628E+01  0.59840562153E+01  0.10065697414E+02  0.51100000000E-03 0.  1.
        -12    1    3    3    0    0 -0.17304821193E+02  0.10281993381E+02  0.31338232995E+02  0.37245953762E+02  0.00000000000E+00 0.  1.
</event>
<event>
 7    1  0.2090370E-015  0.9000775E+02  0.7816164E-02  0.1186339E+00
        -11   -1    0    0    0    0  0.00000000000E+00  0.00000000000E+00  0.45593999997E+02  0.45594000000E+02  0.51100000000E-03 0.  1.
         11   -1    0    0    0    0 -0.00000000000E+00 -0.00000000000E+00 -0.45593999997E+02  0.45594000000E+02  0.51100000000E-03 0. -1.
    9900012    2    1    2    0    0  0.65244328308E+00  0.30012612529E+00  0.93660088729E+00  0.90007754623E+02  0.90000016184E+02 0.  0.
         12    1    1    2    0    0 -0.65244328308E+00 -0.30012612529E+00 -0.93660088729E+00  0.11802453774E+01  0.00000000000E+00 0. -1.
         11    1    3    3    0    0 -0.27755892118E+02 -0.23857162222E+02  0.11318295214E+02  0.38310018839E+02  0.51100000000E-03 0. -1.
        -11    1    3    3    0    0 -0.19310720940E+01 -0.49965583621E+01 -0.79042957601E+01  0.95484305843E+01  0.51100000000E-03 0.  1.
        -12    1    3    3    0    0  0.30339407496E+02  0.29153846710E+02 -0.24773985666E+01  0.42149305200E+02  0.00000000000E+00 0.  1.
</event>
<event>
 7    1  0.2090370E-015  0.9000776E+02  0.7816164E-02  0.1186339E+00
        -11   -1    0    0    0    0  0.00000000000E+00  0.00000000000E+00  0.45593999997E+02  0.45594000000E+02  0.51100000000E-03 0. -1.
         11   -1    0    0    0    0 -0.00000000000E+00 -0.00000000000E+00 -0.45593999997E+02  0.45594000000E+02  0.51100000000E-03 0.  1.
    9900012    2    1    2    0    0 -0.94791538098E+00 -0.12697699007E-01 -0.70304569644E+00  0.90007755088E+02  0.90000016655E+02 0.  0.
         12    1    1    2    0    0  0.94791538098E+00  0.12697699007E-01  0.70304569644E+00  0.11802449120E+01  0.00000000000E+00 0. -1.
         11    1    3    3    0    0 -0.17768172851E+02 -0.15941901555E+02 -0.33697040849E+02  0.41295795838E+02  0.51100000000E-03 0. -1.
        -11    1    3    3    0    0  0.87439221718E+01 -0.53787669625E+01  0.23625370514E+01  0.10534177261E+02  0.51100000000E-03 0.  1.
        -12    1    3    3    0    0  0.80763352977E+01  0.21307970819E+02  0.30631458101E+02  0.38177781989E+02  0.00000000000E+00 0.  1.
</event>
<event>
 7    1  0.2090370E-015  0.9000771E+02  0.7816164E-02  0.1186339E+00
        -11   -1    0    0    0    0  0.00000000000E+00  0.00000000000E+00  0.45593999997E+02  0.45594000000E+02  0.51100000000E-03 0. -1.
         11   -1    0    0    0    0 -0.00000000000E+00 -0.00000000000E+00 -0.45593999997E+02  0.45594000000E+02  0.51100000000E-03 0.  1.
    9900012    2    1    2    0    0  0.50749785790E+00  0.79528438621E+00  0.70926220429E+00  0.90007710118E+02  0.89999971092E+02 0.  0.
         12    1    1    2    0    0 -0.50749785790E+00 -0.79528438621E+00 -0.70926220429E+00  0.11802898818E+01  0.00000000000E+00 0. -1.
         11    1    3    3    0    0  0.29277475098E+02  0.21426648860E+02  0.19264899545E+02  0.41078074251E+02  0.51100000000E-03 0. -1.
        -11    1    3    3    0    0  0.42805814090E+01 -0.84582209162E+01 -0.87538475012E+00  0.95200408081E+01  0.51100000000E-03 0.  1.
        -12    1    3    3    0    0 -0.33050558649E+02 -0.12173143557E+02 -0.17680252590E+02  0.39409595059E+02  0.00000000000E+00 0.  1.
</event>
<event>
 7    1  0.2090370E-015  0.9000776E+02  0.7816164E-02  0.1186339E+00
        -11   -1    0    0    0    0  0.00000000000E+00  0.00000000000E+00  0.45593999997E+02  0.45594000000E+02  0.51100000000E-03 0. -1.
         11   -1    0    0    0    0 -0.00000000000E+00 -0.00000000000E+00 -0.45593999997E+02  0.45594000000E+02  0.51100000000E-03 0.  1.
    9900012    2    1    2    0    0 -0.11245853808E+01  0.23905978415E+00 -0.26667825929E+00  0.90007763094E+02  0.90000024767E+02 0.  0.
         12    1    1    2    0    0  0.11245853808E+01 -0.23905978415E+00  0.26667825929E+00  0.11802369055E+01  0.00000000000E+00 0. -1.
         11    1    3    3    0    0 -0.62669186431E+00  0.61549168061E+01 -0.89979560734E+01  0.10919659214E+02  0.51100000000E-03 0. -1.
        -11    1    3    3    0    0 -0.22338252459E+02  0.23080864379E+01 -0.27800790497E+02  0.35738057285E+02  0.51100000000E-03 0.  1.
         12    1    3    3    0    0  0.21840358943E+02 -0.82239434598E+01  0.36532068311E+02  0.43350046596E+02  0.00000000000E+00 0. -1.
</event>
<event>
 7    1  0.2090370E-015  0.9000776E+02  0.7816164E-02  0.1186339E+00
        -11   -1    0    0    0    0  0.00000000000E+00  0.00000000000E+00  0.45593999997E+02  0.45594000000E+02  0.51100000000E-03 0. -1.
         11   -1    0    0    0    0 -0.00000000000E+00 -0.00000000000E+00 -0.45593999997E+02  0.45594000000E+02  0.51100000000E-03 0.  1.
    9900012    2    1    2    0    0 -0.98159221100E+00 -0.65065867363E+00  0.78000613483E-01  0.90007761010E+02  0.90000022655E+02 0.  0.
         12    1    1    2    0    0  0.98159221100E+00  0.65065867363E+00 -0.78000613483E-01  0.11802389902E+01  0.00000000000E+00 0. -1.
         11    1    3    3    0    0  0.93288338080E+01  0.15815630432E+02  0.81977703686E+00  0.18380243220E+02  0.51100000000E-03 0. -1.
        -11    1    3    3    0    0 -0.10759385534E+02  0.48568661269E+01 -0.31817579891E+02  0.33936881354E+02  0.51100000000E-03 0.  1.
         12    1    3    3    0    0  0.44895951533E+00 -0.21323155233E+02  0.31075803468E+02  0.37690636435E+02  0.00000000000E+00 0. -1.
</event>
<event>
 7    1  0.2095903E-015  0.9000774E+02  0.7816164E-02  0.1186339E+00
        -11   -1    0    0    0    0  0.00000000000E+00  0.00000000000E+00  0.45593999997E+02  0.45594000000E+02  0.51100000000E-03 0. -1.
         11   -1    0    0    0    0 -0.00000000000E+00 -0.00000000000E+00 -0.45593999997E+02  0.45594000000E+02  0.51100000000E-03 0.  1.
    9900012    2    1    2    0    0  0.82964788650E+00 -0.16888755689E+00 -0.82229491299E+00  0.90007742593E+02  0.90000003995E+02 0.  0.
         12    1    1    2    0    0 -0.82964788650E+00  0.16888755689E+00  0.82229491299E+00  0.11802574068E+01  0.00000000000E+00 0. -1.
         11    1    3    3    0    0 -0.13350563115E+02 -0.68474935458E+01  0.34600030643E+02  0.37713231420E+02  0.51100000000E-03 0. -1.
        -11    1    3    3    0    0 -0.83108544180E+01  0.37537458347E+00  0.16462147776E+01  0.84806385721E+01  0.51100000000E-03 0.  1.
        -12    1    3    3    0    0  0.22491065419E+02  0.63032314054E+01 -0.37068540334E+02  0.43813872601E+02  0.00000000000E+00 0.  1.
</event>
<event>
 7    1  0.2090370E-015  0.9000772E+02  0.7816164E-02  0.1186339E+00
        -11   -1    0    0    0    0  0.00000000000E+00  0.00000000000E+00  0.45593999997E+02  0.45594000000E+02  0.51100000000E-03 0. -1.
         11   -1    0    0    0    0 -0.00000000000E+00 -0.00000000000E+00 -0.45593999997E+02  0.45594000000E+02  0.51100000000E-03 0.  1.
    9900012    2    1    2    0    0 -0.69458230601E+00 -0.25192027120E+00 -0.92040655845E+00  0.90007721797E+02  0.89999982925E+02 0.  0.
         12    1    1    2    0    0  0.69458230601E+00  0.25192027120E+00  0.92040655845E+00  0.11802782027E+01  0.00000000000E+00 0. -1.
         11    1    3    3    0    0 -0.88447159476E+01  0.26853746571E+00 -0.43458315947E+01  0.98583652334E+01  0.51100000000E-03 0. -1.
        -11    1    3    3    0    0  0.51750387321E+00  0.22566940475E+02 -0.30787175701E+02  0.38175709562E+02  0.51100000000E-03 0.  1.
         12    1    3    3    0    0  0.76326297684E+01 -0.23087398212E+02  0.34212600738E+02  0.41973647002E+02  0.00000000000E+00 0. -1.
</event>
<event>
 7    1  0.2090370E-015  0.9000756E+02  0.7816164E-02  0.1186339E+00
        -11   -1    0    0    0    0  0.00000000000E+00  0.00000000000E+00  0.45593999997E+02  0.45594000000E+02  0.51100000000E-03 0.  1.
         11   -1    0    0    0    0 -0.00000000000E+00 -0.00000000000E+00 -0.45593999997E+02  0.45594000000E+02  0.51100000000E-03 0. -1.
    9900012    2    1    2    0    0  0.10300349515E+01  0.55298842994E+00  0.16328962185E+00  0.90007562918E+02  0.89999821948E+02 0.  0.
         12    1    1    2    0    0 -0.10300349515E+01 -0.55298842994E+00 -0.16328962185E+00  0.11804370824E+01  0.00000000000E+00 0. -1.
         11    1    3    3    0    0  0.17692107552E+00  0.47998028496E+01 -0.28484801410E+01  0.55841962570E+01  0.51100000000E-03 0. -1.
        -11    1    3    3    0    0 -0.29103468429E+02  0.24888153426E+02 -0.11827153593E+02  0.40078842522E+02  0.51100000000E-03 0.  1.
         12    1    3    3    0    0  0.29956582305E+02 -0.29134967845E+02  0.14838923356E+02  0.44344524139E+02  0.00000000000E+00 0. -1.
</event>
<event>
 7    1  0.2090370E-015  0.9000776E+02  0.7816164E-02  0.1186339E+00
        -11   -1    0    0    0    0  0.00000000000E+00  0.00000000000E+00  0.45593999997E+02  0.45594000000E+02  0.51100000000E-03 0.  1.
         11   -1    0    0    0    0 -0.00000000000E+00 -0.00000000000E+00 -0.45593999997E+02  0.45594000000E+02  0.51100000000E-03 0. -1.
    9900012    2    1    2    0    0 -0.15938341605E-01 -0.20842086552E+00  0.11615840293E+01  0.90007758184E+02  0.90000019792E+02 0.  0.
         12    1    1    2    0    0  0.15938341605E-01  0.20842086552E+00 -0.11615840293E+01  0.11802418163E+01  0.00000000000E+00 0. -1.
         11    1    3    3    0    0 -0.31882502062E+01 -0.84175142541E+01 -0.89735843435E+00  0.90457027376E+01  0.51100000000E-03 0. -1.
        -11    1    3    3    0    0 -0.36978036246E+02 -0.49321071732E+01  0.84084041743E+01  0.38241366435E+02  0.51100000000E-03 0.  1.
         12    1    3    3    0    0  0.40150348110E+02  0.13141200562E+02 -0.63494617107E+01  0.42720689011E+02  0.00000000000E+00 0. -1.
</event>
<event>
 7    1  0.2090370E-015  0.9000769E+02  0.7816164E-02  0.1186339E+00
        -11   -1    0    0    0    0  0.00000000000E+00  0.00000000000E+00  0.45593999997E+02  0.45594000000E+02  0.51100000000E-03 0.  1.
         11   -1    0    0    0    0 -0.00000000000E+00 -0.00000000000E+00 -0.45593999997E+02  0.45594000000E+02  0.51100000000E-03 0. -1.
    9900012    2    1    2    0    0  0.53648117186E+00 -0.87059847459E-01  0.10477327489E+01  0.90007688440E+02  0.89999949128E+02 0.  0.
         12    1    1    2    0    0 -0.53648117186E+00  0.87059847459E-01 -0.10477327489E+01  0.11803115597E+01  0.00000000000E+00 0. -1.
         11    1    3    3    0    0  0.22406392654E+00 -0.70097035393E+01  0.35089425120E+01  0.78421187293E+01  0.51100000000E-03 0. -1.
        -11    1    3    3    0    0 -0.10458369637E+02 -0.36166495638E+02 -0.27643592129E+01  0.37749630254E+02  0.51100000000E-03 0.  1.
         12    1    3    3    0    0  0.10770786883E+02  0.43089139330E+02  0.30314944986E+00  0.44415939457E+02  0.00000000000E+00 0. -1.
</event>
<event>
 7    1  0.2090370E-015  0.9000781E+02  0.7816164E-02  0.1186339E+00
        -11   -1    0    0    0    0  0.00000000000E+00  0.00000000000E+00  0.45593999997E+02  0.45594000000E+02  0.51100000000E-03 0.  1.
         11   -1    0    0    0    0 -0.00000000000E+00 -0.00000000000E+00 -0.45593999997E+02  0.45594000000E+02  0.51100000000E-03 0. -1.
    9900012    2    1    2    0    0 -0.23246814821E+00 -0.11426682097E+01 -0.18196039010E+00  0.90007812870E+02  0.90000075200E+02 0.  0.
         12    1    1    2    0    0  0.23246814821E+00  0.11426682097E+01  0.18196039010E+00  0.11801871296E+01  0.00000000000E+00 0. -1.
         11    1    3    3    0    0 -0.72732402029E+01 -0.26639501203E+02 -0.27202276361E+02  0.38762441704E+02  0.51100000000E-03 0. -1.
        -11    1    3    3    0    0 -0.72614275734E+01  0.26815328424E+01 -0.51465081970E+01  0.92954556463E+01  0.51100000000E-03 0.  1.
        -12    1    3    3    0    0  0.14302199628E+02  0.22815300150E+02  0.32166824167E+02  0.41949915521E+02  0.00000000000E+00 0.  1.
</event>
<event>
 7    1  0.2090370E-015  0.9000777E+02  0.7816164E-02  0.1186339E+00
        -11   -1    0    0    0    0  0.00000000000E+00  0.00000000000E+00  0.45593999997E+02  0.45594000000E+02  0.51100000000E-03 0.  1.
         11   -1    0    0    0    0 -0.00000000000E+00 -0.00000000000E+00 -0.45593999997E+02  0.45594000000E+02  0.51100000000E-03 0. -1.
    9900012    2    1    2    0    0  0.10299216515E+01 -0.53060322725E+00  0.22510380943E+00  0.90007766922E+02  0.90000028646E+02 0.  0.
         12    1    1    2    0    0 -0.10299216515E+01  0.53060322725E+00 -0.22510380943E+00  0.11802330778E+01  0.00000000000E+00 0. -1.
         11    1    3    3    0    0  0.35576297709E+02 -0.14941639227E+01  0.16745902519E+02  0.39348833984E+02  0.51100000000E-03 0. -1.
        -11    1    3    3    0    0  0.47422965888E+01  0.50047891240E+01 -0.74183340787E+01  0.10127634071E+02  0.51100000000E-03 0.  1.
        -12    1    3    3    0    0 -0.39288672646E+02 -0.40412284285E+01 -0.91024646305E+01  0.40531298867E+02  0.00000000000E+00 0.  1.
</event>
<event>
 7    1  0.2090370E-015  0.9000782E+02  0.7816164E-02  0.1186339E+00
        -11   -1    0    0    0    0  0.00000000000E+00  0.00000000000E+00  0.45593999997E+02  0.45594000000E+02  0.51100000000E-03 0.  1.
         11   -1    0    0    0    0 -0.00000000000E+00 -0.00000000000E+00 -0.45593999997E+02  0.45594000000E+02  0.51100000000E-03 0. -1.
    9900012    2    1    2    0    0  0.27387659097E+00 -0.11425750844E+01 -0.11103448072E+00  0.90007824222E+02  0.90000086702E+02 0.  0.
         12    1    1    2    0    0 -0.27387659097E+00  0.11425750844E+01  0.11103448072E+00  0.11801757778E+01  0.00000000000E+00 0. -1.
         11    1    3    3    0    0  0.96597182395E+01 -0.31080230299E+02 -0.28175550076E+02  0.43048257737E+02  0.51100000000E-03 0. -1.
        -11    1    3    3    0    0  0.49960738688E+01  0.14448097565E+01  0.14417751527E+01  0.53969385013E+01  0.51100000000E-03 0.  1.
        -12    1    3    3    0    0 -0.14381915517E+02  0.28492845458E+02  0.26622740442E+02  0.41562627983E+02  0.00000000000E+00 0.  1.
</event>
<event>
 7    1  0.2090370E-015  0.9000769E+02  0.7816164E-02  0.1186339E+00
        -11   -1    0    0    0    0  0.00000000000E+00  0.00000000000E+00  0.45593999997E+02  0.45594000000E+02  0.51100000000E-03 0.  1.
         11   -1    0    0    0    0 -0.00000000000E+00 -0.00000000000E+00 -0.45593999997E+02  0.45594000000E+02  0.51100000000E-03 0. -1.
    9900012    2    1    2    0    0 -0.69572416391E+00 -0.61480146195E+00  0.72877625894E+00  0.90007691657E+02  0.89999952386E+02 0.  0.
         12    1    1    2    0    0  0.69572416391E+00  0.61480146195E+00 -0.72877625894E+00  0.11803083434E+01  0.00000000000E+00 0. -1.
         11    1    3    3    0    0  0.61731653419E+01  0.22132866115E+01  0.77330852419E+01  0.10139389310E+02  0.51100000000E-03 0. -1.
        -11    1    3    3    0    0 -0.36087452373E+02  0.14084257716E+02  0.12713926608E+02  0.40771490827E+02  0.51100000000E-03 0.  1.
         12    1    3    3    0    0  0.29218562868E+02 -0.16912345789E+02 -0.19718235591E+02  0.39096811519E+02  0.00000000000E+00 0. -1.
</event>
<event>
 7    1  0.2090370E-015  0.9000778E+02  0.7816164E-02  0.1186339E+00
        -11   -1    0    0    0    0  0.00000000000E+00  0.00000000000E+00  0.45593999997E+02  0.45594000000E+02  0.51100000000E-03 0. -1.
         11   -1    0    0    0    0 -0.00000000000E+00 -0.00000000000E+00 -0.45593999997E+02  0.45594000000E+02  0.51100000000E-03 0.  1.
    9900012    2    1    2    0    0  0.84694524608E+00 -0.81465188621E+00 -0.10927142752E+00  0.90007782143E+02  0.90000044067E+02 0.  0.
         12    1    1    2    0    0 -0.84694524608E+00  0.81465188621E+00  0.10927142752E+00  0.11802178572E+01  0.00000000000E+00 0. -1.
         11    1    3    3    0    0 -0.68819262258E+01 -0.60956690689E+01 -0.39016999933E+01  0.99870592806E+01  0.51100000000E-03 0. -1.
        -11    1    3    3    0    0 -0.17527147795E+02 -0.21595175319E+02  0.25068405024E+02  0.37442989165E+02  0.51100000000E-03 0.  1.
         12    1    3    3    0    0  0.25256019267E+02  0.26876192502E+02 -0.21275976458E+02  0.42577733698E+02  0.00000000000E+00 0. -1.
</event>
<event>
 7    1  0.2090370E-015  0.9000776E+02  0.7816164E-02  0.1186339E+00
        -11   -1    0    0    0    0  0.00000000000E+00  0.00000000000E+00  0.45593999997E+02  0.45594000000E+02  0.51100000000E-03 0. -1.
         11   -1    0    0    0    0 -0.00000000000E+00 -0.00000000000E+00 -0.45593999997E+02  0.45594000000E+02  0.51100000000E-03 0.  1.
    9900012    2    1    2    0    0  0.62405582380E+00  0.95684964373E+00 -0.29656608141E+00  0.90007763434E+02  0.90000025111E+02 0.  0.
         12    1    1    2    0    0 -0.62405582380E+00 -0.95684964373E+00  0.29656608141E+00  0.11802365664E+01  0.00000000000E+00 0. -1.
         11    1    3    3    0    0  0.24555901888E+01  0.12233309258E+01  0.78128226880E+01  0.82804987980E+01  0.51100000000E-03 0. -1.
        -11    1    3    3    0    0 -0.14754125042E+02 -0.37194098646E+02  0.53144498921E+01  0.40364942187E+02  0.51100000000E-03 0.  1.
         12    1    3    3    0    0  0.12922590677E+02  0.36927617363E+02 -0.13423838662E+02  0.41362322449E+02  0.00000000000E+00 0. -1.
</event>
<event>
 7    1  0.2090370E-015  0.9000772E+02  0.7816164E-02  0.1186339E+00
        -11   -1    0    0    0    0  0.00000000000E+00  0.00000000000E+00  0.45593999997E+02  0.45594000000E+02  0.51100000000E-03 0.  1.
         11   -1    0    0    0    0 -0.00000000000E+00 -0.00000000000E+00 -0.45593999997E+02  0.45594000000E+02  0.51100000000E-03 0. -1.
    9900012    2    1    2    0    0 -0.10730078311E+01 -0.38374733170E+00  0.30735025294E+00  0.90007715289E+02  0.89999976331E+02 0.  0.
         12    1    1    2    0    0  0.10730078311E+01  0.38374733170E+00 -0.30735025294E+00  0.11802847106E+01  0.00000000000E+00 0. -1.
         11    1    3    3    0    0 -0.13621417435E+02  0.13439802559E+02 -0.23556975054E+02  0.30349668527E+02  0.51100000000E-03 0. -1.
        -11    1    3    3    0    0 -0.10138477213E+01  0.12288619380E+02 -0.92094950330E+01  0.15390024448E+02  0.51100000000E-03 0.  1.
        -12    1    3    3    0    0  0.13562257325E+02 -0.26112169271E+02  0.33073820340E+02  0.44268022315E+02  0.00000000000E+00 0.  1.
</event>
<event>
 7    1  0.2090370E-015  0.9000755E+02  0.7816164E-02  0.1186339E+00
        -11   -1    0    0    0    0  0.00000000000E+00  0.00000000000E+00  0.45593999997E+02  0.45594000000E+02  0.51100000000E-03 0. -1.
         11   -1    0    0    0    0 -0.00000000000E+00 -0.00000000000E+00 -0.45593999997E+02  0.45594000000E+02  0.51100000000E-03 0.  1.
    9900012    2    1    2    0    0 -0.91769391420E+00  0.14963327618E+00  0.72726460665E+00  0.90007548372E+02  0.89999807210E+02 0.  0.
         12    1    1    2    0    0  0.91769391420E+00 -0.14963327618E+00 -0.72726460665E+00  0.11804516278E+01  0.00000000000E+00 0. -1.
         11    1    3    3    0    0 -0.55394084387E+01 -0.34773905708E+02 -0.13519679470E+00  0.35212609141E+02  0.51100000000E-03 0. -1.
        -11    1    3    3    0    0  0.10950800781E+02 -0.65513658489E+01 -0.98824569419E+00  0.12799103955E+02  0.51100000000E-03 0.  1.
        -12    1    3    3    0    0 -0.63290862570E+01  0.41474904833E+02  0.18507070955E+01  0.41995835276E+02  0.00000000000E+00 0.  1.
</event>
<event>
 7    1  0.2090370E-015  0.9000763E+02  0.7816164E-02  0.1186339E+00
        -11   -1    0    0    0    0  0.00000000000E+00  0.00000000000E+00  0.45593999997E+02  0.45594000000E+02  0.51100000000E-03 0. -1.
         11   -1    0    0    0    0 -0.00000000000E+00 -0.00000000000E+00 -0.45593999997E+02  0.45594000000E+02  0.51100000000E-03 0.  1.
    9900012    2    1    2    0    0  0.69780036048E+00 -0.34332393089E+00 -0.88795763840E+00  0.90007633348E+02  0.89999893309E+02 0.  0.
         12    1    1    2    0    0 -0.69780036048E+00  0.34332393089E+00  0.88795763840E+00  0.11803666516E+01  0.00000000000E+00 0. -1.
         11    1    3    3    0    0  0.11474379682E+02 -0.24847145572E+01 -0.41262669488E+01  0.12444327009E+02  0.51100000000E-03 0. -1.
        -11    1    3    3    0    0 -0.14556896004E+02 -0.33359053125E+02 -0.12587068321E+02  0.38511867468E+02  0.51100000000E-03 0.  1.
         12    1    3    3    0    0  0.37803166827E+01  0.35500443751E+02  0.15825377632E+02  0.39051438872E+02  0.00000000000E+00 0. -1.
</event>
<event>
 7    1  0.2090370E-015  0.9000765E+02  0.7816164E-02  0.1186339E+00
        -11   -1    0    0    0    0  0.00000000000E+00  0.00000000000E+00  0.45593999997E+02  0.45594000000E+02  0.51100000000E-03 0.  1.
         11   -1    0    0    0    0 -0.00000000000E+00 -0.00000000000E+00 -0.45593999997E+02  0.45594000000E+02  0.51100000000E-03 0. -1.
    9900012    2    1    2    0    0  0.64864000794E+00 -0.56140135664E+00  0.81074884317E+00  0.90007653004E+02  0.89999913224E+02 0.  0.
         12    1    1    2    0    0 -0.64864000794E+00  0.56140135664E+00 -0.81074884317E+00  0.11803469955E+01  0.00000000000E+00 0. -1.
         11    1    3    3    0    0  0.30218842821E+02  0.22996687695E+02 -0.95890022223E+01  0.39165993799E+02  0.51100000000E-03 0. -1.
        -11    1    3    3    0    0 -0.40081070754E+01  0.11202729289E+01 -0.93188271290E+01  0.10205903835E+02  0.51100000000E-03 0.  1.
        -12    1    3    3    0    0 -0.25562095737E+02 -0.24678361981E+02  0.19718578194E+02  0.40635755371E+02  0.00000000000E+00 0.  1.
</event>
<event>
 7    1  0.2090370E-015  0.9000774E+02  0.7816164E-02  0.1186339E+00
        -11   -1    0    0    0    0  0.00000000000E+00  0.00000000000E+00  0.45593999997E+02  0.45594000000E+02  0.51100000000E-03 0. -1.
         11   -1    0    0    0    0 -0.00000000000E+00 -0.00000000000E+00 -0.45593999997E+02  0.45594000000E+02  0.51100000000E-03 0.  1.
    9900012    2    1    2    0    0 -0.42520954344E+00 -0.80067845733E+00  0.75573152137E+00  0.90007737622E+02  0.89999998959E+02 0.  0.
         12    1    1    2    0    0  0.42520954344E+00  0.80067845733E+00 -0.75573152137E+00  0.11802623777E+01  0.00000000000E+00 0. -1.
         11    1    3    3    0    0  0.18090669943E+02 -0.23762923386E+02  0.98771125050E+01  0.31456417764E+02  0.51100000000E-03 0. -1.
        -11    1    3    3    0    0  0.17058792958E+02  0.10847988383E+02 -0.21557764812E+01  0.20330485524E+02  0.51100000000E-03 0.  1.
        -12    1    3    3    0    0 -0.35574672444E+02  0.12114256546E+02 -0.69656045024E+01  0.38220834335E+02  0.00000000000E+00 0.  1.
</event>
<event>
 7    1  0.2108243E-015  0.9000772E+02  0.7816164E-02  0.1186339E+00
        -11   -1    0    0    0    0  0.00000000000E+00  0.00000000000E+00  0.45593999997E+02  0.45594000000E+02  0.51100000000E-03 0. -1.
         11   -1    0    0    0    0 -0.00000000000E+00 -0.00000000000E+00 -0.45593999997E+02  0.45594000000E+02  0.51100000000E-03 0.  1.
    9900012    2    1    2    0    0  0.11275389585E+01  0.30829094816E+00 -0.16331790653E+00  0.90007720308E+02  0.89999981417E+02 0.  0.
         12    1    1    2    0    0 -0.11275389585E+01 -0.30829094816E+00  0.16331790653E+00  0.11802796915E+01  0.00000000000E+00 0. -1.
         11    1    3    3    0    0  0.36397340251E+02  0.68372324281E+01 -0.27585747297E+01  0.37136556914E+02  0.51100000000E-03 0. -1.
        -11    1    3    3    0    0  0.69553602491E+01 -0.37931874441E+01 -0.56898764948E+01  0.97539736502E+01  0.51100000000E-03 0.  1.
        -12    1    3    3    0    0 -0.42225161542E+02 -0.27357540359E+01  0.82851333180E+01  0.43117189744E+02  0.00000000000E+00 0.  1.
</event>
<event>
 7    1  0.2090370E-015  0.9000776E+02  0.7816164E-02  0.1186339E+00
        -11   -1    0    0    0    0  0.00000000000E+00  0.00000000000E+00  0.45593999997E+02  0.45594000000E+02  0.51100000000E-03 0.  1.
         11   -1    0    0    0    0 -0.00000000000E+00 -0.00000000000E+00 -0.45593999997E+02  0.45594000000E+02  0.51100000000E-03 0. -1.
    9900012    2    1    2    0    0 -0.26185949064E-01 -0.11558686204E+01  0.23715072069E+00  0.90007763398E+02  0.90000025075E+02 0.  0.
         12    1    1    2    0    0  0.26185949064E-01  0.11558686204E+01 -0.23715072069E+00  0.11802366017E+01  0.00000000000E+00 0. -1.
         11    1    3    3    0    0  0.14310344603E+02  0.11558080196E+02 -0.33591710666E+02  0.38298540523E+02  0.51100000000E-03 0. -1.
        -11    1    3    3    0    0  0.38112768818E+01  0.86873218964E+01  0.28366074226E+01  0.99016026547E+01  0.51100000000E-03 0.  1.
        -12    1    3    3    0    0 -0.18147807433E+02 -0.21401270713E+02  0.30992253964E+02  0.41807620221E+02  0.00000000000E+00 0.  1.
</event>
<event>
 7    1  0.2090370E-015  0.9000769E+02  0.7816164E-02  0.1186339E+00
        -11   -1    0    0    0    0  0.00000000000E+00  0.00000000000E+00  0.45593999997E+02  0.45594000000E+02  0.51100000000E-03 0.  1.
         11   -1    0    0    0    0 -0.00000000000E+00 -0.00000000000E+00 -0.45593999997E+02  0.45594000000E+02  0.51100000000E-03 0. -1.
    9900012    2    1    2    0    0 -0.30512013134E+00  0.38848137549E+00  0.10719682647E+01  0.90007689857E+02  0.89999950563E+02 0.  0.
         12    1    1    2    0    0  0.30512013134E+00 -0.38848137549E+00 -0.10719682647E+01  0.11803101432E+01  0.00000000000E+00 0. -1.
         11    1    3    3    0    0  0.70775213167E+01 -0.10499820388E+02 -0.29975936232E+02  0.32540655946E+02  0.51100000000E-03 0. -1.
        -11    1    3    3    0    0 -0.47266325937E+01  0.65474970693E+00 -0.12118818446E+02  0.13024419897E+02  0.51100000000E-03 0.  1.
        -12    1    3    3    0    0 -0.26560088544E+01  0.10233552057E+02  0.43166722943E+02  0.44442614014E+02  0.00000000000E+00 0.  1.
</event>
<event>
 7    1  0.2090370E-015  0.9000774E+02  0.7816164E-02  0.1186339E+00
        -11   -1    0    0    0    0  0.00000000000E+00  0.00000000000E+00  0.45593999997E+02  0.45594000000E+02  0.51100000000E-03 0.  1.
         11   -1    0    0    0    0 -0.00000000000E+00 -0.00000000000E+00 -0.45593999997E+02  0.45594000000E+02  0.51100000000E-03 0. -1.
    9900012    2    1    2    0    0  0.91547323407E+00 -0.72804779860E+00 -0.15769301622E+00  0.90007740738E+02  0.90000002115E+02 0.  0.
         12    1    1    2    0    0 -0.91547323407E+00  0.72804779860E+00  0.15769301622E+00  0.11802592625E+01  0.00000000000E+00 0. -1.
         11    1    3    3    0    0  0.55949905307E+01 -0.30721904202E+01 -0.11840946979E+02  0.13451776784E+02  0.51100000000E-03 0. -1.
        -11    1    3    3    0    0  0.13733495402E+02 -0.32746403595E+02  0.10005584131E+02  0.36892378053E+02  0.51100000000E-03 0.  1.
         12    1    3    3    0    0 -0.18413012699E+02  0.35090546217E+02  0.16776698325E+01  0.39663585900E+02  0.00000000000E+00 0. -1.
</event>
<event>
 7    1  0.2090370E-015  0.9000779E+02  0.7816164E-02  0.1186339E+00
        -11   -1    0    0    0    0  0.00000000000E+00  0.00000000000E+00  0.45593999997E+02  0.45594000000E+02  0.51100000000E-03 0. -1.
         11   -1    0    0    0    0 -0.00000000000E+00 -0.00000000000E+00 -0.45593999997E+02  0.45594000000E+02  0.51100000000E-03 0.  1.
    9900012    2    1    2    0    0  0.56660099513E+00  0.10346554966E+01 -0.36695947506E-01  0.90007790156E+02  0.90000052186E+02 0.  0.
         12    1    1    2    0    0 -0.56660099513E+00 -0.10346554966E+01  0.36695947506E-01  0.11802098445E+01  0.00000000000E+00 0. -1.
         11    1    3    3    0    0  0.66126148033E+01  0.20953369944E+01 -0.67442762754E+01  0.96748320087E+01  0.51100000000E-03 0. -1.
        -11    1    3    3    0    0 -0.14273055159E+02  0.18138530096E+02 -0.30148679656E+02  0.37969320021E+02  0.51100000000E-03 0.  1.
         12    1    3    3    0    0  0.82270413508E+01 -0.19199211593E+02  0.36856259984E+02  0.42363638125E+02  0.00000000000E+00 0. -1.
</event>
<event>
 7    1  0.2090370E-015  0.9000762E+02  0.7816164E-02  0.1186339E+00
        -11   -1    0    0    0    0  0.00000000000E+00  0.00000000000E+00  0.45593999997E+02  0.45594000000E+02  0.51100000000E-03 0. -1.
         11   -1    0    0    0    0 -0.00000000000E+00 -0.00000000000E+00 -0.45593999997E+02  0.45594000000E+02  0.51100000000E-03 0.  1.
    9900012    2    1    2    0    0 -0.87349017958E+00 -0.65405182831E+00 -0.45004371126E+00  0.90007615220E+02  0.89999874940E+02 0.  0.
         12    1    1    2    0    0  0.87349017958E+00  0.65405182831E+00  0.45004371126E+00  0.11803847805E+01  0.00000000000E+00 0. -1.
         11    1    3    3    0    0 -0.33127417106E+01  0.90888119816E+01  0.51308998232E+01  0.10950200644E+02  0.51100000000E-03 0. -1.
        -11    1    3    3    0    0  0.72299546921E+01 -0.59666805462E+01 -0.41540032599E+02  0.42584596161E+02  0.51100000000E-03 0.  1.
         12    1    3    3    0    0 -0.47907031611E+01 -0.37761832637E+01  0.35959089064E+02  0.36472818415E+02  0.00000000000E+00 0. -1.
</event>
<event>
 7    1  0.2090370E-015  0.9000778E+02  0.7816164E-02  0.1186339E+00
        -11   -1    0    0    0    0  0.00000000000E+00  0.00000000000E+00  0.45593999997E+02  0.45594000000E+02  0.51100000000E-03 0. -1.
         11   -1    0    0    0    0 -0.00000000000E+00 -0.00000000000E+00 -0.45593999997E+02  0.45594000000E+02  0.51100000000E-03 0.  1.
    9900012    2    1    2    0    0 -0.65228038230E+00 -0.53640273435E+00 -0.82445614817E+00  0.90007777338E+02  0.90000039199E+02 0.  0.
         12    1    1    2    0    0  0.65228038230E+00  0.53640273435E+00  0.82445614817E+00  0.11802226615E+01  0.00000000000E+00 0. -1.
         11    1    3    3    0    0 -0.21345790149E+02  0.20655439894E+02  0.10916358376E+02  0.31645802798E+02  0.51100000000E-03 0. -1.
        -11    1    3    3    0    0 -0.41842843165E+01  0.13490121098E+02 -0.11318435503E+00  0.14124603125E+02  0.51100000000E-03 0.  1.
        -12    1    3    3    0    0  0.24877794083E+02 -0.34681963727E+02 -0.11627630169E+02  0.44237371415E+02  0.00000000000E+00 0.  1.
</event>
<event>
 7    1  0.2090370E-015  0.9000776E+02  0.7816164E-02  0.1186339E+00
        -11   -1    0    0    0    0  0.00000000000E+00  0.00000000000E+00  0.45593999997E+02  0.45594000000E+02  0.51100000000E-03 0.  1.
         11   -1    0    0    0    0 -0.00000000000E+00 -0.00000000000E+00 -0.45593999997E+02  0.45594000000E+02  0.51100000000E-03 0. -1.
    9900012    2    1    2    0    0 -0.78161306268E+00  0.85646911648E+00  0.22026593317E+00  0.90007756208E+02  0.90000017790E+02 0.  0.
         12    1    1    2    0    0  0.78161306268E+00 -0.85646911648E+00 -0.22026593317E+00  0.11802437920E+01  0.00000000000E+00 0. -1.
         11    1    3    3    0    0  0.20581333338E+01 -0.10433674040E+02  0.70901734684E+00  0.10658338175E+02  0.51100000000E-03 0. -1.
        -11    1    3    3    0    0 -0.95639494295E+01  0.18673830317E+02  0.35918608166E+02  0.41597205197E+02  0.51100000000E-03 0.  1.
         12    1    3    3    0    0  0.67242030330E+01 -0.73836871606E+01 -0.36407359579E+02  0.37752212836E+02  0.00000000000E+00 0. -1.
</event>
<event>
 7    1  0.2090370E-015  0.9000771E+02  0.7816164E-02  0.1186339E+00
        -11   -1    0    0    0    0  0.00000000000E+00  0.00000000000E+00  0.45593999997E+02  0.45594000000E+02  0.51100000000E-03 0.  1.
         11   -1    0    0    0    0 -0.00000000000E+00 -0.00000000000E+00 -0.45593999997E+02  0.45594000000E+02  0.51100000000E-03 0. -1.
    9900012    2    1    2    0    0  0.10802573420E+01 -0.45260506710E+00  0.14583410977E+00  0.90007714077E+02  0.89999975103E+02 0.  0.
         12    1    1    2    0    0 -0.10802573420E+01  0.45260506710E+00 -0.14583410977E+00  0.11802859227E+01  0.00000000000E+00 0. -1.
         11    1    3    3    0    0  0.27288914986E+02  0.88472529808E+01  0.34178668295E+02  0.44622193280E+02  0.51100000000E-03 0. -1.
        -11    1    3    3    0    0 -0.41972018080E+01 -0.50582826322E+01 -0.13371656242E+02  0.14899795875E+02  0.51100000000E-03 0.  1.
        -12    1    3    3    0    0 -0.22011455836E+02 -0.42415754157E+01 -0.20661177943E+02  0.30485724922E+02  0.00000000000E+00 0.  1.
</event>
<event>
 7    1  0.2090370E-015  0.9000771E+02  0.7816164E-02  0.1186339E+00
        -11   -1    0    0    0    0  0.00000000000E+00  0.00000000000E+00  0.45593999997E+02  0.45594000000E+02  0.51100000000E-03 0. -1.
         11   -1    0    0    0    0 -0.00000000000E+00 -0.00000000000E+00 -0.45593999997E+02  0.45594000000E+02  0.51100000000E-03 0.  1.
    9900012    2    1    2    0    0  0.43033329549E+00 -0.73234686556E-01 -0.10966013368E+01  0.90007709969E+02  0.89999970941E+02 0.  0.
         12    1    1    2    0    0 -0.43033329549E+00  0.73234686556E-01  0.10966013368E+01  0.11802900306E+01  0.00000000000E+00 0. -1.
         11    1    3    3    0    0  0.54580445438E+01 -0.88746806063E+01  0.43412340094E+01  0.11287006649E+02  0.51100000000E-03 0. -1.
        -11    1    3    3    0    0 -0.18047970169E+02 -0.31280392003E+02 -0.57951197163E+01  0.36575614333E+02  0.51100000000E-03 0.  1.
         12    1    3    3    0    0  0.13020258920E+02  0.40081837923E+02  0.35728437009E+00  0.42145088987E+02  0.00000000000E+00 0. -1.
</event>
<event>
 7    1  0.2430124E-015  0.9000770E+02  0.7816164E-02  0.1186339E+00
        -11   -1    0    0    0    0  0.00000000000E+00  0.00000000000E+00  0.45593999997E+02  0.45594000000E+02  0.51100000000E-03 0. -1.
         11   -1    0    0    0    0 -0.00000000000E+00 -0.00000000000E+00 -0.45593999997E+02  0.45594000000E+02  0.51100000000E-03 0.  1.
    9900012    2    1    2    0    0  0.58704345337E+00  0.16099632885E+00 -0.10112224797E+01  0.90007698878E+02  0.89999959704E+02 0.  0.
         12    1    1    2    0    0 -0.58704345337E+00 -0.16099632885E+00  0.10112224797E+01  0.11803011215E+01  0.00000000000E+00 0. -1.
         11    1    3    3    0    0 -0.35146808364E+02  0.40020512847E+01 -0.11446422396E+02  0.37179767866E+02  0.51100000000E-03 0. -1.
        -11    1    3    3    0    0 -0.26337107199E+01 -0.39320164761E+01 -0.87372699735E+01  0.99366529865E+01  0.51100000000E-03 0.  1.
        -12    1    3    3    0    0  0.38367562537E+02  0.90961520230E-01  0.19172469890E+02  0.42891278026E+02  0.00000000000E+00 0.  1.
</event>
<event>
 7    1  0.2090370E-015  0.9000766E+02  0.7816164E-02  0.1186339E+00
        -11   -1    0    0    0    0  0.00000000000E+00  0.00000000000E+00  0.45593999997E+02  0.45594000000E+02  0.51100000000E-03 0. -1.
         11   -1    0    0    0    0 -0.00000000000E+00 -0.00000000000E+00 -0.45593999997E+02  0.45594000000E+02  0.51100000000E-03 0.  1.
    9900012    2    1    2    0    0 -0.20850219129E+00  0.96542793280E+00 -0.64628242580E+00  0.90007658850E+02  0.89999919146E+02 0.  0.
         12    1    1    2    0    0  0.20850219129E+00 -0.96542793280E+00  0.64628242580E+00  0.11803411503E+01  0.00000000000E+00 0. -1.
         11    1    3    3    0    0 -0.14628086233E+01  0.16353393088E+02  0.27936344168E+02  0.32403897918E+02  0.51100000000E-03 0. -1.
        -11    1    3    3    0    0  0.84849741066E+01 -0.30767491137E+01  0.11751311353E+02  0.14817371206E+02  0.51100000000E-03 0.  1.
        -12    1    3    3    0    0 -0.72306676745E+01 -0.12311216041E+02 -0.40333937947E+02  0.42786389725E+02  0.00000000000E+00 0.  1.
</event>
<event>
 7    1  0.2090370E-015  0.9000764E+02  0.7816164E-02  0.1186339E+00
        -11   -1    0    0    0    0  0.00000000000E+00  0.00000000000E+00  0.45593999997E+02  0.45594000000E+02  0.51100000000E-03 0.  1.
         11   -1    0    0    0    0 -0.00000000000E+00 -0.00000000000E+00 -0.45593999997E+02  0.45594000000E+02  0.51100000000E-03 0. -1.
    9900012    2    1    2    0    0 -0.27639646224E-01 -0.83953289091E+00  0.82925511404E+00  0.90007642652E+02  0.89999902735E+02 0.  0.
         12    1    1    2    0    0  0.27639646224E-01  0.83953289091E+00 -0.82925511404E+00  0.11803573481E+01  0.00000000000E+00 0. -1.
         11    1    3    3    0    0 -0.76960940435E+01 -0.66524061201E+01  0.31445746551E+01  0.10647662689E+02  0.51100000000E-03 0. -1.
        -11    1    3    3    0    0  0.30610769959E+02 -0.16202108499E+02  0.20480331370E+02  0.40236445303E+02  0.51100000000E-03 0.  1.
         12    1    3    3    0    0 -0.22942315562E+02  0.22014981729E+02 -0.22795650912E+02  0.39123534660E+02  0.00000000000E+00 0. -1.
</event>
<event>
 7    1  0.2090370E-015  0.9000776E+02  0.7816164E-02  0.1186339E+00
        -11   -1    0    0    0    0  0.00000000000E+00  0.00000000000E+00  0.45593999997E+02  0.45594000000E+02  0.51100000000E-03 0.  1.
         11   -1    0    0    0    0 -0.00000000000E+00 -0.00000000000E+00 -0.45593999997E+02  0.45594000000E+02  0.51100000000E-03 0. -1.
    9900012    2    1    2    0    0 -0.36836102014E+00  0.68515742766E+00  0.88760551473E+00  0.90007756766E+02  0.90000018355E+02 0.  0.
         12    1    1    2    0    0  0.36836102014E+00 -0.68515742766E+00 -0.88760551473E+00  0.11802432341E+01  0.00000000000E+00 0. -1.
         11    1    3    3    0    0  0.24354057323E+02 -0.14200564219E+02 -0.17408875650E+02  0.33133745395E+02  0.51100000000E-03 0. -1.
        -11    1    3    3    0    0  0.86466666774E+00 -0.12385237483E+02  0.14796657187E+02  0.19315351929E+02  0.51100000000E-03 0.  1.
        -12    1    3    3    0    0 -0.25587085011E+02  0.27270959130E+02  0.34998239783E+01  0.37558659442E+02  0.00000000000E+00 0.  1.
</event>
<event>
 7    1  0.2090370E-015  0.9000773E+02  0.7816164E-02  0.1186339E+00
        -11   -1    0    0    0    0  0.00000000000E+00  0.00000000000E+00  0.45593999997E+02  0.45594000000E+02  0.51100000000E-03 0.  1.
         11   -1    0    0    0    0 -0.00000000000E+00 -0.00000000000E+00 -0.45593999997E+02  0.45594000000E+02  0.51100000000E-03 0. -1.
    9900012    2    1    2    0    0 -0.10199218445E+01 -0.56719513478E+00  0.17632254543E+00  0.90007728620E+02  0.89999989838E+02 0.  0.
         12    1    1    2    0    0  0.10199218445E+01  0.56719513478E+00 -0.17632254543E+00  0.11802713797E+01  0.00000000000E+00 0. -1.
         11    1    3    3    0    0  0.42233344632E+01  0.10423732550E+02 -0.35594932710E+02  0.37329478823E+02  0.51100000000E-03 0. -1.
        -11    1    3    3    0    0  0.14092581831E+01  0.92703772369E+01 -0.17322914576E+01  0.95355512004E+01  0.51100000000E-03 0.  1.
        -12    1    3    3    0    0 -0.66525144908E+01 -0.20261304921E+02  0.37503546714E+02  0.43142698597E+02  0.00000000000E+00 0.  1.
</event>
<event>
 7    1  0.2090370E-015  0.9000785E+02  0.7816164E-02  0.1186339E+00
        -11   -1    0    0    0    0  0.00000000000E+00  0.00000000000E+00  0.45593999997E+02  0.45594000000E+02  0.51100000000E-03 0.  1.
         11   -1    0    0    0    0 -0.00000000000E+00 -0.00000000000E+00 -0.45593999997E+02  0.45594000000E+02  0.51100000000E-03 0. -1.
    9900012    2    1    2    0    0  0.10191066656E+00  0.31655457384E+00  0.11323285243E+01  0.90007847269E+02  0.90000110053E+02 0.  0.
         12    1    1    2    0    0 -0.10191066656E+00 -0.31655457384E+00 -0.11323285243E+01  0.11801527313E+01  0.00000000000E+00 0. -1.
         11    1    3    3    0    0 -0.64930601657E+01 -0.71626551690E+00 -0.59094990233E+01  0.88088050026E+01  0.51100000000E-03 0. -1.
        -11    1    3    3    0    0 -0.13254534586E+02 -0.35499479823E+02 -0.42112472503E+01  0.38126504672E+02  0.51100000000E-03 0.  1.
         12    1    3    3    0    0  0.19849505419E+02  0.36532299914E+02  0.11253074798E+02  0.43072537594E+02  0.00000000000E+00 0. -1.
</event>
<event>
 7    1  0.2090370E-015  0.9000773E+02  0.7816164E-02  0.1186339E+00
        -11   -1    0    0    0    0  0.00000000000E+00  0.00000000000E+00  0.45593999997E+02  0.45594000000E+02  0.51100000000E-03 0. -1.
         11   -1    0    0    0    0 -0.00000000000E+00 -0.00000000000E+00 -0.45593999997E+02  0.45594000000E+02  0.51100000000E-03 0.  1.
    9900012    2    1    2    0    0 -0.51648699721E+00 -0.97270747271E+00 -0.42439807333E+00  0.90007732077E+02  0.89999993340E+02 0.  0.
         12    1    1    2    0    0  0.51648699721E+00  0.97270747271E+00  0.42439807333E+00  0.11802679231E+01  0.00000000000E+00 0. -1.
         11    1    3    3    0    0  0.58720046272E+01  0.73621807788E+01  0.10333209537E+01  0.94736422043E+01  0.51100000000E-03 0. -1.
        -11    1    3    3    0    0  0.33946255795E+02  0.11034266226E+02 -0.24520034505E+01  0.35778703649E+02  0.51100000000E-03 0.  1.
         12    1    3    3    0    0 -0.40334747419E+02 -0.19369154477E+02  0.99428442349E+00  0.44755386224E+02  0.00000000000E+00 0. -1.
</event>
<event>
 7    1  0.2090370E-015  0.9000777E+02  0.7816164E-02  0.1186339E+00
        -11   -1    0    0    0    0  0.00000000000E+00  0.00000000000E+00  0.45593999997E+02  0.45594000000E+02  0.51100000000E-03 0.  1.
         11   -1    0    0    0    0 -0.00000000000E+00 -0.00000000000E+00 -0.45593999997E+02  0.45594000000E+02  0.51100000000E-03 0. -1.
    9900012    2    1    2    0    0  0.57977633722E+00  0.84997456270E+00  0.57822201878E+00  0.90007772030E+02  0.90000033821E+02 0.  0.
         12    1    1    2    0    0 -0.57977633722E+00 -0.84997456270E+00 -0.57822201878E+00  0.11802279701E+01  0.00000000000E+00 0. -1.
         11    1    3    3    0    0  0.35013349666E+02  0.76465145375E+01  0.16209857271E+02  0.39333996904E+02  0.51100000000E-03 0. -1.
        -11    1    3    3    0    0 -0.15011895195E+01 -0.38901334770E+01  0.86847297935E+01  0.96338590549E+01  0.51100000000E-03 0.  1.
        -12    1    3    3    0    0 -0.32932383809E+02 -0.29064064978E+01 -0.24316365046E+02  0.41039916071E+02  0.00000000000E+00 0.  1.
</event>
<event>
 7    1  0.2090370E-015  0.9000763E+02  0.7816164E-02  0.1186339E+00
        -11   -1    0    0    0    0  0.00000000000E+00  0.00000000000E+00  0.45593999997E+02  0.45594000000E+02  0.51100000000E-03 0. -1.
         11   -1    0    0    0    0 -0.00000000000E+00 -0.00000000000E+00 -0.45593999997E+02  0.45594000000E+02  0.51100000000E-03 0.  1.
    9900012    2    1    2    0    0 -0.11233269764E+01  0.97515135536E-01  0.34913701936E+00  0.90007631686E+02  0.89999891625E+02 0.  0.
         12    1    1    2    0    0  0.11233269764E+01 -0.97515135536E-01 -0.34913701936E+00  0.11803683136E+01  0.00000000000E+00 0. -1.
         11    1    3    3    0    0 -0.61793700832E+01  0.80955384612E+01 -0.69527201629E+00  0.10208122307E+02  0.51100000000E-03 0. -1.
        -11    1    3    3    0    0  0.29259801196E+02  0.20774874174E+02 -0.15033730052E+02  0.38906868321E+02  0.51100000000E-03 0.  1.
         12    1    3    3    0    0 -0.24203758089E+02 -0.28772897500E+02  0.16078139088E+02  0.40892641058E+02  0.00000000000E+00 0. -1.
</event>
<event>
 7    1  0.2090370E-015  0.9000748E+02  0.7816164E-02  0.1186340E+00
        -11   -1    0    0    0    0  0.00000000000E+00  0.00000000000E+00  0.45593999997E+02  0.45594000000E+02  0.51100000000E-03 0. -1.
         11   -1    0    0    0    0 -0.00000000000E+00 -0.00000000000E+00 -0.45593999997E+02  0.45594000000E+02  0.51100000000E-03 0.  1.
    9900012    2    1    2    0    0 -0.57252284658E+00  0.91191108716E+00  0.48400439658E+00  0.90007481260E+02  0.89999739212E+02 0.  0.
         12    1    1    2    0    0  0.57252284658E+00 -0.91191108716E+00 -0.48400439658E+00  0.11805187405E+01  0.00000000000E+00 0. -1.
         11    1    3    3    0    0  0.59479181890E+01  0.53561271405E+01  0.11384969510E+01  0.80846771301E+01  0.51100000000E-03 0. -1.
        -11    1    3    3    0    0  0.12097816908E+02 -0.35989830643E+02 -0.17256179319E+02  0.41706124354E+02  0.51100000000E-03 0.  1.
         12    1    3    3    0    0 -0.18618257944E+02  0.31545614590E+02  0.16601686765E+02  0.40216679775E+02  0.00000000000E+00 0. -1.
</event>
<event>
 7    1  0.2090370E-015  0.9000771E+02  0.7816164E-02  0.1186339E+00
        -11   -1    0    0    0    0  0.00000000000E+00  0.00000000000E+00  0.45593999997E+02  0.45594000000E+02  0.51100000000E-03 0.  1.
         11   -1    0    0    0    0 -0.00000000000E+00 -0.00000000000E+00 -0.45593999997E+02  0.45594000000E+02  0.51100000000E-03 0. -1.
    9900012    2    1    2    0    0 -0.10850288236E+00  0.55328712849E+00  0.10369148335E+01  0.90007706861E+02  0.89999967792E+02 0.  0.
         12    1    1    2    0    0  0.10850288236E+00 -0.55328712849E+00 -0.10369148335E+01  0.11802931390E+01  0.00000000000E+00 0. -1.
         11    1    3    3    0    0  0.66938084353E+01 -0.45231979420E+01  0.21277746743E+01  0.83542693466E+01  0.51100000000E-03 0. -1.
        -11    1    3    3    0    0  0.26098887025E+01 -0.33367420200E+02  0.17676072736E+02  0.37850228500E+02  0.51100000000E-03 0.  1.
         12    1    3    3    0    0 -0.94122000201E+01  0.38443905270E+02 -0.18766932577E+02  0.43803209015E+02  0.00000000000E+00 0. -1.
</event>
<event>
 7    1  0.2090370E-015  0.9000773E+02  0.7816164E-02  0.1186339E+00
        -11   -1    0    0    0    0  0.00000000000E+00  0.00000000000E+00  0.45593999997E+02  0.45594000000E+02  0.51100000000E-03 0. -1.
         11   -1    0    0    0    0 -0.00000000000E+00 -0.00000000000E+00 -0.45593999997E+02  0.45594000000E+02  0.51100000000E-03 0.  1.
    9900012    2    1    2    0    0  0.79272000879E+00  0.85476088198E+00 -0.18444737604E+00  0.90007727992E+02  0.89999989202E+02 0.  0.
         12    1    1    2    0    0 -0.79272000879E+00 -0.85476088198E+00  0.18444737604E+00  0.11802720077E+01  0.00000000000E+00 0. -1.
         11    1    3    3    0    0  0.45469731375E+01 -0.12411645682E+02  0.40314912389E+02  0.42426596310E+02  0.51100000000E-03 0. -1.
        -11    1    3    3    0    0  0.74042437051E+01  0.28774603284E+01 -0.63045956491E+01  0.10141525001E+02  0.51100000000E-03 0.  1.
        -12    1    3    3    0    0 -0.11158496834E+02  0.10388946235E+02 -0.34194764116E+02  0.37439606681E+02  0.00000000000E+00 0.  1.
</event>
<event>
 7    1  0.2090370E-015  0.9000775E+02  0.7816164E-02  0.1186339E+00
        -11   -1    0    0    0    0  0.00000000000E+00  0.00000000000E+00  0.45593999997E+02  0.45594000000E+02  0.51100000000E-03 0.  1.
         11   -1    0    0    0    0 -0.00000000000E+00 -0.00000000000E+00 -0.45593999997E+02  0.45594000000E+02  0.51100000000E-03 0. -1.
    9900012    2    1    2    0    0 -0.79065873727E+00 -0.47925819171E+00  0.73359331431E+00  0.90007750533E+02  0.90000012040E+02 0.  0.
         12    1    1    2    0    0  0.79065873727E+00  0.47925819171E+00 -0.73359331431E+00  0.11802494668E+01  0.00000000000E+00 0. -1.
         11    1    3    3    0    0  0.95170265656E+01  0.83324980826E+00 -0.10611302862E+01  0.96121848525E+01  0.51100000000E-03 0. -1.
        -11    1    3    3    0    0  0.19999437682E+02 -0.35477945913E+01  0.31771428105E+02  0.37709256134E+02  0.51100000000E-03 0.  1.
         12    1    3    3    0    0 -0.30307122985E+02  0.22352865913E+01 -0.29976704504E+02  0.42686309547E+02  0.00000000000E+00 0. -1.
</event>
<event>
 7    1  0.2090370E-015  0.9000769E+02  0.7816164E-02  0.1186339E+00
        -11   -1    0    0    0    0  0.00000000000E+00  0.00000000000E+00  0.45593999997E+02  0.45594000000E+02  0.51100000000E-03 0.  1.
         11   -1    0    0    0    0 -0.00000000000E+00 -0.00000000000E+00 -0.45593999997E+02  0.45594000000E+02  0.51100000000E-03 0. -1.
    9900012    2    1    2    0    0 -0.67688704798E+00 -0.58786660596E+00  0.76770364609E+00  0.90007689825E+02  0.89999950530E+02 0.  0.
         12    1    1    2    0    0  0.67688704798E+00  0.58786660596E+00 -0.76770364609E+00  0.11803101755E+01  0.00000000000E+00 0. -1.
         11    1    3    3    0    0 -0.39596115213E+02 -0.80131006343E+01 -0.74178388402E+00  0.40405598193E+02  0.51100000000E-03 0. -1.
        -11    1    3    3    0    0  0.54676017609E+00  0.60162013669E+01  0.86448514136E+01  0.10546425072E+02  0.51100000000E-03 0.  1.
        -12    1    3    3    0    0  0.38372467989E+02  0.14090326615E+01 -0.71353638835E+01  0.39055666559E+02  0.00000000000E+00 0.  1.
</event>
<event>
 7    1  0.2090370E-015  0.9000767E+02  0.7816164E-02  0.1186339E+00
        -11   -1    0    0    0    0  0.00000000000E+00  0.00000000000E+00  0.45593999997E+02  0.45594000000E+02  0.51100000000E-03 0. -1.
         11   -1    0    0    0    0 -0.00000000000E+00 -0.00000000000E+00 -0.45593999997E+02  0.45594000000E+02  0.51100000000E-03 0.  1.
    9900012    2    1    2    0    0  0.35684590939E+00  0.69653948176E+00 -0.88356194718E+00  0.90007666163E+02  0.89999926556E+02 0.  0.
         12    1    1    2    0    0 -0.35684590939E+00 -0.69653948176E+00  0.88356194718E+00  0.11803338372E+01  0.00000000000E+00 0. -1.
         11    1    3    3    0    0 -0.57632149307E+01  0.68553364929E+01  0.96040681360E+00  0.90073673333E+01  0.51100000000E-03 0. -1.
        -11    1    3    3    0    0 -0.28446273676E+02  0.18785948275E+01 -0.25582871810E+02  0.38304085094E+02  0.51100000000E-03 0.  1.
         12    1    3    3    0    0  0.34566334516E+02 -0.80373918386E+01  0.23738903049E+02  0.42696213736E+02  0.00000000000E+00 0. -1.
</event>
<event>
 7    1  0.2248673E-015  0.9000776E+02  0.7816164E-02  0.1186339E+00
        -11   -1    0    0    0    0  0.00000000000E+00  0.00000000000E+00  0.45593999997E+02  0.45594000000E+02  0.51100000000E-03 0.  1.
         11   -1    0    0    0    0 -0.00000000000E+00 -0.00000000000E+00 -0.45593999997E+02  0.45594000000E+02  0.51100000000E-03 0. -1.
    9900012    2    1    2    0    0  0.48607136565E+00 -0.75605071219E+00  0.76490989921E+00  0.90007760530E+02  0.90000022169E+02 0.  0.
         12    1    1    2    0    0 -0.48607136565E+00  0.75605071219E+00 -0.76490989921E+00  0.11802394697E+01  0.00000000000E+00 0. -1.
         11    1    3    3    0    0  0.27159939400E+02  0.19728712499E+01 -0.32161142957E+02  0.42141353155E+02  0.51100000000E-03 0. -1.
        -11    1    3    3    0    0  0.20508442246E+00  0.62504234183E+01  0.77576953649E+01  0.99645215723E+01  0.51100000000E-03 0.  1.
        -12    1    3    3    0    0 -0.26878952457E+02 -0.89793453804E+01  0.25168357491E+02  0.37901885803E+02  0.00000000000E+00 0.  1.
</event>
<event>
 7    1  0.2090370E-015  0.9000775E+02  0.7816164E-02  0.1186339E+00
        -11   -1    0    0    0    0  0.00000000000E+00  0.00000000000E+00  0.45593999997E+02  0.45594000000E+02  0.51100000000E-03 0.  1.
         11   -1    0    0    0    0 -0.00000000000E+00 -0.00000000000E+00 -0.45593999997E+02  0.45594000000E+02  0.51100000000E-03 0. -1.
    9900012    2    1    2    0    0  0.54040133408E+00  0.13802875860E+00  0.10401411432E+01  0.90007754628E+02  0.90000016189E+02 0.  0.
         12    1    1    2    0    0 -0.54040133408E+00 -0.13802875860E+00 -0.10401411432E+01  0.11802453718E+01  0.00000000000E+00 0. -1.
         11    1    3    3    0    0 -0.23039068182E+02 -0.30050205863E+02  0.64086497443E+00  0.37871153181E+02  0.51100000000E-03 0. -1.
        -11    1    3    3    0    0 -0.79319585208E+01  0.18558342467E+01  0.49261906693E+01  0.95198446152E+01  0.51100000000E-03 0.  1.
        -12    1    3    3    0    0  0.31511428037E+02  0.28332400375E+02 -0.45269145005E+01  0.42616756832E+02  0.00000000000E+00 0.  1.
</event>
<event>
 7    1  0.2090370E-015  0.9000781E+02  0.7816164E-02  0.1186339E+00
        -11   -1    0    0    0    0  0.00000000000E+00  0.00000000000E+00  0.45593999997E+02  0.45594000000E+02  0.51100000000E-03 0. -1.
         11   -1    0    0    0    0 -0.00000000000E+00 -0.00000000000E+00 -0.45593999997E+02  0.45594000000E+02  0.51100000000E-03 0.  1.
    9900012    2    1    2    0    0  0.94283608707E+00 -0.70050445069E+00  0.11487976400E+00  0.90007811993E+02  0.90000074311E+02 0.  0.
         12    1    1    2    0    0 -0.94283608707E+00  0.70050445069E+00 -0.11487976400E+00  0.11801880073E+01  0.00000000000E+00 0. -1.
         11    1    3    3    0    0  0.71696056562E+01  0.33739274393E+00  0.77691818086E+01  0.10577204988E+02  0.51100000000E-03 0. -1.
        -11    1    3    3    0    0 -0.40421555222E+02  0.38274062607E+01  0.82071078741E+01  0.41423517295E+02  0.51100000000E-03 0.  1.
         12    1    3    3    0    0  0.34194785652E+02 -0.48653034553E+01 -0.15861409919E+02  0.38007089709E+02  0.00000000000E+00 0. -1.
</event>
<event>
 7    1  0.2090370E-015  0.9000776E+02  0.7816164E-02  0.1186339E+00
        -11   -1    0    0    0    0  0.00000000000E+00  0.00000000000E+00  0.45593999997E+02  0.45594000000E+02  0.51100000000E-03 0.  1.
         11   -1    0    0    0    0 -0.00000000000E+00 -0.00000000000E+00 -0.45593999997E+02  0.45594000000E+02  0.51100000000E-03 0. -1.
    9900012    2    1    2    0    0  0.43566178262E+00  0.10664905677E+01  0.25642596548E+00  0.90007763754E+02  0.90000025436E+02 0.  0.
         12    1    1    2    0    0 -0.43566178262E+00 -0.10664905677E+01 -0.25642596548E+00  0.11802362457E+01  0.00000000000E+00 0. -1.
         11    1    3    3    0    0  0.26396428318E+02 -0.26862412935E+02 -0.27371554661E+01  0.37760464469E+02  0.51100000000E-03 0. -1.
        -11    1    3    3    0    0  0.87239165698E+01  0.23870612997E+01  0.13188647035E+01  0.91402508900E+01  0.51100000000E-03 0.  1.
        -12    1    3    3    0    0 -0.34684683105E+02  0.25541842203E+02  0.16747167281E+01  0.43107048395E+02  0.00000000000E+00 0.  1.
</event>
<event>
 7    1  0.2090370E-015  0.9000766E+02  0.7816164E-02  0.1186339E+00
        -11   -1    0    0    0    0  0.00000000000E+00  0.00000000000E+00  0.45593999997E+02  0.45594000000E+02  0.51100000000E-03 0. -1.
         11   -1    0    0    0    0 -0.00000000000E+00 -0.00000000000E+00 -0.45593999997E+02  0.45594000000E+02  0.51100000000E-03 0.  1.
    9900012    2    1    2    0    0 -0.91939709435E+00  0.50736923644E+00  0.53895941980E+00  0.90007664533E+02  0.89999924904E+02 0.  0.
         12    1    1    2    0    0  0.91939709435E+00 -0.50736923644E+00 -0.53895941980E+00  0.11803354673E+01  0.00000000000E+00 0. -1.
         11    1    3    3    0    0 -0.51159759193E+01 -0.71211420051E+01  0.38775239653E+01  0.95874431120E+01  0.51100000000E-03 0. -1.
        -11    1    3    3    0    0  0.17318168375E+02  0.21933581125E+02 -0.34073700913E+02  0.44068333654E+02  0.51100000000E-03 0.  1.
         12    1    3    3    0    0 -0.13121589550E+02 -0.14305069883E+02  0.30735136368E+02  0.36351887767E+02  0.00000000000E+00 0. -1.
</event>
<event>
 7    1  0.2090370E-015  0.9000776E+02  0.7816164E-02  0.1186339E+00
        -11   -1    0    0    0    0  0.00000000000E+00  0.00000000000E+00  0.45593999997E+02  0.45594000000E+02  0.51100000000E-03 0.  1.
         11   -1    0    0    0    0 -0.00000000000E+00 -0.00000000000E+00 -0.45593999997E+02  0.45594000000E+02  0.51100000000E-03 0. -1.
    9900012    2    1    2    0    0  0.11700237474E+01  0.15494134242E+00  0.32973281162E-02  0.90007757118E+02  0.90000018712E+02 0.  0.
         12    1    1    2    0    0 -0.11700237474E+01 -0.15494134242E+00 -0.32973281162E-02  0.11802428823E+01  0.00000000000E+00 0. -1.
         11    1    3    3    0    0 -0.27613698543E+01  0.68447308493E+01  0.30383797328E+01  0.79816825001E+01  0.51100000000E-03 0. -1.
        -11    1    3    3    0    0 -0.19187686370E+02  0.30916321747E+02  0.62405308500E+01  0.36917888403E+02  0.51100000000E-03 0.  1.
         12    1    3    3    0    0  0.23119079971E+02 -0.37606111254E+02 -0.92756132546E+01  0.45108186215E+02  0.00000000000E+00 0. -1.
</event>
<event>
 7    1  0.2090370E-015  0.9000766E+02  0.7816164E-02  0.1186339E+00
        -11   -1    0    0    0    0  0.00000000000E+00  0.00000000000E+00  0.45593999997E+02  0.45594000000E+02  0.51100000000E-03 0.  1.
         11   -1    0    0    0    0 -0.00000000000E+00 -0.00000000000E+00 -0.45593999997E+02  0.45594000000E+02  0.51100000000E-03 0. -1.
    9900012    2    1    2    0    0  0.28224365763E+00 -0.36571823159E-01  0.11455102309E+01  0.90007664171E+02  0.89999924538E+02 0.  0.
         12    1    1    2    0    0 -0.28224365763E+00  0.36571823159E-01 -0.11455102309E+01  0.11803358292E+01  0.00000000000E+00 0. -1.
         11    1    3    3    0    0 -0.12158498995E+02 -0.10022539586E+02 -0.62055470059E+01  0.16934851976E+02  0.51100000000E-03 0. -1.
        -11    1    3    3    0    0 -0.20468503551E+02  0.13901924105E+02 -0.18620856668E+02  0.30967070167E+02  0.51100000000E-03 0.  1.
        -12    1    3    3    0    0  0.32909246204E+02 -0.39159563429E+01  0.25971913905E+02  0.42105742027E+02  0.00000000000E+00 0.  1.
</event>
<event>
 7    1  0.2090370E-015  0.9000779E+02  0.7816164E-02  0.1186339E+00
        -11   -1    0    0    0    0  0.00000000000E+00  0.00000000000E+00  0.45593999997E+02  0.45594000000E+02  0.51100000000E-03 0.  1.
         11   -1    0    0    0    0 -0.00000000000E+00 -0.00000000000E+00 -0.45593999997E+02  0.45594000000E+02  0.51100000000E-03 0. -1.
    9900012    2    1    2    0    0 -0.67594584311E+00  0.90745424760E+00  0.33542469235E+00  0.90007794205E+02  0.90000056288E+02 0.  0.
         12    1    1    2    0    0  0.67594584311E+00 -0.90745424760E+00 -0.33542469235E+00  0.11802057950E+01  0.00000000000E+00 0. -1.
         11    1    3    3    0    0 -0.14549548432E+02 -0.16100469033E+02 -0.28170547035E+01  0.21882647466E+02  0.51100000000E-03 0. -1.
        -11    1    3    3    0    0  0.54393521939E+01 -0.94443886657E+01  0.28510977907E+02  0.30523087836E+02  0.51100000000E-03 0.  1.
         12    1    3    3    0    0  0.84342503953E+01  0.26452311946E+02 -0.25358498511E+02  0.37602058903E+02  0.00000000000E+00 0. -1.
</event>
<event>
 7    1  0.2090370E-015  0.9000778E+02  0.7816164E-02  0.1186339E+00
        -11   -1    0    0    0    0  0.00000000000E+00  0.00000000000E+00  0.45593999997E+02  0.45594000000E+02  0.51100000000E-03 0.  1.
         11   -1    0    0    0    0 -0.00000000000E+00 -0.00000000000E+00 -0.45593999997E+02  0.45594000000E+02  0.51100000000E-03 0. -1.
    9900012    2    1    2    0    0  0.84755402746E+00 -0.55673894076E+00 -0.60383330325E+00  0.90007779370E+02  0.90000041258E+02 0.  0.
         12    1    1    2    0    0 -0.84755402746E+00  0.55673894076E+00  0.60383330325E+00  0.11802206301E+01  0.00000000000E+00 0. -1.
         11    1    3    3    0    0  0.94182269564E+01 -0.16013307216E+01  0.24619339804E+01  0.98655145972E+01  0.51100000000E-03 0. -1.
        -11    1    3    3    0    0  0.19403865611E+02  0.30286155943E+02  0.10485034127E+02  0.37465946983E+02  0.51100000000E-03 0.  1.
         12    1    3    3    0    0 -0.27974538540E+02 -0.29241564163E+02 -0.13550801410E+02  0.42676317789E+02  0.00000000000E+00 0. -1.
</event>
<event>
 7    1  0.2090370E-015  0.9000784E+02  0.7816164E-02  0.1186339E+00
        -11   -1    0    0    0    0  0.00000000000E+00  0.00000000000E+00  0.45593999997E+02  0.45594000000E+02  0.51100000000E-03 0. -1.
         11   -1    0    0    0    0 -0.00000000000E+00 -0.00000000000E+00 -0.45593999997E+02  0.45594000000E+02  0.51100000000E-03 0.  1.
    9900012    2    1    2    0    0  0.84441612483E+00 -0.14077639602E+00 -0.81235792748E+00  0.90007838152E+02  0.90000100815E+02 0.  0.
         12    1    1    2    0    0 -0.84441612483E+00  0.14077639602E+00  0.81235792748E+00  0.11801618482E+01  0.00000000000E+00 0. -1.
         11    1    3    3    0    0 -0.35148399607E+01  0.11556004645E+00 -0.10860215565E+02  0.11415416613E+02  0.51100000000E-03 0. -1.
        -11    1    3    3    0    0 -0.23488490292E+02  0.10001697000E+02 -0.22867748257E+02  0.34273561672E+02  0.51100000000E-03 0.  1.
         12    1    3    3    0    0  0.27847746378E+02 -0.10258033442E+02  0.32915605895E+02  0.44318859866E+02  0.00000000000E+00 0. -1.
</event>
<event>
 7    1  0.2090370E-015  0.9000777E+02  0.7816164E-02  0.1186339E+00
        -11   -1    0    0    0    0  0.00000000000E+00  0.00000000000E+00  0.45593999997E+02  0.45594000000E+02  0.51100000000E-03 0. -1.
         11   -1    0    0    0    0 -0.00000000000E+00 -0.00000000000E+00 -0.45593999997E+02  0.45594000000E+02  0.51100000000E-03 0.  1.
    9900012    2    1    2    0    0  0.46819713181E+00  0.17201860516E+00 -0.10696454162E+01  0.90007771094E+02  0.90000032872E+02 0.  0.
         12    1    1    2    0    0 -0.46819713181E+00 -0.17201860516E+00  0.10696454162E+01  0.11802289062E+01  0.00000000000E+00 0. -1.
         11    1    3    3    0    0  0.28496358216E+02 -0.15981301497E+02  0.51954141454E+01  0.33082272557E+02  0.51100000000E-03 0. -1.
        -11    1    3    3    0    0  0.87722260166E+00  0.21974792735E+02  0.89522114292E+01  0.23744538845E+02  0.51100000000E-03 0.  1.
         12    1    3    3    0    0 -0.28905383686E+02 -0.58214726330E+01 -0.15217270991E+02  0.33180959692E+02  0.00000000000E+00 0. -1.
</event>
<event>
 7    1  0.2090370E-015  0.9000767E+02  0.7816164E-02  0.1186339E+00
        -11   -1    0    0    0    0  0.00000000000E+00  0.00000000000E+00  0.45593999997E+02  0.45594000000E+02  0.51100000000E-03 0.  1.
         11   -1    0    0    0    0 -0.00000000000E+00 -0.00000000000E+00 -0.45593999997E+02  0.45594000000E+02  0.51100000000E-03 0. -1.
    9900012    2    1    2    0    0  0.85268669858E+00 -0.80651758866E+00 -0.12499578716E+00  0.90007674124E+02  0.89999934622E+02 0.  0.
         12    1    1    2    0    0 -0.85268669858E+00  0.80651758866E+00  0.12499578716E+00  0.11803258760E+01  0.00000000000E+00 0. -1.
         11    1    3    3    0    0 -0.42706052629E+01 -0.18025377707E+01 -0.73281979378E+01  0.86711992829E+01  0.51100000000E-03 0. -1.
        -11    1    3    3    0    0  0.59972963291E+01 -0.37879677986E+02  0.15855784983E+02  0.41499921509E+02  0.51100000000E-03 0.  1.
         12    1    3    3    0    0 -0.87400436764E+00  0.38875698168E+02 -0.86525828325E+01  0.39836553332E+02  0.00000000000E+00 0. -1.
</event>
<event>
 7    1  0.2090370E-015  0.9000773E+02  0.7816164E-02  0.1186339E+00
        -11   -1    0    0    0    0  0.00000000000E+00  0.00000000000E+00  0.45593999997E+02  0.45594000000E+02  0.51100000000E-03 0. -1.
         11   -1    0    0    0    0 -0.00000000000E+00 -0.00000000000E+00 -0.45593999997E+02  0.45594000000E+02  0.51100000000E-03 0.  1.
    9900012    2    1    2    0    0  0.22730813242E+00  0.11569579565E+01  0.53131679384E-01  0.90007727288E+02  0.89999988488E+02 0.  0.
         12    1    1    2    0    0 -0.22730813242E+00 -0.11569579565E+01 -0.53131679384E-01  0.11802727124E+01  0.00000000000E+00 0. -1.
         11    1    3    3    0    0  0.81939453780E+01 -0.13182262941E+02  0.40525200326E+02  0.43395906014E+02  0.51100000000E-03 0. -1.
        -11    1    3    3    0    0 -0.22331764933E+01  0.81303879559E+01 -0.42982146212E+01  0.94638752503E+01  0.51100000000E-03 0.  1.
        -12    1    3    3    0    0 -0.57334607523E+01  0.62088329414E+01 -0.36173854025E+02  0.37147946023E+02  0.00000000000E+00 0.  1.
</event>
<event>
 7    1  0.2090370E-015  0.9000775E+02  0.7816164E-02  0.1186339E+00
        -11   -1    0    0    0    0  0.00000000000E+00  0.00000000000E+00  0.45593999997E+02  0.45594000000E+02  0.51100000000E-03 0.  1.
         11   -1    0    0    0    0 -0.00000000000E+00 -0.00000000000E+00 -0.45593999997E+02  0.45594000000E+02  0.51100000000E-03 0. -1.
    9900012    2    1    2    0    0  0.62648194279E+00  0.81744174262E+00  0.57645687493E+00  0.90007748690E+02  0.90000010172E+02 0.  0.
         12    1    1    2    0    0 -0.62648194279E+00 -0.81744174262E+00 -0.57645687493E+00  0.11802513105E+01  0.00000000000E+00 0. -1.
         11    1    3    3    0    0 -0.35982894008E+01 -0.75996370953E+01  0.26697921689E+01  0.88221290559E+01  0.51100000000E-03 0. -1.
        -11    1    3    3    0    0  0.36264011518E+01 -0.79191226497E+01  0.37422088992E+02  0.38422337691E+02  0.51100000000E-03 0.  1.
         12    1    3    3    0    0  0.59837019185E+00  0.16336201488E+02 -0.39515424286E+02  0.42763281942E+02  0.00000000000E+00 0. -1.
</event>
<event>
 7    1  0.2090370E-015  0.9000797E+02  0.7816164E-02  0.1186339E+00
        -11   -1    0    0    0    0  0.00000000000E+00  0.00000000000E+00  0.45593999997E+02  0.45594000000E+02  0.51100000000E-03 0. -1.
         11   -1    0    0    0    0 -0.00000000000E+00 -0.00000000000E+00 -0.45593999997E+02  0.45594000000E+02  0.51100000000E-03 0.  1.
    9900012    2    1    2    0    0  0.82287969422E-01  0.98330255838E+00 -0.64715513352E+00  0.90007972459E+02  0.90000236895E+02 0.  0.
         12    1    1    2    0    0 -0.82287969422E-01 -0.98330255838E+00  0.64715513352E+00  0.11800275412E+01  0.00000000000E+00 0. -1.
         11    1    3    3    0    0 -0.21208339275E+02 -0.10546351075E+02  0.77904335716E+01  0.24934113806E+02  0.51100000000E-03 0. -1.
        -11    1    3    3    0    0  0.22343172329E+01 -0.15756818814E+02 -0.23629100514E+02  0.28488662727E+02  0.51100000000E-03 0.  1.
        -12    1    3    3    0    0  0.19056310011E+02  0.27286472448E+02  0.15191511809E+02  0.36585195926E+02  0.00000000000E+00 0.  1.
</event>
<event>
 7    1  0.2090370E-015  0.9000766E+02  0.7816164E-02  0.1186339E+00
        -11   -1    0    0    0    0  0.00000000000E+00  0.00000000000E+00  0.45593999997E+02  0.45594000000E+02  0.51100000000E-03 0. -1.
         11   -1    0    0    0    0 -0.00000000000E+00 -0.00000000000E+00 -0.45593999997E+02  0.45594000000E+02  0.51100000000E-03 0.  1.
    9900012    2    1    2    0    0 -0.86591271759E+00  0.13492262139E+00 -0.79068669453E+00  0.90007663439E+02  0.89999923796E+02 0.  0.
         12    1    1    2    0    0  0.86591271759E+00 -0.13492262139E+00  0.79068669453E+00  0.11803365610E+01  0.00000000000E+00 0. -1.
         11    1    3    3    0    0  0.81275591248E+01  0.66706276770E+01  0.12766766493E+01  0.10591713481E+02  0.51100000000E-03 0. -1.
        -11    1    3    3    0    0  0.12125426868E+02  0.32650117688E+02 -0.22436393119E+01  0.34901147251E+02  0.51100000000E-03 0.  1.
         12    1    3    3    0    0 -0.21118898711E+02 -0.39185822744E+02  0.17627596806E+00  0.44514802707E+02  0.00000000000E+00 0. -1.
</event>
<event>
 7    1  0.2505452E-015  0.9000774E+02  0.7816164E-02  0.1186339E+00
        -11   -1    0    0    0    0  0.00000000000E+00  0.00000000000E+00  0.45593999997E+02  0.45594000000E+02  0.51100000000E-03 0. -1.
         11   -1    0    0    0    0 -0.00000000000E+00 -0.00000000000E+00 -0.45593999997E+02  0.45594000000E+02  0.51100000000E-03 0.  1.
    9900012    2    1    2    0    0  0.44574441389E+00 -0.12734604719E+00 -0.10854037159E+01  0.90007743111E+02  0.90000004520E+02 0.  0.
         12    1    1    2    0    0 -0.44574441389E+00  0.12734604719E+00  0.10854037159E+01  0.11802568893E+01  0.00000000000E+00 0. -1.
         11    1    3    3    0    0  0.39085141959E+02 -0.68478510321E+01  0.16201596019E+02  0.42860624115E+02  0.51100000000E-03 0. -1.
        -11    1    3    3    0    0 -0.58597804275E+01 -0.62419002533E+01 -0.43067120198E+01  0.95836378330E+01  0.51100000000E-03 0.  1.
        -12    1    3    3    0    0 -0.32779617117E+02  0.12962405238E+02 -0.12980287715E+02  0.37563481163E+02  0.00000000000E+00 0.  1.
</event>
<event>
 7    1  0.2090370E-015  0.9000785E+02  0.7816164E-02  0.1186339E+00
        -11   -1    0    0    0    0  0.00000000000E+00  0.00000000000E+00  0.45593999997E+02  0.45594000000E+02  0.51100000000E-03 0. -1.
         11   -1    0    0    0    0 -0.00000000000E+00 -0.00000000000E+00 -0.45593999997E+02  0.45594000000E+02  0.51100000000E-03 0.  1.
    9900012    2    1    2    0    0 -0.73574804654E+00 -0.88104879371E+00 -0.27418100798E+00  0.90007852810E+02  0.90000115667E+02 0.  0.
         12    1    1    2    0    0  0.73574804654E+00  0.88104879371E+00  0.27418100798E+00  0.11801471900E+01  0.00000000000E+00 0. -1.
         11    1    3    3    0    0  0.59035933492E+01 -0.78442977230E+01  0.56524048649E-01  0.98177704408E+01  0.51100000000E-03 0. -1.
        -11    1    3    3    0    0  0.36621739867E+02  0.28247764400E+01 -0.42196352717E-01  0.36730545512E+02  0.51100000000E-03 0.  1.
         12    1    3    3    0    0 -0.43261081263E+02  0.41384724893E+01 -0.28850870391E+00  0.43459536857E+02  0.00000000000E+00 0. -1.
</event>
<event>
 7    1  0.2090370E-015  0.9000776E+02  0.7816164E-02  0.1186339E+00
        -11   -1    0    0    0    0  0.00000000000E+00  0.00000000000E+00  0.45593999997E+02  0.45594000000E+02  0.51100000000E-03 0.  1.
         11   -1    0    0    0    0 -0.00000000000E+00 -0.00000000000E+00 -0.45593999997E+02  0.45594000000E+02  0.51100000000E-03 0. -1.
    9900012    2    1    2    0    0 -0.63457761108E+00  0.58636975514E+00  0.80401937566E+00  0.90007760452E+02  0.90000022090E+02 0.  0.
         12    1    1    2    0    0  0.63457761108E+00 -0.58636975514E+00 -0.80401937566E+00  0.11802395480E+01  0.00000000000E+00 0. -1.
         11    1    3    3    0    0  0.15203902886E+02  0.37960131870E+02  0.15732034915E+02  0.43813550385E+02  0.51100000000E-03 0. -1.
        -11    1    3    3    0    0 -0.74868712083E+01 -0.33044821514E+01 -0.30236412718E+00  0.81892775691E+01  0.51100000000E-03 0.  1.
        -12    1    3    3    0    0 -0.83516092888E+01 -0.34069279963E+02 -0.14625651412E+02  0.38004932498E+02  0.00000000000E+00 0.  1.
</event>
<event>
 7    1  0.2090370E-015  0.9000781E+02  0.7816164E-02  0.1186339E+00
        -11   -1    0    0    0    0  0.00000000000E+00  0.00000000000E+00  0.45593999997E+02  0.45594000000E+02  0.51100000000E-03 0.  1.
         11   -1    0    0    0    0 -0.00000000000E+00 -0.00000000000E+00 -0.45593999997E+02  0.45594000000E+02  0.51100000000E-03 0. -1.
    9900012    2    1    2    0    0 -0.16386339813E+00 -0.62537838734E+00  0.98737435418E+00  0.90007806179E+02  0.90000068420E+02 0.  0.
         12    1    1    2    0    0  0.16386339813E+00  0.62537838734E+00 -0.98737435418E+00  0.11801938213E+01  0.00000000000E+00 0. -1.
         11    1    3    3    0    0  0.69407582075E+01 -0.43929113956E+01 -0.41869886298E+01  0.92196892069E+01  0.51100000000E-03 0. -1.
        -11    1    3    3    0    0  0.34953847762E+02 -0.35607897555E+01  0.12851129238E+02  0.37411257931E+02  0.51100000000E-03 0.  1.
         12    1    3    3    0    0 -0.42058469368E+02  0.73283227638E+01 -0.76767662540E+01  0.43376859040E+02  0.00000000000E+00 0. -1.
</event>
<event>
 7    1  0.2090370E-015  0.9000774E+02  0.7816164E-02  0.1186339E+00
        -11   -1    0    0    0    0  0.00000000000E+00  0.00000000000E+00  0.45593999997E+02  0.45594000000E+02  0.51100000000E-03 0. -1.
         11   -1    0    0    0    0 -0.00000000000E+00 -0.00000000000E+00 -0.45593999997E+02  0.45594000000E+02  0.51100000000E-03 0.  1.
    9900012    2    1    2    0    0  0.42319915270E+00 -0.49164318543E-01 -0.11006862477E+01  0.90007735255E+02  0.89999996560E+02 0.  0.
         12    1    1    2    0    0 -0.42319915270E+00  0.49164318543E-01  0.11006862477E+01  0.11802647452E+01  0.00000000000E+00 0. -1.
         11    1    3    3    0    0  0.10106512891E+01  0.14481712345E+02  0.14447210862E+02  0.20480803462E+02  0.51100000000E-03 0. -1.
        -11    1    3    3    0    0  0.37760846146E+01  0.14104501419E+02  0.19307350456E+02  0.24206808075E+02  0.51100000000E-03 0.  1.
        -12    1    3    3    0    0 -0.43635367510E+01 -0.28635378083E+02 -0.34855247566E+02  0.45320123718E+02  0.00000000000E+00 0.  1.
</event>
<event>
 7    1  0.2090370E-015  0.9000769E+02  0.7816164E-02  0.1186339E+00
        -11   -1    0    0    0    0  0.00000000000E+00  0.00000000000E+00  0.45593999997E+02  0.45594000000E+02  0.51100000000E-03 0.  1.
         11   -1    0    0    0    0 -0.00000000000E+00 -0.00000000000E+00 -0.45593999997E+02  0.45594000000E+02  0.51100000000E-03 0. -1.
    9900012    2    1    2    0    0 -0.90743045283E+00 -0.56929349438E-01  0.75263631857E+00  0.90007689699E+02  0.89999950403E+02 0.  0.
         12    1    1    2    0    0  0.90743045283E+00  0.56929349438E-01 -0.75263631857E+00  0.11803103005E+01  0.00000000000E+00 0. -1.
         11    1    3    3    0    0  0.41954563591E+01 -0.36524774231E+02 -0.13811085165E+02  0.39273490555E+02  0.51100000000E-03 0. -1.
        -11    1    3    3    0    0  0.24560482454E+01 -0.54543450198E+01  0.22629159161E+01  0.63955329163E+01  0.51100000000E-03 0.  1.
        -12    1    3    3    0    0 -0.75589350573E+01  0.41922189901E+02  0.12300805567E+02  0.44338666228E+02  0.00000000000E+00 0.  1.
</event>
<event>
 7    1  0.2090370E-015  0.9000773E+02  0.7816164E-02  0.1186339E+00
        -11   -1    0    0    0    0  0.00000000000E+00  0.00000000000E+00  0.45593999997E+02  0.45594000000E+02  0.51100000000E-03 0.  1.
         11   -1    0    0    0    0 -0.00000000000E+00 -0.00000000000E+00 -0.45593999997E+02  0.45594000000E+02  0.51100000000E-03 0. -1.
    9900012    2    1    2    0    0 -0.60319529980E+00  0.57618248886E+00  0.83498569589E+00  0.90007732258E+02  0.89999993524E+02 0.  0.
         12    1    1    2    0    0  0.60319529980E+00 -0.57618248886E+00 -0.83498569589E+00  0.11802677419E+01  0.00000000000E+00 0. -1.
         11    1    3    3    0    0  0.18920313631E+02 -0.67412881697E+01 -0.90983653929E+01  0.22050022385E+02  0.51100000000E-03 0. -1.
        -11    1    3    3    0    0 -0.62983875329E+01 -0.28370774299E+02  0.61970043302E+01  0.29714868043E+02  0.51100000000E-03 0.  1.
         12    1    3    3    0    0 -0.13225121398E+02  0.35688244958E+02  0.37363467587E+01  0.38242841831E+02  0.00000000000E+00 0. -1.
</event>
<event>
 7    1  0.2090370E-015  0.9000802E+02  0.7816164E-02  0.1186338E+00
        -11   -1    0    0    0    0  0.00000000000E+00  0.00000000000E+00  0.45593999997E+02  0.45594000000E+02  0.51100000000E-03 0.  1.
         11   -1    0    0    0    0 -0.00000000000E+00 -0.00000000000E+00 -0.45593999997E+02  0.45594000000E+02  0.51100000000E-03 0. -1.
    9900012    2    1    2    0    0 -0.31826242548E+00  0.86092584192E+00  0.74153222293E+00  0.90008019358E+02  0.90000284414E+02 0.  0.
         12    1    1    2    0    0  0.31826242548E+00 -0.86092584192E+00 -0.74153222293E+00  0.11799806415E+01  0.00000000000E+00 0. -1.
         11    1    3    3    0    0 -0.33594343384E+02  0.18491486285E+02  0.13403277496E+02  0.40622196154E+02  0.51100000000E-03 0. -1.
        -11    1    3    3    0    0 -0.32704132361E+01 -0.96493916757E+01 -0.42768387828E+01  0.11049783377E+02  0.51100000000E-03 0.  1.
        -12    1    3    3    0    0  0.36546494195E+02 -0.79811687676E+01 -0.83849064907E+01  0.38336039828E+02  0.00000000000E+00 0.  1.
</event>
<event>
 7    1  0.2090370E-015  0.9000775E+02  0.7816164E-02  0.1186339E+00
        -11   -1    0    0    0    0  0.00000000000E+00  0.00000000000E+00  0.45593999997E+02  0.45594000000E+02  0.51100000000E-03 0. -1.
         11   -1    0    0    0    0 -0.00000000000E+00 -0.00000000000E+00 -0.45593999997E+02  0.45594000000E+02  0.51100000000E-03 0.  1.
    9900012    2    1    2    0    0  0.11671830283E+00 -0.96416143313E+00  0.67063937235E+00  0.90007751044E+02  0.90000012557E+02 0.  0.
         12    1    1    2    0    0 -0.11671830283E+00  0.96416143313E+00 -0.67063937235E+00  0.11802489564E+01  0.00000000000E+00 0. -1.
         11    1    3    3    0    0  0.39788911094E+02  0.13355302438E+02  0.70840112651E+01  0.42564125330E+02  0.51100000000E-03 0. -1.
        -11    1    3    3    0    0 -0.80915550894E+01  0.37772734976E+01 -0.65006288623E+01  0.11045326374E+02  0.51100000000E-03 0.  1.
        -12    1    3    3    0    0 -0.31580637702E+02 -0.18096737369E+02  0.87256969609E-01  0.36398299340E+02  0.00000000000E+00 0.  1.
</event>
<event>
 7    1  0.2090370E-015  0.9000781E+02  0.7816164E-02  0.1186339E+00
        -11   -1    0    0    0    0  0.00000000000E+00  0.00000000000E+00  0.45593999997E+02  0.45594000000E+02  0.51100000000E-03 0. -1.
         11   -1    0    0    0    0 -0.00000000000E+00 -0.00000000000E+00 -0.45593999997E+02  0.45594000000E+02  0.51100000000E-03 0.  1.
    9900012    2    1    2    0    0 -0.82438175842E+00 -0.76170281502E+00  0.36477858377E+00  0.90007805153E+02  0.90000067381E+02 0.  0.
         12    1    1    2    0    0  0.82438175842E+00  0.76170281502E+00 -0.36477858377E+00  0.11801948471E+01  0.00000000000E+00 0. -1.
         11    1    3    3    0    0  0.82852182380E+01  0.34228776122E+01 -0.20169675033E+01  0.91885303814E+01  0.51100000000E-03 0. -1.
        -11    1    3    3    0    0  0.34562357101E+01 -0.31466061005E+02 -0.24874893829E+02  0.40259395223E+02  0.51100000000E-03 0.  1.
         12    1    3    3    0    0 -0.12565835707E+02  0.27281480578E+02  0.27256639916E+02  0.40559879549E+02  0.00000000000E+00 0. -1.
</event>
<event>
 7    1  0.2090370E-015  0.9000773E+02  0.7816164E-02  0.1186339E+00
        -11   -1    0    0    0    0  0.00000000000E+00  0.00000000000E+00  0.45593999997E+02  0.45594000000E+02  0.51100000000E-03 0. -1.
         11   -1    0    0    0    0 -0.00000000000E+00 -0.00000000000E+00 -0.45593999997E+02  0.45594000000E+02  0.51100000000E-03 0.  1.
    9900012    2    1    2    0    0  0.68615108511E+00 -0.96027748418E+00  0.10369473295E-01  0.90007727284E+02  0.89999988484E+02 0.  0.
         12    1    1    2    0    0 -0.68615108511E+00  0.96027748418E+00 -0.10369473295E-01  0.11802727160E+01  0.00000000000E+00 0. -1.
         11    1    3    3    0    0  0.23400651331E+01 -0.61818806244E+01 -0.76653756588E+01  0.10121735875E+02  0.51100000000E-03 0. -1.
        -11    1    3    3    0    0 -0.22377838046E+02 -0.14579109548E+02 -0.24886602372E+02  0.36505630370E+02  0.51100000000E-03 0.  1.
         12    1    3    3    0    0  0.20723923999E+02  0.19800712689E+02  0.32562347504E+02  0.43380361038E+02  0.00000000000E+00 0. -1.
</event>
<event>
 7    1  0.2090370E-015  0.9000770E+02  0.7816164E-02  0.1186339E+00
        -11   -1    0    0    0    0  0.00000000000E+00  0.00000000000E+00  0.45593999997E+02  0.45594000000E+02  0.51100000000E-03 0.  1.
         11   -1    0    0    0    0 -0.00000000000E+00 -0.00000000000E+00 -0.45593999997E+02  0.45594000000E+02  0.51100000000E-03 0. -1.
    9900012    2    1    2    0    0 -0.60196530171E+00  0.10056909602E+01 -0.13900575992E+00  0.90007703794E+02  0.89999964684E+02 0.  0.
         12    1    1    2    0    0  0.60196530171E+00 -0.10056909602E+01  0.13900575992E+00  0.11802962057E+01  0.00000000000E+00 0. -1.
         11    1    3    3    0    0  0.22262326980E+01  0.87979070481E+01 -0.45098874954E+00  0.90864003635E+01  0.51100000000E-03 0. -1.
        -11    1    3    3    0    0 -0.28794700547E+02  0.84981006082E+01 -0.26614558496E+02  0.40120907489E+02  0.51100000000E-03 0.  1.
         12    1    3    3    0    0  0.25966502547E+02 -0.16290316696E+02  0.26926541486E+02  0.40800395942E+02  0.00000000000E+00 0. -1.
</event>
<event>
 7    1  0.2090370E-015  0.9000781E+02  0.7816164E-02  0.1186339E+00
        -11   -1    0    0    0    0  0.00000000000E+00  0.00000000000E+00  0.45593999997E+02  0.45594000000E+02  0.51100000000E-03 0.  1.
         11   -1    0    0    0    0 -0.00000000000E+00 -0.00000000000E+00 -0.45593999997E+02  0.45594000000E+02  0.51100000000E-03 0. -1.
    9900012    2    1    2    0    0  0.64756369759E-01 -0.75794814124E+00  0.90231056142E+00  0.90007812252E+02  0.90000074573E+02 0.  0.
         12    1    1    2    0    0 -0.64756369759E-01  0.75794814124E+00 -0.90231056142E+00  0.11801877484E+01  0.00000000000E+00 0. -1.
         11    1    3    3    0    0 -0.86790399445E+01 -0.17228180315E-01 -0.69342666117E+01  0.11109009176E+02  0.51100000000E-03 0. -1.
        -11    1    3    3    0    0 -0.18642884627E+02 -0.22421471764E+02  0.26406773513E+02  0.39339512336E+02  0.51100000000E-03 0.  1.
         12    1    3    3    0    0  0.27386680941E+02  0.21680751803E+02 -0.18570196339E+02  0.39559290739E+02  0.00000000000E+00 0. -1.
</event>
<event>
 7    1  0.2090370E-015  0.9000775E+02  0.7816164E-02  0.1186339E+00
        -11   -1    0    0    0    0  0.00000000000E+00  0.00000000000E+00  0.45593999997E+02  0.45594000000E+02  0.51100000000E-03 0. -1.
         11   -1    0    0    0    0 -0.00000000000E+00 -0.00000000000E+00 -0.45593999997E+02  0.45594000000E+02  0.51100000000E-03 0.  1.
    9900012    2    1    2    0    0 -0.94063001912E+00 -0.56334933579E+00 -0.43685304475E+00  0.90007750920E+02  0.90000012433E+02 0.  0.
         12    1    1    2    0    0  0.94063001912E+00  0.56334933579E+00  0.43685304475E+00  0.11802490795E+01  0.00000000000E+00 0. -1.
         11    1    3    3    0    0  0.92704572692E+01  0.35226793130E+02  0.15599291298E+02  0.39625827707E+02  0.51100000000E-03 0. -1.
        -11    1    3    3    0    0  0.52158615110E+01 -0.56375006236E+01  0.61953575103E+01  0.98675771862E+01  0.51100000000E-03 0.  1.
        -12    1    3    3    0    0 -0.15426948799E+02 -0.30152641843E+02 -0.22231501853E+02  0.40514346027E+02  0.00000000000E+00 0.  1.
</event>
<event>
 7    1  0.2090370E-015  0.9000781E+02  0.7816164E-02  0.1186339E+00
        -11   -1    0    0    0    0  0.00000000000E+00  0.00000000000E+00  0.45593999997E+02  0.45594000000E+02  0.51100000000E-03 0. -1.
         11   -1    0    0    0    0 -0.00000000000E+00 -0.00000000000E+00 -0.45593999997E+02  0.45594000000E+02  0.51100000000E-03 0.  1.
    9900012    2    1    2    0    0  0.33369084517E+00 -0.98926235086E+00  0.55033556765E+00  0.90007805602E+02  0.90000067836E+02 0.  0.
         12    1    1    2    0    0 -0.33369084517E+00  0.98926235086E+00 -0.55033556765E+00  0.11801943975E+01  0.00000000000E+00 0. -1.
         11    1    3    3    0    0  0.50299976538E+01 -0.33382458044E+01  0.66978418863E+01  0.90169755263E+01  0.51100000000E-03 0. -1.
        -11    1    3    3    0    0 -0.86872118330E+01 -0.32161304381E+02  0.18770559721E+02  0.38238083914E+02  0.51100000000E-03 0.  1.
         12    1    3    3    0    0  0.39909050243E+01  0.34510287834E+02 -0.24918066039E+02  0.42752746163E+02  0.00000000000E+00 0. -1.
</event>
<event>
 7    1  0.2090370E-015  0.9000759E+02  0.7816164E-02  0.1186339E+00
        -11   -1    0    0    0    0  0.00000000000E+00  0.00000000000E+00  0.45593999997E+02  0.45594000000E+02  0.51100000000E-03 0.  1.
         11   -1    0    0    0    0 -0.00000000000E+00 -0.00000000000E+00 -0.45593999997E+02  0.45594000000E+02  0.51100000000E-03 0. -1.
    9900012    2    1    2    0    0  0.41452675965E+00  0.63755284537E-02  0.11052119536E+01  0.90007590518E+02  0.89999849913E+02 0.  0.
         12    1    1    2    0    0 -0.41452675965E+00 -0.63755284537E-02 -0.11052119536E+01  0.11804094816E+01  0.00000000000E+00 0. -1.
         11    1    3    3    0    0  0.10384331029E+01  0.22537373879E+02 -0.26082570300E+02  0.34486403674E+02  0.51100000000E-03 0. -1.
        -11    1    3    3    0    0 -0.62755430666E+01 -0.11457254003E+01 -0.10229043910E+02  0.12055225715E+02  0.51100000000E-03 0.  1.
        -12    1    3    3    0    0  0.56516367233E+01 -0.21385272950E+02  0.37416826163E+02  0.43465961129E+02  0.00000000000E+00 0.  1.
</event>
<event>
 7    1  0.2090370E-015  0.9000774E+02  0.7816164E-02  0.1186339E+00
        -11   -1    0    0    0    0  0.00000000000E+00  0.00000000000E+00  0.45593999997E+02  0.45594000000E+02  0.51100000000E-03 0.  1.
         11   -1    0    0    0    0 -0.00000000000E+00 -0.00000000000E+00 -0.45593999997E+02  0.45594000000E+02  0.51100000000E-03 0. -1.
    9900012    2    1    2    0    0  0.14607103810E+00 -0.29032380636E+00  0.11346298331E+01  0.90007741758E+02  0.90000003149E+02 0.  0.
         12    1    1    2    0    0 -0.14607103810E+00  0.29032380636E+00 -0.11346298331E+01  0.11802582424E+01  0.00000000000E+00 0. -1.
         11    1    3    3    0    0  0.37314851883E+02 -0.16930094912E+02  0.10648484084E+02  0.42336940115E+02  0.51100000000E-03 0. -1.
        -11    1    3    3    0    0 -0.69288214625E+01 -0.57786169290E+01 -0.26805761513E+01  0.94120385271E+01  0.51100000000E-03 0.  1.
        -12    1    3    3    0    0 -0.30239959382E+02  0.22418388035E+02 -0.68332780998E+01  0.38258763115E+02  0.00000000000E+00 0.  1.
</event>
<event>
 7    1  0.2090370E-015  0.9000762E+02  0.7816164E-02  0.1186339E+00
        -11   -1    0    0    0    0  0.00000000000E+00  0.00000000000E+00  0.45593999997E+02  0.45594000000E+02  0.51100000000E-03 0. -1.
         11   -1    0    0    0    0 -0.00000000000E+00 -0.00000000000E+00 -0.45593999997E+02  0.45594000000E+02  0.51100000000E-03 0.  1.
    9900012    2    1    2    0    0  0.75647784304E+00  0.74477303452E+00 -0.51608958926E+00  0.90007621220E+02  0.89999881020E+02 0.  0.
         12    1    1    2    0    0 -0.75647784304E+00 -0.74477303452E+00  0.51608958926E+00  0.11803787799E+01  0.00000000000E+00 0. -1.
         11    1    3    3    0    0 -0.18982278262E+02 -0.11056677018E+02  0.30356777619E+02  0.37471468377E+02  0.51100000000E-03 0. -1.
        -11    1    3    3    0    0 -0.93495261895E+00 -0.10075232991E+02 -0.10646737877E+01  0.10174378937E+02  0.51100000000E-03 0.  1.
        -12    1    3    3    0    0  0.20673708724E+02  0.21876683043E+02 -0.29808193421E+02  0.42361773905E+02  0.00000000000E+00 0.  1.
</event>
<event>
 7    1  0.2090370E-015  0.9000764E+02  0.7816164E-02  0.1186339E+00
        -11   -1    0    0    0    0  0.00000000000E+00  0.00000000000E+00  0.45593999997E+02  0.45594000000E+02  0.51100000000E-03 0. -1.
         11   -1    0    0    0    0 -0.00000000000E+00 -0.00000000000E+00 -0.45593999997E+02  0.45594000000E+02  0.51100000000E-03 0.  1.
    9900012    2    1    2    0    0 -0.37254341999E+00 -0.67210575221E+00 -0.89595850993E+00  0.90007637177E+02  0.89999897188E+02 0.  0.
         12    1    1    2    0    0  0.37254341999E+00  0.67210575221E+00  0.89595850993E+00  0.11803628228E+01  0.00000000000E+00 0. -1.
         11    1    3    3    0    0 -0.48211943095E+01 -0.56322948630E+01  0.92854123028E+01  0.11882152241E+02  0.51100000000E-03 0. -1.
        -11    1    3    3    0    0  0.35986737345E+02  0.21384773151E+02 -0.67469884492E+01  0.42401363668E+02  0.51100000000E-03 0.  1.
         12    1    3    3    0    0 -0.31538086455E+02 -0.16424584041E+02 -0.34343823635E+01  0.35724121268E+02  0.00000000000E+00 0. -1.
</event>
<event>
 7    1  0.2090370E-015  0.9000777E+02  0.7816164E-02  0.1186339E+00
        -11   -1    0    0    0    0  0.00000000000E+00  0.00000000000E+00  0.45593999997E+02  0.45594000000E+02  0.51100000000E-03 0. -1.
         11   -1    0    0    0    0 -0.00000000000E+00 -0.00000000000E+00 -0.45593999997E+02  0.45594000000E+02  0.51100000000E-03 0.  1.
    9900012    2    1    2    0    0 -0.22249398605E+00 -0.90928359872E+00 -0.71878011303E+00  0.90007769053E+02  0.90000030805E+02 0.  0.
         12    1    1    2    0    0  0.22249398605E+00  0.90928359872E+00  0.71878011303E+00  0.11802309467E+01  0.00000000000E+00 0. -1.
         11    1    3    3    0    0 -0.99769300075E+01 -0.13880055641E+00  0.81248976336E+01  0.12867492366E+02  0.51100000000E-03 0. -1.
        -11    1    3    3    0    0 -0.46672539688E+00  0.37112858043E+02 -0.75802627836E+01  0.37881954132E+02  0.51100000000E-03 0.  1.
         12    1    3    3    0    0  0.10221161418E+02 -0.37883341085E+02 -0.12634149630E+01  0.39258322556E+02  0.00000000000E+00 0. -1.
</event>
<event>
 7    1  0.2090370E-015  0.9000790E+02  0.7816164E-02  0.1186339E+00
        -11   -1    0    0    0    0  0.00000000000E+00  0.00000000000E+00  0.45593999997E+02  0.45594000000E+02  0.51100000000E-03 0.  1.
         11   -1    0    0    0    0 -0.00000000000E+00 -0.00000000000E+00 -0.45593999997E+02  0.45594000000E+02  0.51100000000E-03 0. -1.
    9900012    2    1    2    0    0 -0.11373655599E+01 -0.26211711980E+00  0.17413276741E+00  0.90007903384E+02  0.90000166909E+02 0.  0.
         12    1    1    2    0    0  0.11373655599E+01  0.26211711980E+00 -0.17413276741E+00  0.11800966156E+01  0.00000000000E+00 0. -1.
         11    1    3    3    0    0 -0.29380485602E+02  0.38173254046E+01  0.23812535655E+02  0.38010811120E+02  0.51100000000E-03 0. -1.
        -11    1    3    3    0    0 -0.56860379782E+01  0.77123348445E+01 -0.12293505053E+01  0.96603540084E+01  0.51100000000E-03 0.  1.
        -12    1    3    3    0    0  0.33929158020E+02 -0.11791777369E+02 -0.22409052382E+02  0.42336738256E+02  0.00000000000E+00 0.  1.
</event>
<event>
 7    1  0.2090370E-015  0.9000778E+02  0.7816164E-02  0.1186339E+00
        -11   -1    0    0    0    0  0.00000000000E+00  0.00000000000E+00  0.45593999997E+02  0.45594000000E+02  0.51100000000E-03 0.  1.
         11   -1    0    0    0    0 -0.00000000000E+00 -0.00000000000E+00 -0.45593999997E+02  0.45594000000E+02  0.51100000000E-03 0. -1.
    9900012    2    1    2    0    0  0.65836066648E+00  0.95834888588E+00  0.20262413263E+00  0.90007776338E+02  0.90000038185E+02 0.  0.
         12    1    1    2    0    0 -0.65836066648E+00 -0.95834888588E+00 -0.20262413263E+00  0.11802236624E+01  0.00000000000E+00 0. -1.
         11    1    3    3    0    0  0.42954710456E+01  0.78006009994E+01  0.41214073179E+01  0.98125657193E+01  0.51100000000E-03 0. -1.
        -11    1    3    3    0    0  0.30107161948E+02  0.31718227705E+01  0.21194886119E+02  0.36955714823E+02  0.51100000000E-03 0.  1.
         12    1    3    3    0    0 -0.33744272327E+02 -0.10014074884E+02 -0.25113669304E+02  0.43239495795E+02  0.00000000000E+00 0. -1.
</event>
<event>
 7    1  0.2090370E-015  0.9000766E+02  0.7816164E-02  0.1186339E+00
        -11   -1    0    0    0    0  0.00000000000E+00  0.00000000000E+00  0.45593999997E+02  0.45594000000E+02  0.51100000000E-03 0. -1.
         11   -1    0    0    0    0 -0.00000000000E+00 -0.00000000000E+00 -0.45593999997E+02  0.45594000000E+02  0.51100000000E-03 0.  1.
    9900012    2    1    2    0    0  0.26367668472E+00 -0.26102088775E+00 -0.11205102293E+01  0.90007660866E+02  0.89999921189E+02 0.  0.
         12    1    1    2    0    0 -0.26367668472E+00  0.26102088775E+00  0.11205102293E+01  0.11803391342E+01  0.00000000000E+00 0. -1.
         11    1    3    3    0    0 -0.25227676128E+02  0.16323733790E+02 -0.17339158764E+02  0.34692165608E+02  0.51100000000E-03 0. -1.
        -11    1    3    3    0    0 -0.33288562884E+01  0.10930420552E+02 -0.18315308182E+01  0.11571943788E+02  0.51100000000E-03 0.  1.
        -12    1    3    3    0    0  0.28820209101E+02 -0.27515175230E+02  0.18050179353E+02  0.43743551470E+02  0.00000000000E+00 0.  1.
</event>
<event>
 7    1  0.2090370E-015  0.9000768E+02  0.7816164E-02  0.1186339E+00
        -11   -1    0    0    0    0  0.00000000000E+00  0.00000000000E+00  0.45593999997E+02  0.45594000000E+02  0.51100000000E-03 0. -1.
         11   -1    0    0    0    0 -0.00000000000E+00 -0.00000000000E+00 -0.45593999997E+02  0.45594000000E+02  0.51100000000E-03 0.  1.
    9900012    2    1    2    0    0 -0.98162218216E+00  0.64387829134E+00  0.12244231943E+00  0.90007680770E+02  0.89999941356E+02 0.  0.
         12    1    1    2    0    0  0.98162218216E+00 -0.64387829134E+00 -0.12244231943E+00  0.11803192298E+01  0.00000000000E+00 0. -1.
         11    1    3    3    0    0  0.44760024097E+01 -0.77107997383E+01 -0.60645259432E+01  0.10782833828E+02  0.51100000000E-03 0. -1.
        -11    1    3    3    0    0 -0.93737052423E+01 -0.29407733886E+02 -0.16498737817E+02  0.34998421565E+02  0.51100000000E-03 0.  1.
         12    1    3    3    0    0  0.39160806505E+01  0.37762411915E+02  0.22685706079E+02  0.44226425377E+02  0.00000000000E+00 0. -1.
</event>
<event>
 7    1  0.2090370E-015  0.9000791E+02  0.7816164E-02  0.1186339E+00
        -11   -1    0    0    0    0  0.00000000000E+00  0.00000000000E+00  0.45593999997E+02  0.45594000000E+02  0.51100000000E-03 0. -1.
         11   -1    0    0    0    0 -0.00000000000E+00 -0.00000000000E+00 -0.45593999997E+02  0.45594000000E+02  0.51100000000E-03 0.  1.
    9900012    2    1    2    0    0  0.51650499947E+00 -0.61571494227E+00 -0.86413146139E+00  0.90007912932E+02  0.90000176583E+02 0.  0.
         12    1    1    2    0    0 -0.51650499947E+00  0.61571494227E+00  0.86413146139E+00  0.11800870676E+01  0.00000000000E+00 0. -1.
         11    1    3    3    0    0  0.16031094680E+01 -0.12444787355E+02  0.35150499180E+02  0.37322919033E+02  0.51100000000E-03 0. -1.
        -11    1    3    3    0    0  0.21075638709E+01 -0.47137780099E+01  0.57031984350E+01  0.76933738533E+01  0.51100000000E-03 0.  1.
        -12    1    3    3    0    0 -0.31941683395E+01  0.16542850423E+02 -0.41717829077E+02  0.44991620046E+02  0.00000000000E+00 0.  1.
</event>
<event>
 7    1  0.2090370E-015  0.9000783E+02  0.7816164E-02  0.1186339E+00
        -11   -1    0    0    0    0  0.00000000000E+00  0.00000000000E+00  0.45593999997E+02  0.45594000000E+02  0.51100000000E-03 0.  1.
         11   -1    0    0    0    0 -0.00000000000E+00 -0.00000000000E+00 -0.45593999997E+02  0.45594000000E+02  0.51100000000E-03 0. -1.
    9900012    2    1    2    0    0  0.10736514623E+01 -0.39848918481E+00  0.28511669158E+00  0.90007825174E+02  0.90000087666E+02 0.  0.
         12    1    1    2    0    0 -0.10736514623E+01  0.39848918481E+00 -0.28511669158E+00  0.11801748263E+01  0.00000000000E+00 0. -1.
         11    1    3    3    0    0  0.93853969094E+01  0.21332375707E+02 -0.29721398190E+02  0.37769265800E+02  0.51100000000E-03 0. -1.
        -11    1    3    3    0    0 -0.48809415734E+01 -0.31812119204E+01 -0.79479261104E+01  0.98546044894E+01  0.51100000000E-03 0.  1.
        -12    1    3    3    0    0 -0.34308038737E+01 -0.18549652972E+02  0.37954440992E+02  0.42383954884E+02  0.00000000000E+00 0.  1.
</event>
<event>
 7    1  0.2090370E-015  0.9000770E+02  0.7816164E-02  0.1186339E+00
        -11   -1    0    0    0    0  0.00000000000E+00  0.00000000000E+00  0.45593999997E+02  0.45594000000E+02  0.51100000000E-03 0.  1.
         11   -1    0    0    0    0 -0.00000000000E+00 -0.00000000000E+00 -0.45593999997E+02  0.45594000000E+02  0.51100000000E-03 0. -1.
    9900012    2    1    2    0    0  0.12136360662E+00  0.93505435652E+00 -0.70996880102E+00  0.90007698567E+02  0.89999959388E+02 0.  0.
         12    1    1    2    0    0 -0.12136360662E+00 -0.93505435652E+00  0.70996880102E+00  0.11803014331E+01  0.00000000000E+00 0. -1.
         11    1    3    3    0    0 -0.22179582099E+01 -0.86308589264E+01  0.24526169495E+01  0.92426400227E+01  0.51100000000E-03 0. -1.
        -11    1    3    3    0    0  0.18742012143E+02  0.18573884453E+02  0.31671260011E+02  0.41222820304E+02  0.51100000000E-03 0.  1.
         12    1    3    3    0    0 -0.16402690327E+02 -0.90079711704E+01 -0.34833845761E+02  0.39542238241E+02  0.00000000000E+00 0. -1.
</event>
<event>
 7    1  0.2556086E-015  0.9000760E+02  0.7816164E-02  0.1186339E+00
        -11   -1    0    0    0    0  0.00000000000E+00  0.00000000000E+00  0.45593999997E+02  0.45594000000E+02  0.51100000000E-03 0. -1.
         11   -1    0    0    0    0 -0.00000000000E+00 -0.00000000000E+00 -0.45593999997E+02  0.45594000000E+02  0.51100000000E-03 0.  1.
    9900012    2    1    2    0    0  0.11020207961E+01 -0.72660487286E-02 -0.42288631879E+00  0.90007603681E+02  0.89999863250E+02 0.  0.
         12    1    1    2    0    0 -0.11020207961E+01  0.72660487286E-02  0.42288631879E+00  0.11803963186E+01  0.00000000000E+00 0. -1.
         11    1    3    3    0    0 -0.16012558472E+02  0.36529009346E+00  0.32279324138E+02  0.36034569968E+02  0.51100000000E-03 0. -1.
        -11    1    3    3    0    0 -0.46517039117E+00  0.67161524904E+01  0.71634348901E+01  0.98304571335E+01  0.51100000000E-03 0.  1.
        -12    1    3    3    0    0  0.17579749659E+02 -0.70887086325E+01 -0.39865645347E+02  0.44142576580E+02  0.00000000000E+00 0.  1.
</event>
<event>
 7    1  0.2090370E-015  0.9000729E+02  0.7816164E-02  0.1186340E+00
        -11   -1    0    0    0    0  0.00000000000E+00  0.00000000000E+00  0.45593999997E+02  0.45594000000E+02  0.51100000000E-03 0. -1.
         11   -1    0    0    0    0 -0.00000000000E+00 -0.00000000000E+00 -0.45593999997E+02  0.45594000000E+02  0.51100000000E-03 0.  1.
    9900012    2    1    2    0    0 -0.88980509883E+00 -0.77283505893E+00 -0.71007032048E-01  0.90007292949E+02  0.89999548415E+02 0.  0.
         12    1    1    2    0    0  0.88980509883E+00  0.77283505893E+00  0.71007032048E-01  0.11807070512E+01  0.00000000000E+00 0. -1.
         11    1    3    3    0    0  0.80967871677E+01  0.14590964360E+02  0.38670714147E+02  0.42117435063E+02  0.51100000000E-03 0. -1.
        -11    1    3    3    0    0  0.90179748341E+00  0.51311596097E+01 -0.95273383565E+01  0.10858739064E+02  0.51100000000E-03 0.  1.
        -12    1    3    3    0    0 -0.98883897500E+01 -0.20494959029E+02 -0.29214382823E+02  0.37031118821E+02  0.00000000000E+00 0.  1.
</event>
<event>
 7    1  0.2090370E-015  0.9000765E+02  0.7816164E-02  0.1186339E+00
        -11   -1    0    0    0    0  0.00000000000E+00  0.00000000000E+00  0.45593999997E+02  0.45594000000E+02  0.51100000000E-03 0. -1.
         11   -1    0    0    0    0 -0.00000000000E+00 -0.00000000000E+00 -0.45593999997E+02  0.45594000000E+02  0.51100000000E-03 0.  1.
    9900012    2    1    2    0    0  0.46800069493E+00 -0.61927152622E+00 -0.88921781309E+00  0.90007648276E+02  0.89999908433E+02 0.  0.
         12    1    1    2    0    0 -0.46800069493E+00  0.61927152622E+00  0.88921781309E+00  0.11803517242E+01  0.00000000000E+00 0. -1.
         11    1    3    3    0    0 -0.23267027488E+02  0.24459861118E+02 -0.31875788818E+01  0.33908701441E+02  0.51100000000E-03 0. -1.
        -11    1    3    3    0    0 -0.70149288546E+01  0.72693918162E+01  0.52212432098E+01  0.11371660614E+02  0.51100000000E-03 0.  1.
        -12    1    3    3    0    0  0.30749957038E+02 -0.32348524461E+02 -0.29228821410E+01  0.44727286220E+02  0.00000000000E+00 0.  1.
</event>
<event>
 7    1  0.2090370E-015  0.9000766E+02  0.7816164E-02  0.1186339E+00
        -11   -1    0    0    0    0  0.00000000000E+00  0.00000000000E+00  0.45593999997E+02  0.45594000000E+02  0.51100000000E-03 0.  1.
         11   -1    0    0    0    0 -0.00000000000E+00 -0.00000000000E+00 -0.45593999997E+02  0.45594000000E+02  0.51100000000E-03 0. -1.
    9900012    2    1    2    0    0  0.17159632479E+00 -0.29127700818E+00  0.11308869425E+01  0.90007664086E+02  0.89999924451E+02 0.  0.
         12    1    1    2    0    0 -0.17159632479E+00  0.29127700818E+00 -0.11308869425E+01  0.11803359145E+01  0.00000000000E+00 0. -1.
         11    1    3    3    0    0 -0.12902720011E+02  0.10119709586E+01 -0.61465621235E+01  0.14327752618E+02  0.51100000000E-03 0. -1.
        -11    1    3    3    0    0  0.18916773838E+02 -0.18322076537E+02  0.34282019774E+02  0.43229616019E+02  0.51100000000E-03 0.  1.
         12    1    3    3    0    0 -0.58424575025E+01  0.17018828570E+02 -0.27004570708E+02  0.32450295449E+02  0.00000000000E+00 0. -1.
</event>
<event>
 7    1  0.2090370E-015  0.9000769E+02  0.7816164E-02  0.1186339E+00
        -11   -1    0    0    0    0  0.00000000000E+00  0.00000000000E+00  0.45593999997E+02  0.45594000000E+02  0.51100000000E-03 0.  1.
         11   -1    0    0    0    0 -0.00000000000E+00 -0.00000000000E+00 -0.45593999997E+02  0.45594000000E+02  0.51100000000E-03 0. -1.
    9900012    2    1    2    0    0  0.17643583688E+00  0.14066393140E+00  0.11585418959E+01  0.90007688486E+02  0.89999949174E+02 0.  0.
         12    1    1    2    0    0 -0.17643583688E+00 -0.14066393140E+00 -0.11585418959E+01  0.11803115143E+01  0.00000000000E+00 0. -1.
         11    1    3    3    0    0 -0.12177506987E+02  0.97933109397E+00  0.31437320776E+01  0.12614825304E+02  0.51100000000E-03 0. -1.
        -11    1    3    3    0    0  0.24066047438E+02 -0.14763707088E+01  0.32785559555E+02  0.40697017401E+02  0.51100000000E-03 0.  1.
         12    1    3    3    0    0 -0.11712104614E+02  0.63770354621E+00 -0.34770749737E+02  0.36695845780E+02  0.00000000000E+00 0. -1.
</event>
<event>
 7    1  0.2090370E-015  0.9000775E+02  0.7816164E-02  0.1186339E+00
        -11   -1    0    0    0    0  0.00000000000E+00  0.00000000000E+00  0.45593999997E+02  0.45594000000E+02  0.51100000000E-03 0. -1.
         11   -1    0    0    0    0 -0.00000000000E+00 -0.00000000000E+00 -0.45593999997E+02  0.45594000000E+02  0.51100000000E-03 0.  1.
    9900012    2    1    2    0    0 -0.55543573629E+00 -0.10060363793E+01  0.26901912238E+00  0.90007750305E+02  0.90000011809E+02 0.  0.
         12    1    1    2    0    0  0.55543573629E+00  0.10060363793E+01 -0.26901912238E+00  0.11802496947E+01  0.00000000000E+00 0. -1.
         11    1    3    3    0    0 -0.10420150581E+02  0.54367707005E+01  0.34169146709E+01  0.12239825159E+02  0.51100000000E-03 0. -1.
        -11    1    3    3    0    0  0.24432412175E+02 -0.70487876057E+01 -0.34694123576E+02  0.43015234306E+02  0.51100000000E-03 0.  1.
         12    1    3    3    0    0 -0.14567697330E+02  0.60598052587E+00  0.31546228028E+02  0.34752690841E+02  0.00000000000E+00 0. -1.
</event>
<event>
 7    1  0.2090370E-015  0.9000758E+02  0.7816164E-02  0.1186339E+00
        -11   -1    0    0    0    0  0.00000000000E+00  0.00000000000E+00  0.45593999997E+02  0.45594000000E+02  0.51100000000E-03 0. -1.
         11   -1    0    0    0    0 -0.00000000000E+00 -0.00000000000E+00 -0.45593999997E+02  0.45594000000E+02  0.51100000000E-03 0.  1.
    9900012    2    1    2    0    0  0.10406622864E+01 -0.53702359077E+00 -0.14836986848E+00  0.90007582299E+02  0.89999841585E+02 0.  0.
         12    1    1    2    0    0 -0.10406622864E+01  0.53702359077E+00  0.14836986848E+00  0.11804177012E+01  0.00000000000E+00 0. -1.
         11    1    3    3    0    0 -0.33960406206E+00  0.67277200342E+01  0.21079750191E+01  0.70584068117E+01  0.51100000000E-03 0. -1.
        -11    1    3    3    0    0  0.17105665851E+02  0.14674047564E+02 -0.34306273944E+02  0.41046947612E+02  0.51100000000E-03 0.  1.
         12    1    3    3    0    0 -0.15725399503E+02 -0.21938791189E+02  0.32049929056E+02  0.41902227875E+02  0.00000000000E+00 0. -1.
</event>
<event>
 7    1  0.2090370E-015  0.9000735E+02  0.7816164E-02  0.1186340E+00
        -11   -1    0    0    0    0  0.00000000000E+00  0.00000000000E+00  0.45593999997E+02  0.45594000000E+02  0.51100000000E-03 0.  1.
         11   -1    0    0    0    0 -0.00000000000E+00 -0.00000000000E+00 -0.45593999997E+02  0.45594000000E+02  0.51100000000E-03 0. -1.
    9900012    2    1    2    0    0 -0.66012505757E+00 -0.17482722713E+00  0.96312530839E+00  0.90007347633E+02  0.89999603821E+02 0.  0.
         12    1    1    2    0    0  0.66012505757E+00  0.17482722713E+00 -0.96312530839E+00  0.11806523666E+01  0.00000000000E+00 0. -1.
         11    1    3    3    0    0 -0.10801142314E+02  0.21982252508E+01 -0.12327858803E+01  0.11091286257E+02  0.51100000000E-03 0. -1.
        -11    1    3    3    0    0  0.19098112423E+02  0.21839942258E+02  0.29474531188E+02  0.41357816250E+02  0.51100000000E-03 0.  1.
         12    1    3    3    0    0 -0.89570951662E+01 -0.24212994736E+02 -0.27278619999E+02  0.37558245126E+02  0.00000000000E+00 0. -1.
</event>
<event>
 7    1  0.2090370E-015  0.9000773E+02  0.7816164E-02  0.1186339E+00
        -11   -1    0    0    0    0  0.00000000000E+00  0.00000000000E+00  0.45593999997E+02  0.45594000000E+02  0.51100000000E-03 0. -1.
         11   -1    0    0    0    0 -0.00000000000E+00 -0.00000000000E+00 -0.45593999997E+02  0.45594000000E+02  0.51100000000E-03 0.  1.
    9900012    2    1    2    0    0  0.17027061836E+00 -0.14936543340E+00 -0.11583321657E+01  0.90007730742E+02  0.89999991987E+02 0.  0.
         12    1    1    2    0    0 -0.17027061836E+00  0.14936543340E+00  0.11583321657E+01  0.11802692583E+01  0.00000000000E+00 0. -1.
         11    1    3    3    0    0 -0.42755661744E+01  0.34171040750E+01  0.67987589126E+01  0.87281263387E+01  0.51100000000E-03 0. -1.
        -11    1    3    3    0    0 -0.68291618706E+01  0.28891267443E+02 -0.28577320470E+02  0.41206868746E+02  0.51100000000E-03 0.  1.
         12    1    3    3    0    0  0.11274998663E+02 -0.32457736952E+02  0.20620229392E+02  0.40072735657E+02  0.00000000000E+00 0. -1.
</event>
<event>
 7    1  0.2090370E-015  0.9000771E+02  0.7816164E-02  0.1186339E+00
        -11   -1    0    0    0    0  0.00000000000E+00  0.00000000000E+00  0.45593999997E+02  0.45594000000E+02  0.51100000000E-03 0.  1.
         11   -1    0    0    0    0 -0.00000000000E+00 -0.00000000000E+00 -0.45593999997E+02  0.45594000000E+02  0.51100000000E-03 0. -1.
    9900012    2    1    2    0    0  0.27943299590E-01 -0.17990435910E+00  0.11661598187E+01  0.90007713963E+02  0.89999974987E+02 0.  0.
         12    1    1    2    0    0 -0.27943299590E-01  0.17990435910E+00 -0.11661598187E+01  0.11802860371E+01  0.00000000000E+00 0. -1.
         11    1    3    3    0    0  0.73667343508E+01  0.17942529740E+01 -0.43493831001E+01  0.87410098011E+01  0.51100000000E-03 0. -1.
        -11    1    3    3    0    0  0.76513766365E+01  0.31600226947E+02 -0.18443978345E+02  0.37380452712E+02  0.51100000000E-03 0.  1.
         12    1    3    3    0    0 -0.14990167688E+02 -0.33574384280E+02  0.23959521263E+02  0.43886251449E+02  0.00000000000E+00 0. -1.
</event>
<event>
 7    1  0.2090370E-015  0.9000773E+02  0.7816164E-02  0.1186339E+00
        -11   -1    0    0    0    0  0.00000000000E+00  0.00000000000E+00  0.45593999997E+02  0.45594000000E+02  0.51100000000E-03 0. -1.
         11   -1    0    0    0    0 -0.00000000000E+00 -0.00000000000E+00 -0.45593999997E+02  0.45594000000E+02  0.51100000000E-03 0.  1.
    9900012    2    1    2    0    0 -0.97185369856E+00  0.13459276451E-02 -0.66972174044E+00  0.90007733660E+02  0.89999994945E+02 0.  0.
         12    1    1    2    0    0  0.97185369856E+00 -0.13459276451E-02  0.66972174044E+00  0.11802663397E+01  0.00000000000E+00 0. -1.
         11    1    3    3    0    0 -0.52125625515E+01 -0.29393388462E+01 -0.77670876267E+01  0.98050074792E+01  0.51100000000E-03 0. -1.
        -11    1    3    3    0    0  0.23133429436E+02  0.82709665953E+01 -0.29671262615E+02  0.38522049157E+02  0.51100000000E-03 0.  1.
         12    1    3    3    0    0 -0.18892720583E+02 -0.53302818214E+01  0.36768628501E+02  0.41680677024E+02  0.00000000000E+00 0. -1.
</event>
<event>
 7    1  0.2090370E-015  0.9000769E+02  0.7816164E-02  0.1186339E+00
        -11   -1    0    0    0    0  0.00000000000E+00  0.00000000000E+00  0.45593999997E+02  0.45594000000E+02  0.51100000000E-03 0.  1.
         11   -1    0    0    0    0 -0.00000000000E+00 -0.00000000000E+00 -0.45593999997E+02  0.45594000000E+02  0.51100000000E-03 0. -1.
    9900012    2    1    2    0    0  0.53498201529E+00 -0.10309907814E+01  0.20969991296E+00  0.90007694192E+02  0.89999954955E+02 0.  0.
         12    1    1    2    0    0 -0.53498201529E+00  0.10309907814E+01 -0.20969991296E+00  0.11803058085E+01  0.00000000000E+00 0. -1.
         11    1    3    3    0    0  0.36771719485E+02  0.37220361010E+01  0.49213163290E+01  0.37285818501E+02  0.51100000000E-03 0. -1.
        -11    1    3    3    0    0  0.64559980887E+01 -0.71267545894E+01  0.59833114590E+00  0.96347570141E+01  0.51100000000E-03 0.  1.
        -12    1    3    3    0    0 -0.42692735559E+02  0.23737277070E+01 -0.53099475619E+01  0.43087118676E+02  0.00000000000E+00 0.  1.
</event>
<event>
 7    1  0.2090370E-015  0.9000779E+02  0.7816164E-02  0.1186339E+00
        -11   -1    0    0    0    0  0.00000000000E+00  0.00000000000E+00  0.45593999997E+02  0.45594000000E+02  0.51100000000E-03 0.  1.
         11   -1    0    0    0    0 -0.00000000000E+00 -0.00000000000E+00 -0.45593999997E+02  0.45594000000E+02  0.51100000000E-03 0. -1.
    9900012    2    1    2    0    0 -0.42117484463E+00  0.65769760026E+00  0.88484096728E+00  0.90007789036E+02  0.90000051051E+02 0.  0.
         12    1    1    2    0    0  0.42117484463E+00 -0.65769760026E+00 -0.88484096728E+00  0.11802109644E+01  0.00000000000E+00 0. -1.
         11    1    3    3    0    0  0.67244623109E+01  0.44025492215E+01 -0.36290113448E+01  0.88187616262E+01  0.51100000000E-03 0. -1.
        -11    1    3    3    0    0  0.52568496955E+01 -0.21589798927E+02  0.36373333624E+02  0.42623623562E+02  0.51100000000E-03 0.  1.
         12    1    3    3    0    0 -0.12402486851E+02  0.17844947305E+02 -0.31859481312E+02  0.38565403847E+02  0.00000000000E+00 0. -1.
</event>
<event>
 7    1  0.2090370E-015  0.9000770E+02  0.7816164E-02  0.1186339E+00
        -11   -1    0    0    0    0  0.00000000000E+00  0.00000000000E+00  0.45593999997E+02  0.45594000000E+02  0.51100000000E-03 0. -1.
         11   -1    0    0    0    0 -0.00000000000E+00 -0.00000000000E+00 -0.45593999997E+02  0.45594000000E+02  0.51100000000E-03 0.  1.
    9900012    2    1    2    0    0  0.11670708145E+01 -0.15406151008E+00  0.85487232273E-01  0.90007704570E+02  0.89999965470E+02 0.  0.
         12    1    1    2    0    0 -0.11670708145E+01  0.15406151008E+00 -0.85487232273E-01  0.11802954299E+01  0.00000000000E+00 0. -1.
         11    1    3    3    0    0 -0.27674703589E+02 -0.34502901955E+02 -0.31917526384E+01  0.44345538075E+02  0.51100000000E-03 0. -1.
        -11    1    3    3    0    0  0.59695422337E+01  0.94737532064E+01 -0.22486174902E+01  0.11421195873E+02  0.51100000000E-03 0.  1.
        -12    1    3    3    0    0  0.22872232169E+02  0.24875087238E+02  0.55258573609E+01  0.34240970622E+02  0.00000000000E+00 0.  1.
</event>
<event>
 7    1  0.2090370E-015  0.9000772E+02  0.7816164E-02  0.1186339E+00
        -11   -1    0    0    0    0  0.00000000000E+00  0.00000000000E+00  0.45593999997E+02  0.45594000000E+02  0.51100000000E-03 0.  1.
         11   -1    0    0    0    0 -0.00000000000E+00 -0.00000000000E+00 -0.45593999997E+02  0.45594000000E+02  0.51100000000E-03 0. -1.
    9900012    2    1    2    0    0 -0.67870136483E+00 -0.40689799700E+00  0.87570097365E+00  0.90007723033E+02  0.89999984177E+02 0.  0.
         12    1    1    2    0    0  0.67870136483E+00  0.40689799700E+00 -0.87570097365E+00  0.11802769666E+01  0.00000000000E+00 0. -1.
         11    1    3    3    0    0  0.36061994074E+02 -0.25215546064E+01 -0.21624396354E+02  0.42124104408E+02  0.51100000000E-03 0. -1.
        -11    1    3    3    0    0 -0.61178780431E+01  0.69476049034E+01 -0.51654339622E+00  0.92717022701E+01  0.51100000000E-03 0.  1.
        -12    1    3    3    0    0 -0.30622817395E+02 -0.48329482940E+01  0.23016640724E+02  0.38611916356E+02  0.00000000000E+00 0.  1.
</event>
<event>
 7    1  0.2090370E-015  0.9000782E+02  0.7816164E-02  0.1186339E+00
        -11   -1    0    0    0    0  0.00000000000E+00  0.00000000000E+00  0.45593999997E+02  0.45594000000E+02  0.51100000000E-03 0.  1.
         11   -1    0    0    0    0 -0.00000000000E+00 -0.00000000000E+00 -0.45593999997E+02  0.45594000000E+02  0.51100000000E-03 0. -1.
    9900012    2    1    2    0    0 -0.97487132477E+00  0.26785845152E+00 -0.60884871252E+00  0.90007822469E+02  0.90000084926E+02 0.  0.
         12    1    1    2    0    0  0.97487132477E+00 -0.26785845152E+00  0.60884871252E+00  0.11801775310E+01  0.00000000000E+00 0. -1.
         11    1    3    3    0    0 -0.23644680288E+02 -0.56926484374E+00 -0.60544814063E+01  0.24414170348E+02  0.51100000000E-03 0. -1.
        -11    1    3    3    0    0  0.19758353870E+02 -0.28987869113E+02  0.61624347001E+01  0.35618319796E+02  0.51100000000E-03 0.  1.
         12    1    3    3    0    0  0.29114550938E+01  0.29824992409E+02 -0.71680200623E+00  0.29975332326E+02  0.00000000000E+00 0. -1.
</event>
<event>
 7    1  0.2090370E-015  0.9000775E+02  0.7816164E-02  0.1186339E+00
        -11   -1    0    0    0    0  0.00000000000E+00  0.00000000000E+00  0.45593999997E+02  0.45594000000E+02  0.51100000000E-03 0. -1.
         11   -1    0    0    0    0 -0.00000000000E+00 -0.00000000000E+00 -0.45593999997E+02  0.45594000000E+02  0.51100000000E-03 0.  1.
    9900012    2    1    2    0    0  0.51947115820E+00  0.66685149299E-01 -0.10576854593E+01  0.90007747601E+02  0.90000009070E+02 0.  0.
         12    1    1    2    0    0 -0.51947115820E+00 -0.66685149299E-01  0.10576854593E+01  0.11802523985E+01  0.00000000000E+00 0. -1.
         11    1    3    3    0    0 -0.27977530863E+02  0.23346518227E+02  0.13244489351E+02  0.38771363723E+02  0.51100000000E-03 0. -1.
        -11    1    3    3    0    0  0.45870940102E+01  0.33994956616E+01  0.74027654361E+01  0.93487399459E+01  0.51100000000E-03 0.  1.
        -12    1    3    3    0    0  0.23909908011E+02 -0.26679328740E+02 -0.21704940247E+02  0.41887643932E+02  0.00000000000E+00 0.  1.
</event>
<event>
 7    1  0.2495198E-015  0.9000765E+02  0.7816164E-02  0.1186339E+00
        -11   -1    0    0    0    0  0.00000000000E+00  0.00000000000E+00  0.45593999997E+02  0.45594000000E+02  0.51100000000E-03 0. -1.
         11   -1    0    0    0    0 -0.00000000000E+00 -0.00000000000E+00 -0.45593999997E+02  0.45594000000E+02  0.51100000000E-03 0.  1.
    9900012    2    1    2    0    0 -0.49800819568E+00 -0.86825188750E+00 -0.62558525649E+00  0.90007648181E+02  0.89999908337E+02 0.  0.
         12    1    1    2    0    0  0.49800819568E+00  0.86825188750E+00  0.62558525649E+00  0.11803518188E+01  0.00000000000E+00 0. -1.
         11    1    3    3    0    0  0.15877851453E+02 -0.30918500069E+02  0.14880499426E+02  0.37808584695E+02  0.51100000000E-03 0. -1.
        -11    1    3    3    0    0  0.12906372765E+01 -0.73823305736E+01 -0.63118317067E+01  0.97981513069E+01  0.51100000000E-03 0.  1.
        -12    1    3    3    0    0 -0.17666496925E+02  0.37432578755E+02 -0.91942529758E+01  0.42400912179E+02  0.00000000000E+00 0.  1.
</event>
<event>
 7    1  0.2090370E-015  0.9000763E+02  0.7816164E-02  0.1186339E+00
        -11   -1    0    0    0    0  0.00000000000E+00  0.00000000000E+00  0.45593999997E+02  0.45594000000E+02  0.51100000000E-03 0. -1.
         11   -1    0    0    0    0 -0.00000000000E+00 -0.00000000000E+00 -0.45593999997E+02  0.45594000000E+02  0.51100000000E-03 0.  1.
    9900012    2    1    2    0    0  0.35558839686E+00 -0.36700065167E+00 -0.10640234631E+01  0.90007627806E+02  0.89999887693E+02 0.  0.
         12    1    1    2    0    0 -0.35558839686E+00  0.36700065167E+00  0.10640234631E+01  0.11803721940E+01  0.00000000000E+00 0. -1.
         11    1    3    3    0    0  0.22756794517E+01  0.90628439264E+00  0.10224829681E+02  0.10514143362E+02  0.51100000000E-03 0. -1.
        -11    1    3    3    0    0  0.73966176058E+01  0.36585621714E+02  0.41577439372E+01  0.37556683868E+02  0.51100000000E-03 0.  1.
         12    1    3    3    0    0 -0.93167086607E+01 -0.37858906759E+02 -0.15446597081E+02  0.41936800577E+02  0.00000000000E+00 0. -1.
</event>
<event>
 7    1  0.2465879E-015  0.9000770E+02  0.7816164E-02  0.1186339E+00
        -11   -1    0    0    0    0  0.00000000000E+00  0.00000000000E+00  0.45593999997E+02  0.45594000000E+02  0.51100000000E-03 0.  1.
         11   -1    0    0    0    0 -0.00000000000E+00 -0.00000000000E+00 -0.45593999997E+02  0.45594000000E+02  0.51100000000E-03 0. -1.
    9900012    2    1    2    0    0  0.98165937748E+00 -0.15646765653E-01  0.65514675467E+00  0.90007696130E+02  0.89999956919E+02 0.  0.
         12    1    1    2    0    0 -0.98165937748E+00  0.15646765653E-01 -0.65514675467E+00  0.11803038697E+01  0.00000000000E+00 0. -1.
         11    1    3    3    0    0 -0.23696208561E+02  0.81818279209E+01 -0.30064173986E+02  0.39144695247E+02  0.51100000000E-03 0. -1.
        -11    1    3    3    0    0  0.33483084361E+00 -0.92664006853E+01 -0.25577344026E+01  0.96187472619E+01  0.51100000000E-03 0.  1.
        -12    1    3    3    0    0  0.24343037095E+02  0.10689259987E+01  0.33277055143E+02  0.41244253621E+02  0.00000000000E+00 0.  1.
</event>
<event>
 7    1  0.2090370E-015  0.9000773E+02  0.7816164E-02  0.1186339E+00
        -11   -1    0    0    0    0  0.00000000000E+00  0.00000000000E+00  0.45593999997E+02  0.45594000000E+02  0.51100000000E-03 0. -1.
         11   -1    0    0    0    0 -0.00000000000E+00 -0.00000000000E+00 -0.45593999997E+02  0.45594000000E+02  0.51100000000E-03 0.  1.
    9900012    2    1    2    0    0  0.81137281346E-01  0.31698812760E+00 -0.11340078022E+01  0.90007729511E+02  0.89999990741E+02 0.  0.
         12    1    1    2    0    0 -0.81137281346E-01 -0.31698812760E+00  0.11340078022E+01  0.11802704889E+01  0.00000000000E+00 0. -1.
         11    1    3    3    0    0 -0.73826050207E+01  0.18760446861E+01  0.41641772940E+01  0.86811735009E+01  0.51100000000E-03 0. -1.
        -11    1    3    3    0    0  0.22846145056E+02  0.31793168249E+02  0.11691485142E+02  0.40858814426E+02  0.51100000000E-03 0.  1.
         12    1    3    3    0    0 -0.15382402754E+02 -0.33352224807E+02 -0.16989670238E+02  0.40467741584E+02  0.00000000000E+00 0. -1.
</event>
<event>
 7    1  0.2090370E-015  0.9000761E+02  0.7816164E-02  0.1186339E+00
        -11   -1    0    0    0    0  0.00000000000E+00  0.00000000000E+00  0.45593999997E+02  0.45594000000E+02  0.51100000000E-03 0. -1.
         11   -1    0    0    0    0 -0.00000000000E+00 -0.00000000000E+00 -0.45593999997E+02  0.45594000000E+02  0.51100000000E-03 0.  1.
    9900012    2    1    2    0    0  0.67390924531E+00  0.73025271575E+00  0.63710237087E+00  0.90007609331E+02  0.89999868974E+02 0.  0.
         12    1    1    2    0    0 -0.67390924531E+00 -0.73025271575E+00 -0.63710237087E+00  0.11803906687E+01  0.00000000000E+00 0. -1.
         11    1    3    3    0    0 -0.19083364011E+01 -0.44983068294E+01 -0.72698268652E+01  0.87593889663E+01  0.51100000000E-03 0. -1.
        -11    1    3    3    0    0 -0.20924181684E+02 -0.15772256175E+01 -0.29709216918E+02  0.36372332753E+02  0.51100000000E-03 0.  1.
         12    1    3    3    0    0  0.23506427330E+02  0.68057851626E+01  0.37616146154E+02  0.44875887612E+02  0.00000000000E+00 0. -1.
</event>
<event>
 7    1  0.2090370E-015  0.9000778E+02  0.7816164E-02  0.1186339E+00
        -11   -1    0    0    0    0  0.00000000000E+00  0.00000000000E+00  0.45593999997E+02  0.45594000000E+02  0.51100000000E-03 0. -1.
         11   -1    0    0    0    0 -0.00000000000E+00 -0.00000000000E+00 -0.45593999997E+02  0.45594000000E+02  0.51100000000E-03 0.  1.
    9900012    2    1    2    0    0 -0.39733806589E+00  0.72699458609E+00 -0.84055444888E+00  0.90007775255E+02  0.90000037089E+02 0.  0.
         12    1    1    2    0    0  0.39733806589E+00 -0.72699458609E+00  0.84055444888E+00  0.11802247448E+01  0.00000000000E+00 0. -1.
         11    1    3    3    0    0 -0.29474523038E+00  0.12175595592E+02 -0.38186780563E+01  0.12763788824E+02  0.51100000000E-03 0. -1.
        -11    1    3    3    0    0  0.19837598654E+02  0.37738806571E+01 -0.29781624186E+02  0.35982184967E+02  0.51100000000E-03 0.  1.
         12    1    3    3    0    0 -0.19940191489E+02 -0.15222481663E+02  0.32759747794E+02  0.41261801465E+02  0.00000000000E+00 0. -1.
</event>
<event>
 7    1  0.2090370E-015  0.9000772E+02  0.7816164E-02  0.1186339E+00
        -11   -1    0    0    0    0  0.00000000000E+00  0.00000000000E+00  0.45593999997E+02  0.45594000000E+02  0.51100000000E-03 0. -1.
         11   -1    0    0    0    0 -0.00000000000E+00 -0.00000000000E+00 -0.45593999997E+02  0.45594000000E+02  0.51100000000E-03 0.  1.
    9900012    2    1    2    0    0  0.81746900921E+00  0.66063622519E+00 -0.53699906759E+00  0.90007718762E+02  0.89999979849E+02 0.  0.
         12    1    1    2    0    0 -0.81746900921E+00 -0.66063622519E+00  0.53699906759E+00  0.11802812384E+01  0.00000000000E+00 0. -1.
         11    1    3    3    0    0 -0.71840319902E+01  0.65247681275E+01 -0.20295885308E+01  0.99147438000E+01  0.51100000000E-03 0. -1.
        -11    1    3    3    0    0  0.11127274632E+02  0.22862802715E+02 -0.28670940827E+02  0.38321623620E+02  0.51100000000E-03 0.  1.
         12    1    3    3    0    0 -0.31257736327E+01 -0.28726934617E+02  0.30163530290E+02  0.41771351341E+02  0.00000000000E+00 0. -1.
</event>
<event>
 7    1  0.2090370E-015  0.9000781E+02  0.7816164E-02  0.1186339E+00
        -11   -1    0    0    0    0  0.00000000000E+00  0.00000000000E+00  0.45593999997E+02  0.45594000000E+02  0.51100000000E-03 0. -1.
         11   -1    0    0    0    0 -0.00000000000E+00 -0.00000000000E+00 -0.45593999997E+02  0.45594000000E+02  0.51100000000E-03 0.  1.
    9900012    2    1    2    0    0  0.55164088530E+00  0.10323156989E+01 -0.15121982364E+00  0.90007808997E+02  0.90000071276E+02 0.  0.
         12    1    1    2    0    0 -0.55164088530E+00 -0.10323156989E+01  0.15121982364E+00  0.11801910030E+01  0.00000000000E+00 0. -1.
         11    1    3    3    0    0 -0.13130569710E+02  0.40368948126E+02 -0.45701669758E+01  0.42696021596E+02  0.51100000000E-03 0. -1.
        -11    1    3    3    0    0 -0.51903406119E+00 -0.33514826034E+01  0.77730191672E+01  0.84806638439E+01  0.51100000000E-03 0.  1.
        -12    1    3    3    0    0  0.14201244656E+02 -0.35985149824E+02 -0.33540720151E+01  0.38831123557E+02  0.00000000000E+00 0.  1.
</event>
<event>
 7    1  0.2090370E-015  0.9000777E+02  0.7816164E-02  0.1186339E+00
        -11   -1    0    0    0    0  0.00000000000E+00  0.00000000000E+00  0.45593999997E+02  0.45594000000E+02  0.51100000000E-03 0.  1.
         11   -1    0    0    0    0 -0.00000000000E+00 -0.00000000000E+00 -0.45593999997E+02  0.45594000000E+02  0.51100000000E-03 0. -1.
    9900012    2    1    2    0    0 -0.10055182005E+01 -0.18794527570E+00  0.58868446867E+00  0.90007771343E+02  0.90000033125E+02 0.  0.
         12    1    1    2    0    0  0.10055182005E+01  0.18794527570E+00 -0.58868446867E+00  0.11802286566E+01  0.00000000000E+00 0. -1.
         11    1    3    3    0    0  0.73396008405E+01 -0.91843585048E+01  0.20497618191E+01  0.11934140330E+02  0.51100000000E-03 0. -1.
        -11    1    3    3    0    0 -0.38616707903E+02  0.32313740638E+01  0.16818748453E+02  0.42244078962E+02  0.51100000000E-03 0.  1.
         12    1    3    3    0    0  0.30271588862E+02  0.57650391653E+01 -0.18279825803E+02  0.35829552051E+02  0.00000000000E+00 0. -1.
</event>
<event>
 7    1  0.2090370E-015  0.9000765E+02  0.7816164E-02  0.1186339E+00
        -11   -1    0    0    0    0  0.00000000000E+00  0.00000000000E+00  0.45593999997E+02  0.45594000000E+02  0.51100000000E-03 0. -1.
         11   -1    0    0    0    0 -0.00000000000E+00 -0.00000000000E+00 -0.45593999997E+02  0.45594000000E+02  0.51100000000E-03 0.  1.
    9900012    2    1    2    0    0  0.69042066851E+00  0.58249347697E+00  0.75976414832E+00  0.90007652207E+02  0.89999912417E+02 0.  0.
         12    1    1    2    0    0 -0.69042066851E+00 -0.58249347697E+00 -0.75976414832E+00  0.11803477925E+01  0.00000000000E+00 0. -1.
         11    1    3    3    0    0  0.13456627303E+02 -0.79550442867E+01  0.35110112835E+02  0.38432844957E+02  0.51100000000E-03 0. -1.
        -11    1    3    3    0    0 -0.13223055538E+01  0.57466149968E+01  0.66663942574E+01  0.89001622769E+01  0.51100000000E-03 0.  1.
        -12    1    3    3    0    0 -0.11443901081E+02  0.27909227668E+01 -0.41016742944E+02  0.42674644973E+02  0.00000000000E+00 0.  1.
</event>
<event>
 7    1  0.2090370E-015  0.9000774E+02  0.7816164E-02  0.1186339E+00
        -11   -1    0    0    0    0  0.00000000000E+00  0.00000000000E+00  0.45593999997E+02  0.45594000000E+02  0.51100000000E-03 0.  1.
         11   -1    0    0    0    0 -0.00000000000E+00 -0.00000000000E+00 -0.45593999997E+02  0.45594000000E+02  0.51100000000E-03 0. -1.
    9900012    2    1    2    0    0 -0.10062203790E+01  0.39466256560E+00 -0.47411596722E+00  0.90007735647E+02  0.89999996958E+02 0.  0.
         12    1    1    2    0    0  0.10062203790E+01 -0.39466256560E+00  0.47411596722E+00  0.11802643526E+01  0.00000000000E+00 0. -1.
         11    1    3    3    0    0 -0.12559193311E+02 -0.30182537174E+02  0.30890846136E+01  0.32836889787E+02  0.51100000000E-03 0. -1.
        -11    1    3    3    0    0 -0.11820785301E+02 -0.62528239517E+01  0.32817313586E+00  0.13376713736E+02  0.51100000000E-03 0.  1.
        -12    1    3    3    0    0  0.23373758233E+02  0.36830023692E+02 -0.38913737166E+01  0.43794132124E+02  0.00000000000E+00 0.  1.
</event>
<event>
 7    1  0.2090370E-015  0.9000780E+02  0.7816164E-02  0.1186339E+00
        -11   -1    0    0    0    0  0.00000000000E+00  0.00000000000E+00  0.45593999997E+02  0.45594000000E+02  0.51100000000E-03 0.  1.
         11   -1    0    0    0    0 -0.00000000000E+00 -0.00000000000E+00 -0.45593999997E+02  0.45594000000E+02  0.51100000000E-03 0. -1.
    9900012    2    1    2    0    0 -0.47837167131E+00 -0.41835082085E+00  0.99449411123E+00  0.90007798575E+02  0.90000060717E+02 0.  0.
         12    1    1    2    0    0  0.47837167131E+00  0.41835082085E+00 -0.99449411123E+00  0.11802014245E+01  0.00000000000E+00 0. -1.
         11    1    3    3    0    0 -0.40230099246E+01  0.88216863541E+00  0.89684159075E+01  0.98689064493E+01  0.51100000000E-03 0. -1.
        -11    1    3    3    0    0 -0.36675441275E+02 -0.11111413094E+02 -0.29333659490E+01  0.38433788907E+02  0.51100000000E-03 0.  1.
         12    1    3    3    0    0  0.40220079529E+02  0.98108936382E+01 -0.50405558473E+01  0.41705103219E+02  0.00000000000E+00 0. -1.
</event>
<event>
 7    1  0.2090370E-015  0.9000785E+02  0.7816164E-02  0.1186339E+00
        -11   -1    0    0    0    0  0.00000000000E+00  0.00000000000E+00  0.45593999997E+02  0.45594000000E+02  0.51100000000E-03 0. -1.
         11   -1    0    0    0    0 -0.00000000000E+00 -0.00000000000E+00 -0.45593999997E+02  0.45594000000E+02  0.51100000000E-03 0.  1.
    9900012    2    1    2    0    0  0.63010431505E+00  0.33234146499E+00 -0.94089417863E+00  0.90007845708E+02  0.90000108471E+02 0.  0.
         12    1    1    2    0    0 -0.63010431505E+00 -0.33234146499E+00  0.94089417863E+00  0.11801542919E+01  0.00000000000E+00 0. -1.
         11    1    3    3    0    0 -0.34151700927E+02  0.51370257072E+01 -0.12835000061E+02  0.36843791012E+02  0.51100000000E-03 0. -1.
        -11    1    3    3    0    0 -0.62692161005E+01 -0.32467257717E+01 -0.50976729930E+01  0.87080749283E+01  0.51100000000E-03 0.  1.
        -12    1    3    3    0    0  0.41051021342E+02 -0.15579584705E+01  0.16991778875E+02  0.44455979768E+02  0.00000000000E+00 0.  1.
</event>
<event>
 7    1  0.2090370E-015  0.9000768E+02  0.7816164E-02  0.1186339E+00
        -11   -1    0    0    0    0  0.00000000000E+00  0.00000000000E+00  0.45593999997E+02  0.45594000000E+02  0.51100000000E-03 0. -1.
         11   -1    0    0    0    0 -0.00000000000E+00 -0.00000000000E+00 -0.45593999997E+02  0.45594000000E+02  0.51100000000E-03 0.  1.
    9900012    2    1    2    0    0 -0.81355321428E-01  0.11166423817E+01 -0.37368921844E+00  0.90007681175E+02  0.89999941766E+02 0.  0.
         12    1    1    2    0    0  0.81355321428E-01 -0.11166423817E+01  0.37368921844E+00  0.11803188251E+01  0.00000000000E+00 0. -1.
         11    1    3    3    0    0  0.10903258308E+02 -0.78036964451E+01  0.37059745703E+02  0.39410702503E+02  0.51100000000E-03 0. -1.
        -11    1    3    3    0    0 -0.23590384264E+01  0.39279234898E+01  0.51323616711E+01  0.68800277486E+01  0.51100000000E-03 0.  1.
        -12    1    3    3    0    0 -0.86255752033E+01  0.49924153371E+01 -0.42565796592E+02  0.43716950923E+02  0.00000000000E+00 0.  1.
</event>
<event>
 7    1  0.2090370E-015  0.9000780E+02  0.7816164E-02  0.1186339E+00
        -11   -1    0    0    0    0  0.00000000000E+00  0.00000000000E+00  0.45593999997E+02  0.45594000000E+02  0.51100000000E-03 0.  1.
         11   -1    0    0    0    0 -0.00000000000E+00 -0.00000000000E+00 -0.45593999997E+02  0.45594000000E+02  0.51100000000E-03 0. -1.
    9900012    2    1    2    0    0 -0.57469386310E+00  0.23089159192E+00 -0.10046276386E+01  0.90007804823E+02  0.90000067047E+02 0.  0.
         12    1    1    2    0    0  0.57469386310E+00 -0.23089159192E+00  0.10046276386E+01  0.11801951770E+01  0.00000000000E+00 0. -1.
         11    1    3    3    0    0 -0.80404764136E+00  0.27799627771E+01 -0.43430580696E+02  0.43526888535E+02  0.51100000000E-03 0. -1.
        -11    1    3    3    0    0 -0.48343165975E+01  0.52716269698E+01  0.76264086393E+01  0.10455753290E+02  0.51100000000E-03 0.  1.
        -12    1    3    3    0    0  0.50636703757E+01 -0.78206981550E+01  0.34799544418E+02  0.36025162998E+02  0.00000000000E+00 0.  1.
</event>
<event>
 7    1  0.2090370E-015  0.9000784E+02  0.7816164E-02  0.1186339E+00
        -11   -1    0    0    0    0  0.00000000000E+00  0.00000000000E+00  0.45593999997E+02  0.45594000000E+02  0.51100000000E-03 0.  1.
         11   -1    0    0    0    0 -0.00000000000E+00 -0.00000000000E+00 -0.45593999997E+02  0.45594000000E+02  0.51100000000E-03 0. -1.
    9900012    2    1    2    0    0  0.96058783976E+00  0.30554690693E+00  0.61374675731E+00  0.90007841963E+02  0.90000104677E+02 0.  0.
         12    1    1    2    0    0 -0.96058783976E+00 -0.30554690693E+00 -0.61374675731E+00  0.11801580370E+01  0.00000000000E+00 0. -1.
         11    1    3    3    0    0  0.66745467446E+01 -0.49870908385E+01  0.64654226371E+01  0.10546200236E+02  0.51100000000E-03 0. -1.
        -11    1    3    3    0    0 -0.21626704294E+02 -0.20985207882E+02  0.22539214907E+02  0.37631230346E+02  0.51100000000E-03 0.  1.
         12    1    3    3    0    0  0.15912745389E+02  0.26277845628E+02 -0.28390890786E+02  0.41830411381E+02  0.00000000000E+00 0. -1.
</event>
<event>
 7    1  0.2090370E-015  0.9000778E+02  0.7816164E-02  0.1186339E+00
        -11   -1    0    0    0    0  0.00000000000E+00  0.00000000000E+00  0.45593999997E+02  0.45594000000E+02  0.51100000000E-03 0.  1.
         11   -1    0    0    0    0 -0.00000000000E+00 -0.00000000000E+00 -0.45593999997E+02  0.45594000000E+02  0.51100000000E-03 0. -1.
    9900012    2    1    2    0    0 -0.64427983643E+00  0.28799625119E+00  0.94597786875E+00  0.90007782869E+02  0.90000044803E+02 0.  0.
         12    1    1    2    0    0  0.64427983643E+00 -0.28799625119E+00 -0.94597786875E+00  0.11802171311E+01  0.00000000000E+00 0. -1.
         11    1    3    3    0    0  0.13700656532E+02 -0.28727542818E+02 -0.31482478283E+01  0.31982669845E+02  0.51100000000E-03 0. -1.
        -11    1    3    3    0    0 -0.11359779652E+02 -0.51384610312E+01 -0.14418851560E+02  0.19061785228E+02  0.51100000000E-03 0.  1.
        -12    1    3    3    0    0 -0.29851567167E+01  0.34154000100E+02  0.18513077257E+02  0.38963327797E+02  0.00000000000E+00 0.  1.
</event>
<event>
 7    1  0.2090370E-015  0.9000775E+02  0.7816164E-02  0.1186339E+00
        -11   -1    0    0    0    0  0.00000000000E+00  0.00000000000E+00  0.45593999997E+02  0.45594000000E+02  0.51100000000E-03 0.  1.
         11   -1    0    0    0    0 -0.00000000000E+00 -0.00000000000E+00 -0.45593999997E+02  0.45594000000E+02  0.51100000000E-03 0. -1.
    9900012    2    1    2    0    0 -0.10614154626E+01 -0.38304742062E+00  0.34593072795E+00  0.90007747409E+02  0.90000008875E+02 0.  0.
         12    1    1    2    0    0  0.10614154626E+01  0.38304742062E+00 -0.34593072795E+00  0.11802525913E+01  0.00000000000E+00 0. -1.
         11    1    3    3    0    0 -0.24177039082E+02 -0.26891950713E+02 -0.14608524046E+02  0.39001476985E+02  0.51100000000E-03 0. -1.
        -11    1    3    3    0    0  0.57551071201E+01 -0.80951097693E+01  0.16448690918E+01  0.10067653884E+02  0.51100000000E-03 0.  1.
        -12    1    3    3    0    0  0.17360516500E+02  0.34604013062E+02  0.13309585682E+02  0.40938616539E+02  0.00000000000E+00 0.  1.
</event>
<event>
 7    1  0.2090370E-015  0.9000777E+02  0.7816164E-02  0.1186339E+00
        -11   -1    0    0    0    0  0.00000000000E+00  0.00000000000E+00  0.45593999997E+02  0.45594000000E+02  0.51100000000E-03 0.  1.
         11   -1    0    0    0    0 -0.00000000000E+00 -0.00000000000E+00 -0.45593999997E+02  0.45594000000E+02  0.51100000000E-03 0. -1.
    9900012    2    1    2    0    0  0.84986169282E+00 -0.81651638343E+00 -0.63155238083E-01  0.90007765919E+02  0.90000027629E+02 0.  0.
         12    1    1    2    0    0 -0.84986169282E+00  0.81651638343E+00  0.63155238083E-01  0.11802340808E+01  0.00000000000E+00 0. -1.
         11    1    3    3    0    0 -0.95637686508E+00  0.70708651222E+01  0.53757087077E+01  0.89336462128E+01  0.51100000000E-03 0. -1.
        -11    1    3    3    0    0  0.14022750496E+02  0.42775885113E+01  0.34547456249E+02  0.37529482124E+02  0.51100000000E-03 0.  1.
         12    1    3    3    0    0 -0.12216511938E+02 -0.12164970017E+02 -0.39986320195E+02  0.43544637582E+02  0.00000000000E+00 0. -1.
</event>
<event>
 7    1  0.2090370E-015  0.9000773E+02  0.7816164E-02  0.1186339E+00
        -11   -1    0    0    0    0  0.00000000000E+00  0.00000000000E+00  0.45593999997E+02  0.45594000000E+02  0.51100000000E-03 0.  1.
         11   -1    0    0    0    0 -0.00000000000E+00 -0.00000000000E+00 -0.45593999997E+02  0.45594000000E+02  0.51100000000E-03 0. -1.
    9900012    2    1    2    0    0 -0.98466585445E+00  0.64247504859E+00  0.10339266897E+00  0.90007732625E+02  0.89999993895E+02 0.  0.
         12    1    1    2    0    0  0.98466585445E+00 -0.64247504859E+00 -0.10339266897E+00  0.11802673752E+01  0.00000000000E+00 0. -1.
         11    1    3    3    0    0 -0.69584556227E+01 -0.59709953714E+01  0.25468989095E+01  0.95162799819E+01  0.51100000000E-03 0. -1.
        -11    1    3    3    0    0 -0.31983711496E+01 -0.18187339256E+02  0.32073707286E+02  0.37009884984E+02  0.51100000000E-03 0.  1.
         12    1    3    3    0    0  0.91721609178E+01  0.24800809676E+02 -0.34517213526E+02  0.43481567659E+02  0.00000000000E+00 0. -1.
</event>
<event>
 7    1  0.2090370E-015  0.9000772E+02  0.7816164E-02  0.1186339E+00
        -11   -1    0    0    0    0  0.00000000000E+00  0.00000000000E+00  0.45593999997E+02  0.45594000000E+02  0.51100000000E-03 0.  1.
         11   -1    0    0    0    0 -0.00000000000E+00 -0.00000000000E+00 -0.45593999997E+02  0.45594000000E+02  0.51100000000E-03 0. -1.
    9900012    2    1    2    0    0  0.36727900737E+00  0.66383107669E+00  0.90414988158E+00  0.90007723517E+02  0.89999984668E+02 0.  0.
         12    1    1    2    0    0 -0.36727900737E+00 -0.66383107669E+00 -0.90414988158E+00  0.11802764829E+01  0.00000000000E+00 0. -1.
         11    1    3    3    0    0  0.68692883237E+01  0.48332485648E+01  0.38123238494E+01  0.92239485665E+01  0.51100000000E-03 0. -1.
        -11    1    3    3    0    0  0.12128939541E+02 -0.71955217529E+01  0.35384796797E+02  0.38091607374E+02  0.51100000000E-03 0.  1.
         12    1    3    3    0    0 -0.18630948858E+02  0.30261042648E+01 -0.38292970765E+02  0.42692167577E+02  0.00000000000E+00 0. -1.
</event>
<event>
 7    1  0.2090370E-015  0.9000775E+02  0.7816164E-02  0.1186339E+00
        -11   -1    0    0    0    0  0.00000000000E+00  0.00000000000E+00  0.45593999997E+02  0.45594000000E+02  0.51100000000E-03 0.  1.
         11   -1    0    0    0    0 -0.00000000000E+00 -0.00000000000E+00 -0.45593999997E+02  0.45594000000E+02  0.51100000000E-03 0. -1.
    9900012    2    1    2    0    0 -0.27386268515E+00 -0.98601968821E+00  0.58800498130E+00  0.90007751952E+02  0.90000013478E+02 0.  0.
         12    1    1    2    0    0  0.27386268515E+00  0.98601968821E+00 -0.58800498130E+00  0.11802480476E+01  0.00000000000E+00 0. -1.
         11    1    3    3    0    0  0.27626066156E+02  0.11616122341E+02 -0.16697477872E+02  0.34306553267E+02  0.51100000000E-03 0. -1.
        -11    1    3    3    0    0 -0.13177391019E+01  0.31663085391E+01 -0.12388794433E+02  0.12854733520E+02  0.51100000000E-03 0.  1.
        -12    1    3    3    0    0 -0.26582189740E+02 -0.15768450568E+02  0.29674277287E+02  0.42846465165E+02  0.00000000000E+00 0.  1.
</event>
<event>
 7    1  0.2090370E-015  0.9000773E+02  0.7816164E-02  0.1186339E+00
        -11   -1    0    0    0    0  0.00000000000E+00  0.00000000000E+00  0.45593999997E+02  0.45594000000E+02  0.51100000000E-03 0.  1.
         11   -1    0    0    0    0 -0.00000000000E+00 -0.00000000000E+00 -0.45593999997E+02  0.45594000000E+02  0.51100000000E-03 0. -1.
    9900012    2    1    2    0    0 -0.20324270997E+00  0.96628013626E+00  0.64655450952E+00  0.90007729847E+02  0.89999991081E+02 0.  0.
         12    1    1    2    0    0  0.20324270997E+00 -0.96628013626E+00 -0.64655450952E+00  0.11802701533E+01  0.00000000000E+00 0. -1.
         11    1    3    3    0    0 -0.14974391171E+02  0.20220292723E+02 -0.26327338340E+02  0.36417322432E+02  0.51100000000E-03 0. -1.
        -11    1    3    3    0    0 -0.84492501679E+01  0.66324698254E+01  0.23924915910E+01  0.11004703570E+02  0.51100000000E-03 0.  1.
         12    1    3    3    0    0  0.23220398629E+02 -0.25886482412E+02  0.24581401258E+02  0.42585703845E+02  0.00000000000E+00 0. -1.
</event>
<event>
 7    1  0.2090370E-015  0.9000772E+02  0.7816164E-02  0.1186339E+00
        -11   -1    0    0    0    0  0.00000000000E+00  0.00000000000E+00  0.45593999997E+02  0.45594000000E+02  0.51100000000E-03 0. -1.
         11   -1    0    0    0    0 -0.00000000000E+00 -0.00000000000E+00 -0.45593999997E+02  0.45594000000E+02  0.51100000000E-03 0.  1.
    9900012    2    1    2    0    0 -0.15918381842E+00  0.39554398969E+00 -0.11005788543E+01  0.90007716835E+02  0.89999977897E+02 0.  0.
         12    1    1    2    0    0  0.15918381842E+00 -0.39554398969E+00  0.11005788543E+01  0.11802831654E+01  0.00000000000E+00 0. -1.
         11    1    3    3    0    0  0.17791457553E+01 -0.23893518905E+01 -0.10410958779E+02  0.10828777633E+02  0.51100000000E-03 0. -1.
        -11    1    3    3    0    0 -0.15949593832E+01 -0.25856474897E+02 -0.23953064406E+02  0.35282438751E+02  0.51100000000E-03 0.  1.
         12    1    3    3    0    0 -0.34337019050E+00  0.28641370777E+02  0.33263444331E+02  0.43896500450E+02  0.00000000000E+00 0. -1.
</event>
<event>
 7    1  0.2090370E-015  0.9000754E+02  0.7816164E-02  0.1186339E+00
        -11   -1    0    0    0    0  0.00000000000E+00  0.00000000000E+00  0.45593999997E+02  0.45594000000E+02  0.51100000000E-03 0. -1.
         11   -1    0    0    0    0 -0.00000000000E+00 -0.00000000000E+00 -0.45593999997E+02  0.45594000000E+02  0.51100000000E-03 0.  1.
    9900012    2    1    2    0    0  0.29578120478E+00 -0.11426029989E+01  0.21256650039E-01  0.90007542470E+02  0.89999801231E+02 0.  0.
         12    1    1    2    0    0 -0.29578120478E+00  0.11426029989E+01 -0.21256650039E-01  0.11804575296E+01  0.00000000000E+00 0. -1.
         11    1    3    3    0    0 -0.33057357791E+01 -0.85192782295E+01  0.56605262332E+01  0.10749304540E+02  0.51100000000E-03 0. -1.
        -11    1    3    3    0    0  0.48903205548E+00 -0.35671632279E+02 -0.55058386912E+01  0.36097351173E+02  0.51100000000E-03 0.  1.
         12    1    3    3    0    0  0.31124849284E+01  0.43048307509E+02 -0.13343089197E+00  0.43160886757E+02  0.00000000000E+00 0. -1.
</event>
<event>
 7    1  0.2090370E-015  0.9000733E+02  0.7816164E-02  0.1186340E+00
        -11   -1    0    0    0    0  0.00000000000E+00  0.00000000000E+00  0.45593999997E+02  0.45594000000E+02  0.51100000000E-03 0.  1.
         11   -1    0    0    0    0 -0.00000000000E+00 -0.00000000000E+00 -0.45593999997E+02  0.45594000000E+02  0.51100000000E-03 0. -1.
    9900012    2    1    2    0    0 -0.11594354592E+01 -0.76374412246E-01 -0.20942623627E+00  0.90007329435E+02  0.89999585382E+02 0.  0.
         12    1    1    2    0    0  0.11594354592E+01  0.76374412246E-01  0.20942623627E+00  0.11806705651E+01  0.00000000000E+00 0. -1.
         11    1    3    3    0    0 -0.25066882469E+02  0.18509773703E+02  0.22514358980E+02  0.38442901552E+02  0.51100000000E-03 0. -1.
        -11    1    3    3    0    0 -0.18018311646E+01  0.84768289823E+01 -0.20957860161E+01  0.89160273904E+01  0.51100000000E-03 0.  1.
        -12    1    3    3    0    0  0.25709278174E+02 -0.27062977097E+02 -0.20627999200E+02  0.42648400492E+02  0.00000000000E+00 0.  1.
</event>
<event>
 7    1  0.2090370E-015  0.9000761E+02  0.7816164E-02  0.1186339E+00
        -11   -1    0    0    0    0  0.00000000000E+00  0.00000000000E+00  0.45593999997E+02  0.45594000000E+02  0.51100000000E-03 0. -1.
         11   -1    0    0    0    0 -0.00000000000E+00 -0.00000000000E+00 -0.45593999997E+02  0.45594000000E+02  0.51100000000E-03 0.  1.
    9900012    2    1    2    0    0 -0.79591938808E+00 -0.86957306909E+00 -0.60544339694E-01  0.90007614211E+02  0.89999873918E+02 0.  0.
         12    1    1    2    0    0  0.79591938808E+00  0.86957306909E+00  0.60544339694E-01  0.11803857894E+01  0.00000000000E+00 0. -1.
         11    1    3    3    0    0  0.12849595717E+01  0.14620521668E+02  0.53246793129E+01  0.15612910843E+02  0.51100000000E-03 0. -1.
        -11    1    3    3    0    0 -0.16551905442E+02  0.21472802676E+02  0.13670221428E+02  0.30363164899E+02  0.51100000000E-03 0.  1.
         12    1    3    3    0    0  0.14471026482E+02 -0.36962897414E+02 -0.19055445081E+02  0.44031538468E+02  0.00000000000E+00 0. -1.
</event>
<event>
 7    1  0.2090370E-015  0.9000774E+02  0.7816164E-02  0.1186339E+00
        -11   -1    0    0    0    0  0.00000000000E+00  0.00000000000E+00  0.45593999997E+02  0.45594000000E+02  0.51100000000E-03 0. -1.
         11   -1    0    0    0    0 -0.00000000000E+00 -0.00000000000E+00 -0.45593999997E+02  0.45594000000E+02  0.51100000000E-03 0.  1.
    9900012    2    1    2    0    0 -0.75780458054E+00  0.55641104229E-01 -0.90312691075E+00  0.90007744972E+02  0.90000006405E+02 0.  0.
         12    1    1    2    0    0  0.75780458054E+00 -0.55641104229E-01  0.90312691075E+00  0.11802550282E+01  0.00000000000E+00 0. -1.
         11    1    3    3    0    0 -0.14770892074E+01  0.10827119701E+01  0.98400993329E+01  0.10009076525E+02  0.51100000000E-03 0. -1.
        -11    1    3    3    0    0 -0.24643637412E+02 -0.67057964575E+01  0.25043562630E+02  0.35769492595E+02  0.51100000000E-03 0.  1.
         12    1    3    3    0    0  0.25362922039E+02  0.56787255916E+01 -0.35786788873E+02  0.44229175852E+02  0.00000000000E+00 0. -1.
</event>
<event>
 7    1  0.2090370E-015  0.9000772E+02  0.7816164E-02  0.1186339E+00
        -11   -1    0    0    0    0  0.00000000000E+00  0.00000000000E+00  0.45593999997E+02  0.45594000000E+02  0.51100000000E-03 0.  1.
         11   -1    0    0    0    0 -0.00000000000E+00 -0.00000000000E+00 -0.45593999997E+02  0.45594000000E+02  0.51100000000E-03 0. -1.
    9900012    2    1    2    0    0  0.43582500269E+00 -0.85466527074E+00  0.68749988599E+00  0.90007723655E+02  0.89999984807E+02 0.  0.
         12    1    1    2    0    0 -0.43582500269E+00  0.85466527074E+00 -0.68749988599E+00  0.11802763453E+01  0.00000000000E+00 0. -1.
         11    1    3    3    0    0 -0.42487967577E+01  0.36711973466E+01 -0.27236965864E+01  0.62408723110E+01  0.51100000000E-03 0. -1.
        -11    1    3    3    0    0 -0.27100871782E+01 -0.15596902354E+02  0.40967943735E+02  0.43920158808E+02  0.51100000000E-03 0.  1.
         12    1    3    3    0    0  0.73947089386E+01  0.11071039737E+02 -0.37556747262E+02  0.39846692536E+02  0.00000000000E+00 0. -1.
</event>
<event>
 7    1  0.2090370E-015  0.9000773E+02  0.7816164E-02  0.1186339E+00
        -11   -1    0    0    0    0  0.00000000000E+00  0.00000000000E+00  0.45593999997E+02  0.45594000000E+02  0.51100000000E-03 0. -1.
         11   -1    0    0    0    0 -0.00000000000E+00 -0.00000000000E+00 -0.45593999997E+02  0.45594000000E+02  0.51100000000E-03 0.  1.
    9900012    2    1    2    0    0  0.92433139742E+00 -0.65560190118E+00 -0.32991486538E+00  0.90007726217E+02  0.89999987403E+02 0.  0.
         12    1    1    2    0    0 -0.92433139742E+00  0.65560190118E+00  0.32991486538E+00  0.11802737833E+01  0.00000000000E+00 0. -1.
         11    1    3    3    0    0 -0.97041013329E+01 -0.44126029609E+01  0.27038420424E+01  0.10997791125E+02  0.51100000000E-03 0. -1.
        -11    1    3    3    0    0  0.92687821998E+01 -0.21034902192E+02 -0.32922762807E+02  0.40153278133E+02  0.51100000000E-03 0.  1.
         12    1    3    3    0    0  0.13596505305E+01  0.24791903252E+02  0.29889005899E+02  0.38856656959E+02  0.00000000000E+00 0. -1.
</event>
<event>
 7    1  0.2090370E-015  0.9000760E+02  0.7816164E-02  0.1186339E+00
        -11   -1    0    0    0    0  0.00000000000E+00  0.00000000000E+00  0.45593999997E+02  0.45594000000E+02  0.51100000000E-03 0.  1.
         11   -1    0    0    0    0 -0.00000000000E+00 -0.00000000000E+00 -0.45593999997E+02  0.45594000000E+02  0.51100000000E-03 0. -1.
    9900012    2    1    2    0    0  0.41672236302E+00  0.45694010404E+00  0.10054278092E+01  0.90007603090E+02  0.89999862650E+02 0.  0.
         12    1    1    2    0    0 -0.41672236302E+00 -0.45694010404E+00 -0.10054278092E+01  0.11803969103E+01  0.00000000000E+00 0. -1.
         11    1    3    3    0    0  0.41081265164E+01 -0.42606067756E+01 -0.77303746986E+01  0.97359214671E+01  0.51100000000E-03 0. -1.
        -11    1    3    3    0    0  0.22915201204E+01  0.29543198950E+02  0.33482598830E+02  0.44711699736E+02  0.51100000000E-03 0.  1.
         12    1    3    3    0    0 -0.59829242738E+01 -0.24825652070E+02 -0.24746796322E+02  0.35559981886E+02  0.00000000000E+00 0. -1.
</event>
<event>
 7    1  0.2090370E-015  0.9000778E+02  0.7816164E-02  0.1186339E+00
        -11   -1    0    0    0    0  0.00000000000E+00  0.00000000000E+00  0.45593999997E+02  0.45594000000E+02  0.51100000000E-03 0.  1.
         11   -1    0    0    0    0 -0.00000000000E+00 -0.00000000000E+00 -0.45593999997E+02  0.45594000000E+02  0.51100000000E-03 0. -1.
    9900012    2    1    2    0    0 -0.77174882067E-01 -0.59626512515E+00  0.10155891859E+01  0.90007784148E+02  0.90000046099E+02 0.  0.
         12    1    1    2    0    0  0.77174882067E-01  0.59626512515E+00 -0.10155891859E+01  0.11802158516E+01  0.00000000000E+00 0. -1.
         11    1    3    3    0    0 -0.24677983371E+00 -0.56608560527E+01  0.90384853628E+01  0.10667727474E+02  0.51100000000E-03 0. -1.
        -11    1    3    3    0    0  0.12366578313E+02 -0.64144545484E+01  0.32571692834E+02  0.35425875581E+02  0.51100000000E-03 0.  1.
         12    1    3    3    0    0 -0.12196973361E+02  0.11479045476E+02 -0.40594589011E+02  0.43914181094E+02  0.00000000000E+00 0. -1.
</event>
<event>
 7    1  0.2090370E-015  0.9000778E+02  0.7816164E-02  0.1186339E+00
        -11   -1    0    0    0    0  0.00000000000E+00  0.00000000000E+00  0.45593999997E+02  0.45594000000E+02  0.51100000000E-03 0.  1.
         11   -1    0    0    0    0 -0.00000000000E+00 -0.00000000000E+00 -0.45593999997E+02  0.45594000000E+02  0.51100000000E-03 0. -1.
    9900012    2    1    2    0    0  0.14703553680E+00 -0.81882180995E+00  0.83715905933E+00  0.90007778031E+02  0.90000039901E+02 0.  0.
         12    1    1    2    0    0 -0.14703553680E+00  0.81882180995E+00 -0.83715905933E+00  0.11802219690E+01  0.00000000000E+00 0. -1.
         11    1    3    3    0    0 -0.95741119608E+01 -0.27693959763E+01 -0.81861662418E+00  0.10000165366E+02  0.51100000000E-03 0. -1.
        -11    1    3    3    0    0 -0.38570636517E+01 -0.27080077350E+01  0.39371400187E+02  0.39652457665E+02  0.51100000000E-03 0.  1.
         12    1    3    3    0    0  0.13578211149E+02  0.46585819013E+01 -0.37715624504E+02  0.40355155000E+02  0.00000000000E+00 0. -1.
</event>
<event>
 7    1  0.2090370E-015  0.9000778E+02  0.7816164E-02  0.1186339E+00
        -11   -1    0    0    0    0  0.00000000000E+00  0.00000000000E+00  0.45593999997E+02  0.45594000000E+02  0.51100000000E-03 0. -1.
         11   -1    0    0    0    0 -0.00000000000E+00 -0.00000000000E+00 -0.45593999997E+02  0.45594000000E+02  0.51100000000E-03 0.  1.
    9900012    2    1    2    0    0  0.90365504961E+00  0.34285911117E+00 -0.67733493752E+00  0.90007776531E+02  0.90000038381E+02 0.  0.
         12    1    1    2    0    0 -0.90365504961E+00 -0.34285911117E+00  0.67733493752E+00  0.11802234688E+01  0.00000000000E+00 0. -1.
         11    1    3    3    0    0 -0.19929507363E+02  0.22993717050E+02 -0.16300271876E+02  0.34519489437E+02  0.51100000000E-03 0. -1.
        -11    1    3    3    0    0 -0.13860362710E+01  0.64317791949E+01 -0.91670701119E+01  0.11283796119E+02  0.51100000000E-03 0.  1.
        -12    1    3    3    0    0  0.22219198684E+02 -0.29082637134E+02  0.24790007050E+02  0.44204490975E+02  0.00000000000E+00 0.  1.
</event>
<event>
 7    1  0.2090370E-015  0.9000770E+02  0.7816164E-02  0.1186339E+00
        -11   -1    0    0    0    0  0.00000000000E+00  0.00000000000E+00  0.45593999997E+02  0.45594000000E+02  0.51100000000E-03 0.  1.
         11   -1    0    0    0    0 -0.00000000000E+00 -0.00000000000E+00 -0.45593999997E+02  0.45594000000E+02  0.51100000000E-03 0. -1.
    9900012    2    1    2    0    0 -0.98039966164E+00 -0.53617591186E+00  0.38003732268E+00  0.90007704922E+02  0.89999965827E+02 0.  0.
         12    1    1    2    0    0  0.98039966164E+00  0.53617591186E+00 -0.38003732268E+00  0.11802950782E+01  0.00000000000E+00 0. -1.
         11    1    3    3    0    0  0.11927432816E+02 -0.31749134203E+01 -0.47196163625E+01  0.13214329634E+02  0.51100000000E-03 0. -1.
        -11    1    3    3    0    0 -0.73374662785E+01  0.37401639470E+02  0.13786175827E+02  0.40531218716E+02  0.51100000000E-03 0.  1.
         12    1    3    3    0    0 -0.55703661987E+01 -0.34762901961E+02 -0.86865221422E+01  0.36262156572E+02  0.00000000000E+00 0. -1.
</event>
<event>
 7    1  0.2090370E-015  0.9000775E+02  0.7816164E-02  0.1186339E+00
        -11   -1    0    0    0    0  0.00000000000E+00  0.00000000000E+00  0.45593999997E+02  0.45594000000E+02  0.51100000000E-03 0.  1.
         11   -1    0    0    0    0 -0.00000000000E+00 -0.00000000000E+00 -0.45593999997E+02  0.45594000000E+02  0.51100000000E-03 0. -1.
    9900012    2    1    2    0    0 -0.15692203978E+00 -0.11653774512E+01  0.10131994643E+00  0.90007747967E+02  0.90000009440E+02 0.  0.
         12    1    1    2    0    0  0.15692203978E+00  0.11653774512E+01 -0.10131994643E+00  0.11802520332E+01  0.00000000000E+00 0. -1.
         11    1    3    3    0    0  0.36743621272E+01 -0.25045790254E+01  0.80173289470E+01  0.91679559795E+01  0.51100000000E-03 0. -1.
        -11    1    3    3    0    0  0.17240387817E+02 -0.35961514475E+00  0.31614514964E+02  0.36011634950E+02  0.51100000000E-03 0.  1.
         12    1    3    3    0    0 -0.21071671984E+02  0.16988167189E+01 -0.39530523964E+02  0.44828157037E+02  0.00000000000E+00 0. -1.
</event>
<event>
 7    1  0.2090370E-015  0.9000772E+02  0.7816164E-02  0.1186339E+00
        -11   -1    0    0    0    0  0.00000000000E+00  0.00000000000E+00  0.45593999997E+02  0.45594000000E+02  0.51100000000E-03 0. -1.
         11   -1    0    0    0    0 -0.00000000000E+00 -0.00000000000E+00 -0.45593999997E+02  0.45594000000E+02  0.51100000000E-03 0.  1.
    9900012    2    1    2    0    0  0.66330568032E+00  0.95451105377E+00  0.20490676048E+00  0.90007723525E+02  0.89999984675E+02 0.  0.
         12    1    1    2    0    0 -0.66330568032E+00 -0.95451105377E+00 -0.20490676048E+00  0.11802764752E+01  0.00000000000E+00 0. -1.
         11    1    3    3    0    0 -0.94987998528E+01 -0.26418253161E+01  0.36179782774E+02  0.37499108276E+02  0.51100000000E-03 0. -1.
        -11    1    3    3    0    0  0.51822265247E+01 -0.56044669604E+01  0.57089530121E+01  0.95319287880E+01  0.51100000000E-03 0.  1.
        -12    1    3    3    0    0  0.49798790084E+01  0.92008033303E+01 -0.41683829026E+02  0.42976686461E+02  0.00000000000E+00 0.  1.
</event>
<event>
 7    1  0.2746537E-015  0.9000803E+02  0.7816164E-02  0.1186338E+00
        -11   -1    0    0    0    0  0.00000000000E+00  0.00000000000E+00  0.45593999997E+02  0.45594000000E+02  0.51100000000E-03 0. -1.
         11   -1    0    0    0    0 -0.00000000000E+00 -0.00000000000E+00 -0.45593999997E+02  0.45594000000E+02  0.51100000000E-03 0.  1.
    9900012    2    1    2    0    0 -0.24503106994E+00 -0.21231273288E+00 -0.11345494666E+01  0.90008034147E+02  0.90000299397E+02 0.  0.
         12    1    1    2    0    0  0.24503106994E+00  0.21231273288E+00  0.11345494666E+01  0.11799658529E+01  0.00000000000E+00 0. -1.
         11    1    3    3    0    0  0.13824424515E+02 -0.28336443532E+02  0.19554643934E+02  0.37100577420E+02  0.51100000000E-03 0. -1.
        -11    1    3    3    0    0 -0.20027181969E+01 -0.91538873045E+01 -0.24349571230E+01  0.96816088235E+01  0.51100000000E-03 0.  1.
        -12    1    3    3    0    0 -0.12066737388E+02  0.37278018104E+02 -0.18254236278E+02  0.43225847904E+02  0.00000000000E+00 0.  1.
</event>
<event>
 7    1  0.2090370E-015  0.9000771E+02  0.7816164E-02  0.1186339E+00
        -11   -1    0    0    0    0  0.00000000000E+00  0.00000000000E+00  0.45593999997E+02  0.45594000000E+02  0.51100000000E-03 0.  1.
         11   -1    0    0    0    0 -0.00000000000E+00 -0.00000000000E+00 -0.45593999997E+02  0.45594000000E+02  0.51100000000E-03 0. -1.
    9900012    2    1    2    0    0 -0.63788699548E-01  0.85724697167E+00  0.80879533977E+00  0.90007707125E+02  0.89999968059E+02 0.  0.
         12    1    1    2    0    0  0.63788699548E-01 -0.85724697167E+00 -0.80879533977E+00  0.11802928748E+01  0.00000000000E+00 0. -1.
         11    1    3    3    0    0  0.49305578972E+01 -0.70726185220E+01  0.10343428914E+01  0.86834439834E+01  0.51100000000E-03 0. -1.
        -11    1    3    3    0    0  0.16405559592E+02  0.50243372576E+01  0.35585148741E+02  0.39505558616E+02  0.51100000000E-03 0.  1.
         12    1    3    3    0    0 -0.21399906189E+02  0.29055282361E+01 -0.35810696293E+02  0.41818704525E+02  0.00000000000E+00 0. -1.
</event>
<event>
 7    1  0.2090370E-015  0.9000775E+02  0.7816164E-02  0.1186339E+00
        -11   -1    0    0    0    0  0.00000000000E+00  0.00000000000E+00  0.45593999997E+02  0.45594000000E+02  0.51100000000E-03 0. -1.
         11   -1    0    0    0    0 -0.00000000000E+00 -0.00000000000E+00 -0.45593999997E+02  0.45594000000E+02  0.51100000000E-03 0.  1.
    9900012    2    1    2    0    0 -0.10109945911E+01 -0.49940932662E+00 -0.34853272374E+00  0.90007747994E+02  0.90000009467E+02 0.  0.
         12    1    1    2    0    0  0.10109945911E+01  0.49940932662E+00  0.34853272374E+00  0.11802520062E+01  0.00000000000E+00 0. -1.
         11    1    3    3    0    0  0.37546323058E+02 -0.13070063933E+01 -0.16131867186E+02  0.40886082963E+02  0.51100000000E-03 0. -1.
        -11    1    3    3    0    0  0.14806598939E+01  0.14904885843E+01  0.80735395632E+01  0.83424187908E+01  0.51100000000E-03 0.  1.
        -12    1    3    3    0    0 -0.40037977543E+02 -0.68289151762E+00  0.77097948994E+01  0.40779246240E+02  0.00000000000E+00 0.  1.
</event>
<event>
 7    1  0.2824783E-015  0.9000683E+02  0.7816164E-02  0.1186341E+00
        -11   -1    0    0    0    0  0.00000000000E+00  0.00000000000E+00  0.45593999997E+02  0.45594000000E+02  0.51100000000E-03 0. -1.
         11   -1    0    0    0    0 -0.00000000000E+00 -0.00000000000E+00 -0.45593999997E+02  0.45594000000E+02  0.51100000000E-03 0.  1.
    9900012    2    1    2    0    0 -0.27960022296E+00 -0.58806061350E+00 -0.98548224858E+00  0.90006828195E+02  0.89999077523E+02 0.  0.
         12    1    1    2    0    0  0.27960022296E+00  0.58806061350E+00  0.98548224858E+00  0.11811718046E+01  0.00000000000E+00 0. -1.
         11    1    3    3    0    0 -0.23353707850E+01  0.24228236542E+01  0.38978006018E+02  0.39122998154E+02  0.51100000000E-03 0. -1.
        -11    1    3    3    0    0 -0.52586681283E+00  0.93223820117E+01 -0.38193657467E+00  0.93450103309E+01  0.51100000000E-03 0.  1.
        -12    1    3    3    0    0  0.25816373749E+01 -0.12333266279E+02 -0.39581551692E+02  0.41538819711E+02  0.00000000000E+00 0.  1.
</event>
<event>
 7    1  0.2090370E-015  0.9000777E+02  0.7816164E-02  0.1186339E+00
        -11   -1    0    0    0    0  0.00000000000E+00  0.00000000000E+00  0.45593999997E+02  0.45594000000E+02  0.51100000000E-03 0. -1.
         11   -1    0    0    0    0 -0.00000000000E+00 -0.00000000000E+00 -0.45593999997E+02  0.45594000000E+02  0.51100000000E-03 0.  1.
    9900012    2    1    2    0    0 -0.10291816546E+01  0.56414628428E+00 -0.12440862933E+00  0.90007765525E+02  0.90000027230E+02 0.  0.
         12    1    1    2    0    0  0.10291816546E+01 -0.56414628428E+00  0.12440862933E+00  0.11802344747E+01  0.00000000000E+00 0. -1.
         11    1    3    3    0    0  0.25986944007E+02 -0.28444769224E+02  0.15962493909E+02  0.41704044972E+02  0.51100000000E-03 0. -1.
        -11    1    3    3    0    0 -0.52139347873E+01 -0.23752602999E+01 -0.69601974365E+01  0.90150610688E+01  0.51100000000E-03 0.  1.
        -12    1    3    3    0    0 -0.21802190874E+02  0.31384175808E+02 -0.91267051021E+01  0.39288659484E+02  0.00000000000E+00 0.  1.
</event>
<event>
 7    1  0.2090370E-015  0.9000759E+02  0.7816164E-02  0.1186339E+00
        -11   -1    0    0    0    0  0.00000000000E+00  0.00000000000E+00  0.45593999997E+02  0.45594000000E+02  0.51100000000E-03 0.  1.
         11   -1    0    0    0    0 -0.00000000000E+00 -0.00000000000E+00 -0.45593999997E+02  0.45594000000E+02  0.51100000000E-03 0. -1.
    9900012    2    1    2    0    0 -0.30575519348E+00 -0.41710703564E+00 -0.10610821806E+01  0.90007593328E+02  0.89999852760E+02 0.  0.
         12    1    1    2    0    0  0.30575519348E+00  0.41710703564E+00  0.10610821806E+01  0.11804066721E+01  0.00000000000E+00 0. -1.
         11    1    3    3    0    0 -0.57825148668E+00  0.38513138043E+01 -0.85934416846E+01  0.94347354520E+01  0.51100000000E-03 0. -1.
        -11    1    3    3    0    0  0.28724566948E+02  0.19856209912E+02 -0.13861814606E+02  0.37570197269E+02  0.51100000000E-03 0.  1.
         12    1    3    3    0    0 -0.28452070655E+02 -0.24124630752E+02  0.21394174110E+02  0.43002660607E+02  0.00000000000E+00 0. -1.
</event>
<event>
 7    1  0.2090370E-015  0.9000777E+02  0.7816164E-02  0.1186339E+00
        -11   -1    0    0    0    0  0.00000000000E+00  0.00000000000E+00  0.45593999997E+02  0.45594000000E+02  0.51100000000E-03 0. -1.
         11   -1    0    0    0    0 -0.00000000000E+00 -0.00000000000E+00 -0.45593999997E+02  0.45594000000E+02  0.51100000000E-03 0.  1.
    9900012    2    1    2    0    0 -0.13870904072E+00 -0.11422288510E+01  0.26270945597E+00  0.90007769851E+02  0.90000031613E+02 0.  0.
         12    1    1    2    0    0  0.13870904072E+00  0.11422288510E+01 -0.26270945597E+00  0.11802301489E+01  0.00000000000E+00 0. -1.
         11    1    3    3    0    0  0.60815659916E+01 -0.49793783205E+01  0.35467965660E+01  0.86231907964E+01  0.51100000000E-03 0. -1.
        -11    1    3    3    0    0  0.33014011813E+02 -0.15798528843E+02 -0.73252591732E+01  0.37325298549E+02  0.51100000000E-03 0.  1.
         12    1    3    3    0    0 -0.39234286845E+02  0.19635678312E+02  0.40411720632E+01  0.44059280506E+02  0.00000000000E+00 0. -1.
</event>
<event>
 7    1  0.2090370E-015  0.9000774E+02  0.7816164E-02  0.1186339E+00
        -11   -1    0    0    0    0  0.00000000000E+00  0.00000000000E+00  0.45593999997E+02  0.45594000000E+02  0.51100000000E-03 0. -1.
         11   -1    0    0    0    0 -0.00000000000E+00 -0.00000000000E+00 -0.45593999997E+02  0.45594000000E+02  0.51100000000E-03 0.  1.
    9900012    2    1    2    0    0 -0.59191802945E+00  0.10162707711E+01  0.99226628295E-01  0.90007737674E+02  0.89999999012E+02 0.  0.
         12    1    1    2    0    0  0.59191802945E+00 -0.10162707711E+01 -0.99226628295E-01  0.11802623257E+01  0.00000000000E+00 0. -1.
         11    1    3    3    0    0  0.46290418580E+01  0.35329032003E+02 -0.10271882966E+02  0.37082072633E+02  0.51100000000E-03 0. -1.
        -11    1    3    3    0    0  0.42451815236E+01  0.28552494921E+01 -0.86989353962E+01  0.10091852809E+02  0.51100000000E-03 0.  1.
        -12    1    3    3    0    0 -0.94661414111E+01 -0.37168010725E+02  0.19070044990E+02  0.42833812232E+02  0.00000000000E+00 0.  1.
</event>
<event>
 7    1  0.2090370E-015  0.9000775E+02  0.7816164E-02  0.1186339E+00
        -11   -1    0    0    0    0  0.00000000000E+00  0.00000000000E+00  0.45593999997E+02  0.45594000000E+02  0.51100000000E-03 0.  1.
         11   -1    0    0    0    0 -0.00000000000E+00 -0.00000000000E+00 -0.45593999997E+02  0.45594000000E+02  0.51100000000E-03 0. -1.
    9900012    2    1    2    0    0  0.73149114618E+00  0.80868303512E+00  0.45160998848E+00  0.90007746159E+02  0.90000007608E+02 0.  0.
         12    1    1    2    0    0 -0.73149114618E+00 -0.80868303512E+00 -0.45160998848E+00  0.11802538413E+01  0.00000000000E+00 0. -1.
         11    1    3    3    0    0 -0.78984240751E-01 -0.10780069661E+02 -0.71009749526E+01  0.12908911106E+02  0.51100000000E-03 0. -1.
        -11    1    3    3    0    0 -0.24182849987E+01 -0.10336246517E+02  0.37991703322E+02  0.39446870801E+02  0.51100000000E-03 0.  1.
         12    1    3    3    0    0  0.32287603856E+01  0.21924999214E+02 -0.30439118381E+02  0.37651964251E+02  0.00000000000E+00 0. -1.
</event>
<event>
 7    1  0.2090370E-015  0.9000771E+02  0.7816164E-02  0.1186339E+00
        -11   -1    0    0    0    0  0.00000000000E+00  0.00000000000E+00  0.45593999997E+02  0.45594000000E+02  0.51100000000E-03 0. -1.
         11   -1    0    0    0    0 -0.00000000000E+00 -0.00000000000E+00 -0.45593999997E+02  0.45594000000E+02  0.51100000000E-03 0.  1.
    9900012    2    1    2    0    0 -0.58666354525E+00  0.33037345672E+00 -0.96941735329E+00  0.90007707349E+02  0.89999968286E+02 0.  0.
         12    1    1    2    0    0  0.58666354525E+00 -0.33037345672E+00  0.96941735329E+00  0.11802926506E+01  0.00000000000E+00 0. -1.
         11    1    3    3    0    0  0.25461770562E+02  0.22727714692E+02  0.20294592562E+02  0.39707949617E+02  0.51100000000E-03 0. -1.
        -11    1    3    3    0    0  0.21641233950E+01  0.36442508600E+01 -0.90770322755E+01  0.10017809620E+02  0.51100000000E-03 0.  1.
        -12    1    3    3    0    0 -0.28212557503E+02 -0.26041592095E+02 -0.12186977639E+02  0.40281948112E+02  0.00000000000E+00 0.  1.
</event>
<event>
 7    1  0.2090370E-015  0.9000787E+02  0.7816164E-02  0.1186339E+00
        -11   -1    0    0    0    0  0.00000000000E+00  0.00000000000E+00  0.45593999997E+02  0.45594000000E+02  0.51100000000E-03 0.  1.
         11   -1    0    0    0    0 -0.00000000000E+00 -0.00000000000E+00 -0.45593999997E+02  0.45594000000E+02  0.51100000000E-03 0. -1.
    9900012    2    1    2    0    0  0.93410690707E+00 -0.66490436421E+00  0.27936818393E+00  0.90007872842E+02  0.90000135963E+02 0.  0.
         12    1    1    2    0    0 -0.93410690707E+00  0.66490436421E+00 -0.27936818393E+00  0.11801271582E+01  0.00000000000E+00 0. -1.
         11    1    3    3    0    0  0.36706163270E+01 -0.59591963480E+01  0.15891533926E+01  0.71771062484E+01  0.51100000000E-03 0. -1.
        -11    1    3    3    0    0  0.37708167278E+02  0.14340198623E+02 -0.71683770855E+01  0.40974782566E+02  0.51100000000E-03 0.  1.
         12    1    3    3    0    0 -0.40444676698E+02 -0.90459066390E+01  0.58585918768E+01  0.41855984028E+02  0.00000000000E+00 0. -1.
</event>
<event>
 7    1  0.2354203E-015  0.9000777E+02  0.7816164E-02  0.1186339E+00
        -11   -1    0    0    0    0  0.00000000000E+00  0.00000000000E+00  0.45593999997E+02  0.45594000000E+02  0.51100000000E-03 0. -1.
         11   -1    0    0    0    0 -0.00000000000E+00 -0.00000000000E+00 -0.45593999997E+02  0.45594000000E+02  0.51100000000E-03 0.  1.
    9900012    2    1    2    0    0  0.35169706810E-02  0.52417924978E+00 -0.10574336972E+01  0.90007770243E+02  0.90000032010E+02 0.  0.
         12    1    1    2    0    0 -0.35169706810E-02 -0.52417924978E+00  0.10574336972E+01  0.11802297568E+01  0.00000000000E+00 0. -1.
         11    1    3    3    0    0 -0.15006182846E+02  0.47711467589E+01  0.33334768053E+02  0.36866734686E+02  0.51100000000E-03 0. -1.
        -11    1    3    3    0    0  0.47484933033E-01 -0.36017604457E+01  0.76800402258E+01  0.84828032665E+01  0.51100000000E-03 0.  1.
        -12    1    3    3    0    0  0.14962214884E+02 -0.64520706336E+00 -0.42072241976E+02  0.44658232290E+02  0.00000000000E+00 0.  1.
</event>
<event>
 7    1  0.2090370E-015  0.9000776E+02  0.7816164E-02  0.1186339E+00
        -11   -1    0    0    0    0  0.00000000000E+00  0.00000000000E+00  0.45593999997E+02  0.45594000000E+02  0.51100000000E-03 0. -1.
         11   -1    0    0    0    0 -0.00000000000E+00 -0.00000000000E+00 -0.45593999997E+02  0.45594000000E+02  0.51100000000E-03 0.  1.
    9900012    2    1    2    0    0  0.96529251760E+00  0.61016015486E+00  0.29814500730E+00  0.90007756167E+02  0.90000017749E+02 0.  0.
         12    1    1    2    0    0 -0.96529251760E+00 -0.61016015486E+00 -0.29814500730E+00  0.11802438326E+01  0.00000000000E+00 0. -1.
         11    1    3    3    0    0  0.32616996344E+02 -0.95835864922E+01  0.90121339646E+01  0.35170046054E+02  0.51100000000E-03 0. -1.
        -11    1    3    3    0    0  0.55325607090E+01  0.38626117413E+01  0.10519580637E+02  0.12497622754E+02  0.51100000000E-03 0.  1.
        -12    1    3    3    0    0 -0.37184264536E+02  0.63311349058E+01 -0.19233569595E+02  0.42340087359E+02  0.00000000000E+00 0.  1.
</event>
<event>
 7    1  0.2786740E-015  0.9000780E+02  0.7816164E-02  0.1186339E+00
        -11   -1    0    0    0    0  0.00000000000E+00  0.00000000000E+00  0.45593999997E+02  0.45594000000E+02  0.51100000000E-03 0. -1.
         11   -1    0    0    0    0 -0.00000000000E+00 -0.00000000000E+00 -0.45593999997E+02  0.45594000000E+02  0.51100000000E-03 0.  1.
    9900012    2    1    2    0    0 -0.59594855026E+00  0.25026050229E+00 -0.98746399040E+00  0.90007800811E+02  0.90000062982E+02 0.  0.
         12    1    1    2    0    0  0.59594855026E+00 -0.25026050229E+00  0.98746399040E+00  0.11801991891E+01  0.00000000000E+00 0. -1.
         11    1    3    3    0    0  0.30225483197E+02  0.47088818550E+00  0.21489824680E+02  0.37089272509E+02  0.51100000000E-03 0. -1.
        -11    1    3    3    0    0  0.79218690717E+01  0.37243069725E+01 -0.22643260885E+01  0.90417722218E+01  0.51100000000E-03 0.  1.
        -12    1    3    3    0    0 -0.38743300819E+02 -0.39449346557E+01 -0.20212962582E+02  0.43876756080E+02  0.00000000000E+00 0.  1.
</event>
<event>
 7    1  0.2090370E-015  0.9000775E+02  0.7816164E-02  0.1186339E+00
        -11   -1    0    0    0    0  0.00000000000E+00  0.00000000000E+00  0.45593999997E+02  0.45594000000E+02  0.51100000000E-03 0.  1.
         11   -1    0    0    0    0 -0.00000000000E+00 -0.00000000000E+00 -0.45593999997E+02  0.45594000000E+02  0.51100000000E-03 0. -1.
    9900012    2    1    2    0    0 -0.53423683352E+00 -0.10139874912E+01 -0.28181119675E+00  0.90007746986E+02  0.90000008446E+02 0.  0.
         12    1    1    2    0    0  0.53423683352E+00  0.10139874912E+01  0.28181119675E+00  0.11802530141E+01  0.00000000000E+00 0. -1.
         11    1    3    3    0    0  0.73078729820E+01  0.21355135548E+02  0.32231822004E+02  0.39348915763E+02  0.51100000000E-03 0. -1.
        -11    1    3    3    0    0  0.38565153781E+01 -0.30040740936E+01  0.49095854066E+01  0.69282899151E+01  0.51100000000E-03 0.  1.
        -12    1    3    3    0    0 -0.11698625194E+02 -0.19365048946E+02 -0.37423218607E+02  0.43730541307E+02  0.00000000000E+00 0.  1.
</event>
<event>
 7    1  0.2090370E-015  0.9000773E+02  0.7816164E-02  0.1186339E+00
        -11   -1    0    0    0    0  0.00000000000E+00  0.00000000000E+00  0.45593999997E+02  0.45594000000E+02  0.51100000000E-03 0. -1.
         11   -1    0    0    0    0 -0.00000000000E+00 -0.00000000000E+00 -0.45593999997E+02  0.45594000000E+02  0.51100000000E-03 0.  1.
    9900012    2    1    2    0    0  0.21244499326E+00  0.91458839981E+00 -0.71514067400E+00  0.90007732657E+02  0.89999993929E+02 0.  0.
         12    1    1    2    0    0 -0.21244499326E+00 -0.91458839981E+00  0.71514067400E+00  0.11802673425E+01  0.00000000000E+00 0. -1.
         11    1    3    3    0    0  0.19029898293E+02 -0.30354579082E+02 -0.14082761556E+02  0.38494956470E+02  0.51100000000E-03 0. -1.
        -11    1    3    3    0    0 -0.10166999361E+01 -0.56528006037E+01  0.84678885972E+01  0.10231958316E+02  0.51100000000E-03 0.  1.
        -12    1    3    3    0    0 -0.17800753364E+02  0.36921968086E+02  0.48997322850E+01  0.41280817871E+02  0.00000000000E+00 0.  1.
</event>
<event>
 7    1  0.2090370E-015  0.9000776E+02  0.7816164E-02  0.1186339E+00
        -11   -1    0    0    0    0  0.00000000000E+00  0.00000000000E+00  0.45593999997E+02  0.45594000000E+02  0.51100000000E-03 0. -1.
         11   -1    0    0    0    0 -0.00000000000E+00 -0.00000000000E+00 -0.45593999997E+02  0.45594000000E+02  0.51100000000E-03 0.  1.
    9900012    2    1    2    0    0 -0.81360300540E+00 -0.70204885086E+00 -0.48799891262E+00  0.90007760457E+02  0.90000022095E+02 0.  0.
         12    1    1    2    0    0  0.81360300540E+00  0.70204885086E+00  0.48799891262E+00  0.11802395427E+01  0.00000000000E+00 0. -1.
         11    1    3    3    0    0 -0.62631166650E+01 -0.48328454897E+01  0.51599614464E+01  0.94450107610E+01  0.51100000000E-03 0. -1.
        -11    1    3    3    0    0 -0.36817371784E+02  0.87271571850E+01 -0.33213454392E+01  0.37983068246E+02  0.51100000000E-03 0.  1.
         12    1    3    3    0    0  0.42266885444E+02 -0.45963605462E+01 -0.23266149198E+01  0.42579681450E+02  0.00000000000E+00 0. -1.
</event>
<event>
 7    1  0.2090370E-015  0.9000784E+02  0.7816164E-02  0.1186339E+00
        -11   -1    0    0    0    0  0.00000000000E+00  0.00000000000E+00  0.45593999997E+02  0.45594000000E+02  0.51100000000E-03 0. -1.
         11   -1    0    0    0    0 -0.00000000000E+00 -0.00000000000E+00 -0.45593999997E+02  0.45594000000E+02  0.51100000000E-03 0.  1.
    9900012    2    1    2    0    0  0.77554334406E+00  0.81884655233E+00 -0.34756518037E+00  0.90007839541E+02  0.90000102223E+02 0.  0.
         12    1    1    2    0    0 -0.77554334406E+00 -0.81884655233E+00  0.34756518037E+00  0.11801604592E+01  0.00000000000E+00 0. -1.
         11    1    3    3    0    0  0.41098879108E+01  0.88036627649E+01  0.31193133038E+01  0.10204203666E+02  0.51100000000E-03 0. -1.
        -11    1    3    3    0    0  0.27161651109E+02  0.22886606035E+02 -0.72297234407E+01  0.36246667821E+02  0.51100000000E-03 0.  1.
         12    1    3    3    0    0 -0.30495995676E+02 -0.30871422248E+02  0.37628449565E+01  0.43556968054E+02  0.00000000000E+00 0. -1.
</event>
<event>
 7    1  0.2090370E-015  0.9000781E+02  0.7816164E-02  0.1186339E+00
        -11   -1    0    0    0    0  0.00000000000E+00  0.00000000000E+00  0.45593999997E+02  0.45594000000E+02  0.51100000000E-03 0.  1.
         11   -1    0    0    0    0 -0.00000000000E+00 -0.00000000000E+00 -0.45593999997E+02  0.45594000000E+02  0.51100000000E-03 0. -1.
    9900012    2    1    2    0    0  0.14812910186E+00 -0.11056564159E+01 -0.38525370688E+00  0.90007814100E+02  0.90000076446E+02 0.  0.
         12    1    1    2    0    0 -0.14812910186E+00  0.11056564159E+01  0.38525370688E+00  0.11801859004E+01  0.00000000000E+00 0. -1.
         11    1    3    3    0    0  0.13872663881E+01 -0.67781561368E+00 -0.11831632167E+02  0.11931951309E+02  0.51100000000E-03 0. -1.
        -11    1    3    3    0    0  0.16975067864E+02  0.27481753682E+02 -0.14919167636E+02  0.35580630653E+02  0.51100000000E-03 0.  1.
         12    1    3    3    0    0 -0.18214205150E+02 -0.27909594484E+02  0.26365546096E+02  0.42495232138E+02  0.00000000000E+00 0. -1.
</event>
<event>
 7    1  0.2090370E-015  0.9000771E+02  0.7816164E-02  0.1186339E+00
        -11   -1    0    0    0    0  0.00000000000E+00  0.00000000000E+00  0.45593999997E+02  0.45594000000E+02  0.51100000000E-03 0.  1.
         11   -1    0    0    0    0 -0.00000000000E+00 -0.00000000000E+00 -0.45593999997E+02  0.45594000000E+02  0.51100000000E-03 0. -1.
    9900012    2    1    2    0    0 -0.10662135548E+01 -0.42415910533E+00 -0.27635562394E+00  0.90007705663E+02  0.89999966578E+02 0.  0.
         12    1    1    2    0    0  0.10662135548E+01  0.42415910533E+00  0.27635562394E+00  0.11802943370E+01  0.00000000000E+00 0. -1.
         11    1    3    3    0    0  0.12649149840E+01  0.30534726149E+01  0.85073675342E+01  0.91268289975E+01  0.51100000000E-03 0. -1.
        -11    1    3    3    0    0 -0.40291259781E+02  0.36987230466E+01  0.27764728971E+01  0.40555825339E+02  0.51100000000E-03 0.  1.
         12    1    3    3    0    0  0.37960131242E+02 -0.71763547669E+01 -0.11560196055E+02  0.40325051327E+02  0.00000000000E+00 0. -1.
</event>
<event>
 7    1  0.2090370E-015  0.9000763E+02  0.7816164E-02  0.1186339E+00
        -11   -1    0    0    0    0  0.00000000000E+00  0.00000000000E+00  0.45593999997E+02  0.45594000000E+02  0.51100000000E-03 0. -1.
         11   -1    0    0    0    0 -0.00000000000E+00 -0.00000000000E+00 -0.45593999997E+02  0.45594000000E+02  0.51100000000E-03 0.  1.
    9900012    2    1    2    0    0 -0.62225195687E+00 -0.78186130118E+00 -0.62830983430E+00  0.90007628093E+02  0.89999887983E+02 0.  0.
         12    1    1    2    0    0  0.62225195687E+00  0.78186130118E+00  0.62830983430E+00  0.11803719075E+01  0.00000000000E+00 0. -1.
         11    1    3    3    0    0 -0.97723681323E+01  0.12794628744E+01  0.94550876948E+00  0.99010197078E+01  0.51100000000E-03 0. -1.
        -11    1    3    3    0    0 -0.27828476383E+02 -0.16489888253E+02 -0.18149321760E+02  0.37090947588E+02  0.51100000000E-03 0.  1.
         12    1    3    3    0    0  0.36978592558E+02  0.14428564077E+02  0.16575503156E+02  0.43015660797E+02  0.00000000000E+00 0. -1.
</event>
<event>
 7    1  0.2090370E-015  0.9000758E+02  0.7816164E-02  0.1186339E+00
        -11   -1    0    0    0    0  0.00000000000E+00  0.00000000000E+00  0.45593999997E+02  0.45594000000E+02  0.51100000000E-03 0. -1.
         11   -1    0    0    0    0 -0.00000000000E+00 -0.00000000000E+00 -0.45593999997E+02  0.45594000000E+02  0.51100000000E-03 0.  1.
    9900012    2    1    2    0    0  0.10309812908E+01  0.45598358954E-01  0.57305569281E+00  0.90007578694E+02  0.89999837933E+02 0.  0.
         12    1    1    2    0    0 -0.10309812908E+01 -0.45598358954E-01 -0.57305569281E+00  0.11804213059E+01  0.00000000000E+00 0. -1.
         11    1    3    3    0    0  0.11374860426E+02 -0.37918366421E+02  0.23955854090E+01  0.39660166306E+02  0.51100000000E-03 0. -1.
        -11    1    3    3    0    0 -0.92912313854E+01 -0.26691778529E+01 -0.44770903690E+00  0.96773929708E+01  0.51100000000E-03 0.  1.
        -12    1    3    3    0    0 -0.10526477494E+01  0.40633142633E+02 -0.13748206793E+01  0.40670019417E+02  0.00000000000E+00 0.  1.
</event>
<event>
 7    1  0.2090370E-015  0.9000780E+02  0.7816164E-02  0.1186339E+00
        -11   -1    0    0    0    0  0.00000000000E+00  0.00000000000E+00  0.45593999997E+02  0.45594000000E+02  0.51100000000E-03 0. -1.
         11   -1    0    0    0    0 -0.00000000000E+00 -0.00000000000E+00 -0.45593999997E+02  0.45594000000E+02  0.51100000000E-03 0.  1.
    9900012    2    1    2    0    0 -0.19427587437E+00 -0.97641587371E+00  0.63383407999E+00  0.90007798020E+02  0.90000060153E+02 0.  0.
         12    1    1    2    0    0  0.19427587437E+00  0.97641587371E+00 -0.63383407999E+00  0.11802019805E+01  0.00000000000E+00 0. -1.
         11    1    3    3    0    0  0.29923958641E+02 -0.29130971589E+02  0.65848275142E+01  0.42277851886E+02  0.51100000000E-03 0. -1.
        -11    1    3    3    0    0 -0.54480428542E+01  0.28410174106E+01  0.76892484017E+01  0.98426161214E+01  0.51100000000E-03 0.  1.
        -12    1    3    3    0    0 -0.24670191661E+02  0.25313538305E+02 -0.13640241836E+02  0.37887330012E+02  0.00000000000E+00 0.  1.
</event>
<event>
 7    1  0.2090370E-015  0.9000774E+02  0.7816164E-02  0.1186339E+00
        -11   -1    0    0    0    0  0.00000000000E+00  0.00000000000E+00  0.45593999997E+02  0.45594000000E+02  0.51100000000E-03 0.  1.
         11   -1    0    0    0    0 -0.00000000000E+00 -0.00000000000E+00 -0.45593999997E+02  0.45594000000E+02  0.51100000000E-03 0. -1.
    9900012    2    1    2    0    0  0.65075057195E-01 -0.11407986453E+00  0.11729297580E+01  0.90007740200E+02  0.90000001570E+02 0.  0.
         12    1    1    2    0    0 -0.65075057195E-01  0.11407986453E+00 -0.11729297580E+01  0.11802598001E+01  0.00000000000E+00 0. -1.
         11    1    3    3    0    0  0.40396546754E+02  0.22145047798E+01 -0.11467940493E+02  0.42051143629E+02  0.51100000000E-03 0. -1.
        -11    1    3    3    0    0 -0.22665466605E+01 -0.41267509520E+01  0.83795973321E+01  0.96117094678E+01  0.51100000000E-03 0.  1.
        -12    1    3    3    0    0 -0.38064925036E+02  0.17981663077E+01  0.42612729188E+01  0.38344887103E+02  0.00000000000E+00 0.  1.
</event>
<event>
 7    1  0.2090370E-015  0.9000781E+02  0.7816164E-02  0.1186339E+00
        -11   -1    0    0    0    0  0.00000000000E+00  0.00000000000E+00  0.45593999997E+02  0.45594000000E+02  0.51100000000E-03 0. -1.
         11   -1    0    0    0    0 -0.00000000000E+00 -0.00000000000E+00 -0.45593999997E+02  0.45594000000E+02  0.51100000000E-03 0.  1.
    9900012    2    1    2    0    0 -0.39885401894E+00  0.60011346850E+00 -0.93467872181E+00  0.90007811449E+02  0.90000073760E+02 0.  0.
         12    1    1    2    0    0  0.39885401894E+00 -0.60011346850E+00  0.93467872181E+00  0.11801885513E+01  0.00000000000E+00 0. -1.
         11    1    3    3    0    0 -0.22801470351E+01  0.97308713922E+01  0.15213823234E+01  0.10109576301E+02  0.51100000000E-03 0. -1.
        -11    1    3    3    0    0 -0.27766210842E+02  0.12809438192E+02 -0.22459236599E+02  0.37940235638E+02  0.51100000000E-03 0.  1.
         12    1    3    3    0    0  0.29647503858E+02 -0.21940196116E+02  0.20003175554E+02  0.41957999510E+02  0.00000000000E+00 0. -1.
</event>
<event>
 7    1  0.2090370E-015  0.9000774E+02  0.7816164E-02  0.1186339E+00
        -11   -1    0    0    0    0  0.00000000000E+00  0.00000000000E+00  0.45593999997E+02  0.45594000000E+02  0.51100000000E-03 0.  1.
         11   -1    0    0    0    0 -0.00000000000E+00 -0.00000000000E+00 -0.45593999997E+02  0.45594000000E+02  0.51100000000E-03 0. -1.
    9900012    2    1    2    0    0 -0.14393155277E+00 -0.11258669211E+01 -0.32361948347E+00  0.90007736391E+02  0.89999997712E+02 0.  0.
         12    1    1    2    0    0  0.14393155277E+00  0.11258669211E+01  0.32361948347E+00  0.11802636087E+01  0.00000000000E+00 0. -1.
         11    1    3    3    0    0 -0.26146129780E+02  0.23352406152E+02 -0.22485490282E+01  0.35128491976E+02  0.51100000000E-03 0. -1.
        -11    1    3    3    0    0 -0.73157093478E+01  0.57500504847E+01 -0.26102805694E+01  0.96641734644E+01  0.51100000000E-03 0.  1.
        -12    1    3    3    0    0  0.33317907575E+02 -0.30228323558E+02  0.45352101141E+01  0.45215070950E+02  0.00000000000E+00 0.  1.
</event>
<event>
 7    1  0.2090370E-015  0.9000782E+02  0.7816164E-02  0.1186339E+00
        -11   -1    0    0    0    0  0.00000000000E+00  0.00000000000E+00  0.45593999997E+02  0.45594000000E+02  0.51100000000E-03 0.  1.
         11   -1    0    0    0    0 -0.00000000000E+00 -0.00000000000E+00 -0.45593999997E+02  0.45594000000E+02  0.51100000000E-03 0. -1.
    9900012    2    1    2    0    0  0.68809102643E+00 -0.63399807075E+00 -0.71930802804E+00  0.90007819144E+02  0.90000081556E+02 0.  0.
         12    1    1    2    0    0 -0.68809102643E+00  0.63399807075E+00  0.71930802804E+00  0.11801808563E+01  0.00000000000E+00 0. -1.
         11    1    3    3    0    0 -0.17044295411E+01  0.89692778489E-01  0.83726779513E+01  0.85448733866E+01  0.51100000000E-03 0. -1.
        -11    1    3    3    0    0  0.36281078909E+00 -0.40767737693E+02 -0.26725437274E+01  0.40856854487E+02  0.51100000000E-03 0.  1.
         12    1    3    3    0    0  0.20297097785E+01  0.40044046844E+02 -0.64194422519E+01  0.40606091270E+02  0.00000000000E+00 0. -1.
</event>
<event>
 7    1  0.2090370E-015  0.9000771E+02  0.7816164E-02  0.1186339E+00
        -11   -1    0    0    0    0  0.00000000000E+00  0.00000000000E+00  0.45593999997E+02  0.45594000000E+02  0.51100000000E-03 0. -1.
         11   -1    0    0    0    0 -0.00000000000E+00 -0.00000000000E+00 -0.45593999997E+02  0.45594000000E+02  0.51100000000E-03 0.  1.
    9900012    2    1    2    0    0  0.11628937989E+01  0.19726253486E+00  0.43073933961E-01  0.90007707723E+02  0.89999968665E+02 0.  0.
         12    1    1    2    0    0 -0.11628937989E+01 -0.19726253486E+00 -0.43073933961E-01  0.11802922770E+01  0.00000000000E+00 0. -1.
         11    1    3    3    0    0 -0.81497685298E+01 -0.27032677299E+01 -0.29264905440E+01  0.90714238505E+01  0.51100000000E-03 0. -1.
        -11    1    3    3    0    0 -0.12392504907E+02  0.15158189137E+02 -0.32285803092E+02  0.37758680556E+02  0.51100000000E-03 0.  1.
         12    1    3    3    0    0  0.21705167236E+02 -0.12257658872E+02  0.35255367570E+02  0.43177603317E+02  0.00000000000E+00 0. -1.
</event>
<event>
 7    1  0.2090370E-015  0.9000778E+02  0.7816164E-02  0.1186339E+00
        -11   -1    0    0    0    0  0.00000000000E+00  0.00000000000E+00  0.45593999997E+02  0.45594000000E+02  0.51100000000E-03 0.  1.
         11   -1    0    0    0    0 -0.00000000000E+00 -0.00000000000E+00 -0.45593999997E+02  0.45594000000E+02  0.51100000000E-03 0. -1.
    9900012    2    1    2    0    0  0.31179272087E+00 -0.83450605699E+00  0.77415044740E+00  0.90007777998E+02  0.90000039867E+02 0.  0.
         12    1    1    2    0    0 -0.31179272087E+00  0.83450605699E+00 -0.77415044740E+00  0.11802220025E+01  0.00000000000E+00 0. -1.
         11    1    3    3    0    0  0.14707686613E+02  0.31666363329E+02  0.38480027008E+01  0.35126652802E+02  0.51100000000E-03 0. -1.
        -11    1    3    3    0    0 -0.25589563943E+01  0.93570776065E+01 -0.57895651249E+01  0.11297000653E+02  0.51100000000E-03 0.  1.
        -12    1    3    3    0    0 -0.11836937498E+02 -0.41857946993E+02  0.27157128715E+01  0.43584124543E+02  0.00000000000E+00 0.  1.
</event>
<event>
 7    1  0.2090370E-015  0.9000775E+02  0.7816164E-02  0.1186339E+00
        -11   -1    0    0    0    0  0.00000000000E+00  0.00000000000E+00  0.45593999997E+02  0.45594000000E+02  0.51100000000E-03 0.  1.
         11   -1    0    0    0    0 -0.00000000000E+00 -0.00000000000E+00 -0.45593999997E+02  0.45594000000E+02  0.51100000000E-03 0. -1.
    9900012    2    1    2    0    0  0.62804843854E-01 -0.39707007270E+00  0.11096810892E+01  0.90007745277E+02  0.90000006715E+02 0.  0.
         12    1    1    2    0    0 -0.62804843854E-01  0.39707007270E+00 -0.11096810892E+01  0.11802547229E+01  0.00000000000E+00 0. -1.
         11    1    3    3    0    0  0.36513711710E+02  0.35449675647E+01 -0.10403438602E+02  0.38132000641E+02  0.51100000000E-03 0. -1.
        -11    1    3    3    0    0  0.14622974182E+01 -0.77583094119E+01 -0.60224123025E+01  0.99297094052E+01  0.51100000000E-03 0.  1.
        -12    1    3    3    0    0 -0.37913204284E+02  0.38162717745E+01  0.17535531994E+02  0.41946035231E+02  0.00000000000E+00 0.  1.
</event>
<event>
 7    1  0.2090370E-015  0.9000780E+02  0.7816164E-02  0.1186339E+00
        -11   -1    0    0    0    0  0.00000000000E+00  0.00000000000E+00  0.45593999997E+02  0.45594000000E+02  0.51100000000E-03 0.  1.
         11   -1    0    0    0    0 -0.00000000000E+00 -0.00000000000E+00 -0.45593999997E+02  0.45594000000E+02  0.51100000000E-03 0. -1.
    9900012    2    1    2    0    0 -0.34758170751E+00 -0.11147456472E+01  0.17146060843E+00  0.90007801016E+02  0.90000063189E+02 0.  0.
         12    1    1    2    0    0  0.34758170751E+00  0.11147456472E+01 -0.17146060843E+00  0.11801989839E+01  0.00000000000E+00 0. -1.
         11    1    3    3    0    0 -0.35315556529E+02 -0.26357906744E+02  0.48931060010E+01  0.44338135589E+02  0.51100000000E-03 0. -1.
        -11    1    3    3    0    0  0.53964536422E+01  0.65789251525E+01  0.43311229162E+01  0.95479104547E+01  0.51100000000E-03 0.  1.
        -12    1    3    3    0    0  0.29571521180E+02  0.18664235944E+02 -0.90527683088E+01  0.36121754973E+02  0.00000000000E+00 0.  1.
</event>
<event>
 7    1  0.2090370E-015  0.9000770E+02  0.7816164E-02  0.1186339E+00
        -11   -1    0    0    0    0  0.00000000000E+00  0.00000000000E+00  0.45593999997E+02  0.45594000000E+02  0.51100000000E-03 0. -1.
         11   -1    0    0    0    0 -0.00000000000E+00 -0.00000000000E+00 -0.45593999997E+02  0.45594000000E+02  0.51100000000E-03 0.  1.
    9900012    2    1    2    0    0  0.63985963438E+00 -0.10007651683E+00 -0.98674267831E+00  0.90007704794E+02  0.89999965697E+02 0.  0.
         12    1    1    2    0    0 -0.63985963438E+00  0.10007651683E+00  0.98674267831E+00  0.11802952064E+01  0.00000000000E+00 0. -1.
         11    1    3    3    0    0  0.52203999821E+01 -0.60211782822E+01 -0.88449253107E+01  0.11905455384E+02  0.51100000000E-03 0. -1.
        -11    1    3    3    0    0 -0.12396968940E+02 -0.33084908937E+02  0.13699469525E+02  0.37894214648E+02  0.51100000000E-03 0.  1.
         12    1    3    3    0    0  0.78164285925E+01  0.39006010702E+02 -0.58412868931E+01  0.40208034762E+02  0.00000000000E+00 0. -1.
</event>
<event>
 7    1  0.2090370E-015  0.9000766E+02  0.7816164E-02  0.1186339E+00
        -11   -1    0    0    0    0  0.00000000000E+00  0.00000000000E+00  0.45593999997E+02  0.45594000000E+02  0.51100000000E-03 0.  1.
         11   -1    0    0    0    0 -0.00000000000E+00 -0.00000000000E+00 -0.45593999997E+02  0.45594000000E+02  0.51100000000E-03 0. -1.
    9900012    2    1    2    0    0  0.32320251761E+00  0.53877123886E+00  0.99923326993E+00  0.90007660454E+02  0.89999920772E+02 0.  0.
         12    1    1    2    0    0 -0.32320251761E+00 -0.53877123886E+00 -0.99923326993E+00  0.11803395456E+01  0.00000000000E+00 0. -1.
         11    1    3    3    0    0 -0.25753484331E+01 -0.11395184095E+02 -0.58996504534E+01  0.13087723860E+02  0.51100000000E-03 0. -1.
        -11    1    3    3    0    0 -0.37247535413E+01  0.43589693774E+02 -0.46477701663E+00  0.43751013819E+02  0.51100000000E-03 0.  1.
         12    1    3    3    0    0  0.66233044920E+01 -0.31655738440E+02  0.73636607399E+01  0.33168922776E+02  0.00000000000E+00 0. -1.
</event>
<event>
 7    1  0.2090370E-015  0.9000769E+02  0.7816164E-02  0.1186339E+00
        -11   -1    0    0    0    0  0.00000000000E+00  0.00000000000E+00  0.45593999997E+02  0.45594000000E+02  0.51100000000E-03 0.  1.
         11   -1    0    0    0    0 -0.00000000000E+00 -0.00000000000E+00 -0.45593999997E+02  0.45594000000E+02  0.51100000000E-03 0. -1.
    9900012    2    1    2    0    0  0.89026006465E+00  0.72311898415E+00  0.27870118792E+00  0.90007687160E+02  0.89999947831E+02 0.  0.
         12    1    1    2    0    0 -0.89026006465E+00 -0.72311898415E+00 -0.27870118792E+00  0.11803128399E+01  0.00000000000E+00 0. -1.
         11    1    3    3    0    0  0.36632682501E+02 -0.36834311917E+01  0.67345360974E+01  0.37428265646E+02  0.51100000000E-03 0. -1.
        -11    1    3    3    0    0  0.43830553426E+01  0.98097071602E+01  0.26806319977E+01  0.11073721907E+02  0.51100000000E-03 0.  1.
        -12    1    3    3    0    0 -0.40125477779E+02 -0.54031569843E+01 -0.91364669072E+01  0.41505699607E+02  0.00000000000E+00 0.  1.
</event>
<event>
 7    1  0.2090370E-015  0.9000770E+02  0.7816164E-02  0.1186339E+00
        -11   -1    0    0    0    0  0.00000000000E+00  0.00000000000E+00  0.45593999997E+02  0.45594000000E+02  0.51100000000E-03 0. -1.
         11   -1    0    0    0    0 -0.00000000000E+00 -0.00000000000E+00 -0.45593999997E+02  0.45594000000E+02  0.51100000000E-03 0.  1.
    9900012    2    1    2    0    0 -0.91414841837E+00 -0.74546192775E+00 -0.41615256921E-01  0.90007698070E+02  0.89999958884E+02 0.  0.
         12    1    1    2    0    0  0.91414841837E+00  0.74546192775E+00  0.41615256921E-01  0.11803019301E+01  0.00000000000E+00 0. -1.
         11    1    3    3    0    0 -0.86334078150E+01  0.23045095441E+02 -0.23673047658E+02  0.34147113202E+02  0.51100000000E-03 0.  1.
        -11    1    3    3    0    0  0.22299531821E+02 -0.22711135277E+02  0.25938687530E+02  0.41059472671E+02  0.51100000000E-03 0. -1.
         12    1    3    3    0    0 -0.14580272424E+02 -0.10794220912E+01 -0.23072551288E+01  0.14801112196E+02  0.00000000000E+00 0. -1.
</event>
<event>
 7    1  0.2090370E-015  0.9000774E+02  0.7816164E-02  0.1186339E+00
        -11   -1    0    0    0    0  0.00000000000E+00  0.00000000000E+00  0.45593999997E+02  0.45594000000E+02  0.51100000000E-03 0.  1.
         11   -1    0    0    0    0 -0.00000000000E+00 -0.00000000000E+00 -0.45593999997E+02  0.45594000000E+02  0.51100000000E-03 0. -1.
    9900012    2    1    2    0    0 -0.35872456487E+00 -0.16528791196E+00  0.11122055435E+01  0.90007743851E+02  0.90000005269E+02 0.  0.
         12    1    1    2    0    0  0.35872456487E+00  0.16528791196E+00 -0.11122055435E+01  0.11802561495E+01  0.00000000000E+00 0. -1.
         11    1    3    3    0    0 -0.40832213030E+02  0.55956489220E+01 -0.95584355943E+00  0.41224926257E+02  0.51100000000E-03 0. -1.
        -11    1    3    3    0    0  0.23479736563E-01 -0.77705477540E+01  0.28462276392E+01  0.82754441409E+01  0.51100000000E-03 0.  1.
        -12    1    3    3    0    0  0.40450008728E+02  0.20096109200E+01 -0.77817853625E+00  0.40507373452E+02  0.00000000000E+00 0.  1.
</event>
<event>
 7    1  0.2090370E-015  0.9000775E+02  0.7816164E-02  0.1186339E+00
        -11   -1    0    0    0    0  0.00000000000E+00  0.00000000000E+00  0.45593999997E+02  0.45594000000E+02  0.51100000000E-03 0.  1.
         11   -1    0    0    0    0 -0.00000000000E+00 -0.00000000000E+00 -0.45593999997E+02  0.45594000000E+02  0.51100000000E-03 0. -1.
    9900012    2    1    2    0    0 -0.43432389900E+00 -0.10353979441E+01  0.36373691033E+00  0.90007749733E+02  0.90000011230E+02 0.  0.
         12    1    1    2    0    0  0.43432389900E+00  0.10353979441E+01 -0.36373691033E+00  0.11802502666E+01  0.00000000000E+00 0. -1.
         11    1    3    3    0    0  0.69487127798E+01  0.56984133073E+01  0.28640462348E+01  0.94318229740E+01  0.51100000000E-03 0. -1.
        -11    1    3    3    0    0  0.28426616537E+02 -0.26724671978E+02  0.33012881345E+01  0.39155831285E+02  0.51100000000E-03 0.  1.
         12    1    3    3    0    0 -0.35809653215E+02  0.19990860727E+02 -0.58015974590E+01  0.41420095474E+02  0.00000000000E+00 0. -1.
</event>
<event>
 7    1  0.2090370E-015  0.9000775E+02  0.7816164E-02  0.1186339E+00
        -11   -1    0    0    0    0  0.00000000000E+00  0.00000000000E+00  0.45593999997E+02  0.45594000000E+02  0.51100000000E-03 0.  1.
         11   -1    0    0    0    0 -0.00000000000E+00 -0.00000000000E+00 -0.45593999997E+02  0.45594000000E+02  0.51100000000E-03 0. -1.
    9900012    2    1    2    0    0 -0.48251638304E+00 -0.88791753267E+00  0.60972371951E+00  0.90007753153E+02  0.90000014695E+02 0.  0.
         12    1    1    2    0    0  0.48251638304E+00  0.88791753267E+00 -0.60972371951E+00  0.11802468466E+01  0.00000000000E+00 0. -1.
         11    1    3    3    0    0  0.71561055055E+01 -0.15777401678E+01  0.50060053139E+01  0.88746379930E+01  0.51100000000E-03 0. -1.
        -11    1    3    3    0    0 -0.10608430353E+02 -0.32034318465E+02  0.20875364805E+02  0.39680186618E+02  0.51100000000E-03 0.  1.
         12    1    3    3    0    0  0.29698084648E+01  0.32724141100E+02 -0.25271646399E+02  0.41452928542E+02  0.00000000000E+00 0. -1.
</event>
<event>
 7    1  0.2090370E-015  0.9000761E+02  0.7816164E-02  0.1186339E+00
        -11   -1    0    0    0    0  0.00000000000E+00  0.00000000000E+00  0.45593999997E+02  0.45594000000E+02  0.51100000000E-03 0. -1.
         11   -1    0    0    0    0 -0.00000000000E+00 -0.00000000000E+00 -0.45593999997E+02  0.45594000000E+02  0.51100000000E-03 0.  1.
    9900012    2    1    2    0    0 -0.28197857897E+00  0.10051641178E+01  0.55087161418E+00  0.90007607541E+02  0.89999867160E+02 0.  0.
         12    1    1    2    0    0  0.28197857897E+00 -0.10051641178E+01 -0.55087161418E+00  0.11803924593E+01  0.00000000000E+00 0. -1.
         11    1    3    3    0    0 -0.34577401124E+02  0.11957225018E+02  0.15380943476E+02  0.39688100497E+02  0.51100000000E-03 0. -1.
        -11    1    3    3    0    0 -0.50951346178E+01 -0.64227054613E+01 -0.70488841972E+00  0.82285120260E+01  0.51100000000E-03 0.  1.
         12    1    3    3    0    0  0.39390557163E+02 -0.45293554391E+01 -0.14125183442E+02  0.42090995017E+02  0.00000000000E+00 0. -1.
</event>
<event>
 7    1  0.2090370E-015  0.9000774E+02  0.7816164E-02  0.1186339E+00
        -11   -1    0    0    0    0  0.00000000000E+00  0.00000000000E+00  0.45593999997E+02  0.45594000000E+02  0.51100000000E-03 0.  1.
         11   -1    0    0    0    0 -0.00000000000E+00 -0.00000000000E+00 -0.45593999997E+02  0.45594000000E+02  0.51100000000E-03 0. -1.
    9900012    2    1    2    0    0  0.92022698971E+00 -0.63430933565E+00 -0.37927112012E+00  0.90007740440E+02  0.90000001814E+02 0.  0.
         12    1    1    2    0    0 -0.92022698971E+00  0.63430933565E+00  0.37927112012E+00  0.11802595598E+01  0.00000000000E+00 0. -1.
         11    1    3    3    0    0  0.88403487348E+01  0.58838230667E+00 -0.16599246245E+01  0.90140617655E+01  0.51100000000E-03 0. -1.
        -11    1    3    3    0    0  0.19196358671E+02  0.71910800214E+01  0.32733085734E+02  0.38622101445E+02  0.51100000000E-03 0.  1.
         12    1    3    3    0    0 -0.27116480416E+02 -0.84137716637E+01 -0.31452432230E+02  0.42371577230E+02  0.00000000000E+00 0. -1.
</event>
<event>
 7    1  0.2764294E-015  0.9000772E+02  0.7816164E-02  0.1186339E+00
        -11   -1    0    0    0    0  0.00000000000E+00  0.00000000000E+00  0.45593999997E+02  0.45594000000E+02  0.51100000000E-03 0. -1.
         11   -1    0    0    0    0 -0.00000000000E+00 -0.00000000000E+00 -0.45593999997E+02  0.45594000000E+02  0.51100000000E-03 0.  1.
    9900012    2    1    2    0    0  0.77198297221E+00  0.42677241770E+00 -0.78419267663E+00  0.90007724371E+02  0.89999985533E+02 0.  0.
         12    1    1    2    0    0 -0.77198297221E+00 -0.42677241770E+00  0.78419267663E+00  0.11802756288E+01  0.00000000000E+00 0. -1.
         11    1    3    3    0    0 -0.24621929770E+02 -0.25956335076E+01  0.25680295878E+02  0.35671477900E+02  0.51100000000E-03 0. -1.
        -11    1    3    3    0    0 -0.78102638073E+01  0.49532394572E+01  0.31825306348E+01  0.97807619010E+01  0.51100000000E-03 0.  1.
        -12    1    3    3    0    0  0.33204176550E+02 -0.19308335319E+01 -0.29647019190E+02  0.44555484570E+02  0.00000000000E+00 0.  1.
</event>
<event>
 7    1  0.2090370E-015  0.9000774E+02  0.7816164E-02  0.1186339E+00
        -11   -1    0    0    0    0  0.00000000000E+00  0.00000000000E+00  0.45593999997E+02  0.45594000000E+02  0.51100000000E-03 0. -1.
         11   -1    0    0    0    0 -0.00000000000E+00 -0.00000000000E+00 -0.45593999997E+02  0.45594000000E+02  0.51100000000E-03 0.  1.
    9900012    2    1    2    0    0  0.59736295165E+00 -0.66087761364E+00 -0.77422184367E+00  0.90007736818E+02  0.89999998144E+02 0.  0.
         12    1    1    2    0    0 -0.59736295165E+00  0.66087761364E+00  0.77422184367E+00  0.11802631823E+01  0.00000000000E+00 0. -1.
         11    1    3    3    0    0 -0.61760118204E+01  0.23479361557E+01  0.68354673743E+01  0.95068154860E+01  0.51100000000E-03 0. -1.
        -11    1    3    3    0    0  0.86565911401E+01  0.28390400642E+02  0.22277230681E+02  0.37111001413E+02  0.51100000000E-03 0.  1.
         12    1    3    3    0    0 -0.18832163680E+01 -0.31399214411E+02 -0.29886919899E+02  0.43389919919E+02  0.00000000000E+00 0. -1.
</event>
<event>
 7    1  0.2090370E-015  0.9000771E+02  0.7816164E-02  0.1186339E+00
        -11   -1    0    0    0    0  0.00000000000E+00  0.00000000000E+00  0.45593999997E+02  0.45594000000E+02  0.51100000000E-03 0. -1.
         11   -1    0    0    0    0 -0.00000000000E+00 -0.00000000000E+00 -0.45593999997E+02  0.45594000000E+02  0.51100000000E-03 0.  1.
    9900012    2    1    2    0    0  0.57503019814E+00 -0.66165083632E+00 -0.79033711586E+00  0.90007714308E+02  0.89999975337E+02 0.  0.
         12    1    1    2    0    0 -0.57503019814E+00  0.66165083632E+00  0.79033711586E+00  0.11802856920E+01  0.00000000000E+00 0. -1.
         11    1    3    3    0    0  0.64293936937E+01 -0.78737878349E+01 -0.46615818154E+01  0.11183200947E+02  0.51100000000E-03 0. -1.
        -11    1    3    3    0    0  0.32283982044E+02 -0.13588885420E+02 -0.14524871248E+01  0.35057424645E+02  0.51100000000E-03 0.  1.
         12    1    3    3    0    0 -0.38138345540E+02  0.20801022419E+02  0.53237318243E+01  0.43767088717E+02  0.00000000000E+00 0. -1.
</event>
<event>
 7    1  0.2090370E-015  0.9000768E+02  0.7816164E-02  0.1186339E+00
        -11   -1    0    0    0    0  0.00000000000E+00  0.00000000000E+00  0.45593999997E+02  0.45594000000E+02  0.51100000000E-03 0.  1.
         11   -1    0    0    0    0 -0.00000000000E+00 -0.00000000000E+00 -0.45593999997E+02  0.45594000000E+02  0.51100000000E-03 0. -1.
    9900012    2    1    2    0    0 -0.57458491615E+00 -0.69333183419E+00  0.76308945376E+00  0.90007677005E+02  0.89999937541E+02 0.  0.
         12    1    1    2    0    0  0.57458491615E+00  0.69333183419E+00 -0.76308945376E+00  0.11803229950E+01  0.00000000000E+00 0. -1.
         11    1    3    3    0    0  0.18669436243E+02  0.27612609584E+02  0.70685600957E+01  0.34072989299E+02  0.51100000000E-03 0. -1.
        -11    1    3    3    0    0  0.12192561577E+02 -0.13949233898E+01  0.46559653593E+01  0.13125638375E+02  0.51100000000E-03 0.  1.
        -12    1    3    3    0    0 -0.31436582736E+02 -0.26911018028E+02 -0.10961436001E+02  0.42809049331E+02  0.00000000000E+00 0.  1.
</event>
<event>
 7    1  0.2090370E-015  0.9000767E+02  0.7816164E-02  0.1186339E+00
        -11   -1    0    0    0    0  0.00000000000E+00  0.00000000000E+00  0.45593999997E+02  0.45594000000E+02  0.51100000000E-03 0. -1.
         11   -1    0    0    0    0 -0.00000000000E+00 -0.00000000000E+00 -0.45593999997E+02  0.45594000000E+02  0.51100000000E-03 0.  1.
    9900012    2    1    2    0    0 -0.95858609694E+00  0.62260624441E+00 -0.29435311038E+00  0.90007673946E+02  0.89999934442E+02 0.  0.
         12    1    1    2    0    0  0.95858609694E+00 -0.62260624441E+00  0.29435311038E+00  0.11803260543E+01  0.00000000000E+00 0. -1.
         11    1    3    3    0    0 -0.36288773889E+02  0.13945885955E+02  0.30053025551E+01  0.38992238832E+02  0.51100000000E-03 0. -1.
        -11    1    3    3    0    0  0.27482018705E+01 -0.16981479182E+02 -0.57482778711E+01  0.18137418435E+02  0.51100000000E-03 0.  1.
        -12    1    3    3    0    0  0.32581985922E+02  0.36581994718E+01  0.24486222056E+01  0.32878016678E+02  0.00000000000E+00 0.  1.
</event>
<event>
 7    1  0.2090370E-015  0.9000781E+02  0.7816164E-02  0.1186339E+00
        -11   -1    0    0    0    0  0.00000000000E+00  0.00000000000E+00  0.45593999997E+02  0.45594000000E+02  0.51100000000E-03 0.  1.
         11   -1    0    0    0    0 -0.00000000000E+00 -0.00000000000E+00 -0.45593999997E+02  0.45594000000E+02  0.51100000000E-03 0. -1.
    9900012    2    1    2    0    0 -0.96957297162E+00 -0.37365160742E-01  0.67184343054E+00  0.90007812940E+02  0.90000075270E+02 0.  0.
         12    1    1    2    0    0  0.96957297162E+00  0.37365160742E-01 -0.67184343054E+00  0.11801870605E+01  0.00000000000E+00 0. -1.
         11    1    3    3    0    0 -0.16992007721E+02  0.58977775970E+01  0.15008568415E+01  0.18048952283E+02  0.51100000000E-03 0. -1.
        -11    1    3    3    0    0 -0.14128078300E+02 -0.27385497158E+02 -0.12360009433E+02  0.33201474131E+02  0.51100000000E-03 0.  1.
         12    1    3    3    0    0  0.30150513049E+02  0.21450354400E+02  0.11530996022E+02  0.38757386526E+02  0.00000000000E+00 0. -1.
</event>
<event>
 7    1  0.2090370E-015  0.9000766E+02  0.7816164E-02  0.1186339E+00
        -11   -1    0    0    0    0  0.00000000000E+00  0.00000000000E+00  0.45593999997E+02  0.45594000000E+02  0.51100000000E-03 0. -1.
         11   -1    0    0    0    0 -0.00000000000E+00 -0.00000000000E+00 -0.45593999997E+02  0.45594000000E+02  0.51100000000E-03 0.  1.
    9900012    2    1    2    0    0  0.75314036466E-01 -0.10353995645E+01  0.56167114655E+00  0.90007661515E+02  0.89999921847E+02 0.  0.
         12    1    1    2    0    0 -0.75314036466E-01  0.10353995645E+01 -0.56167114655E+00  0.11803384849E+01  0.00000000000E+00 0. -1.
         11    1    3    3    0    0  0.18397843879E+02 -0.33288986337E+02  0.89877242035E+00  0.38045302770E+02  0.51100000000E-03 0. -1.
        -11    1    3    3    0    0  0.63792017196E+01 -0.30144529872E+01  0.48951404867E+01  0.85874060133E+01  0.51100000000E-03 0.  1.
        -12    1    3    3    0    0 -0.24701731562E+02  0.35268039759E+02 -0.52322417605E+01  0.43374952732E+02  0.00000000000E+00 0.  1.
</event>
<event>
 7    1  0.2090370E-015  0.9000818E+02  0.7816164E-02  0.1186338E+00
        -11   -1    0    0    0    0  0.00000000000E+00  0.00000000000E+00  0.45593999997E+02  0.45594000000E+02  0.51100000000E-03 0. -1.
         11   -1    0    0    0    0 -0.00000000000E+00 -0.00000000000E+00 -0.45593999997E+02  0.45594000000E+02  0.51100000000E-03 0.  1.
    9900012    2    1    2    0    0  0.48981132817E+00  0.94154878526E+00 -0.51531321679E+00  0.90008179266E+02  0.90000446432E+02 0.  0.
         12    1    1    2    0    0 -0.48981132817E+00 -0.94154878526E+00  0.51531321679E+00  0.11798207337E+01  0.00000000000E+00 0. -1.
         11    1    3    3    0    0 -0.72458489046E+01  0.24550368906E+02  0.25214788452E+02  0.35930606685E+02  0.51100000000E-03 0. -1.
        -11    1    3    3    0    0  0.20030908935E+01 -0.12990145524E+01  0.10707098891E+02  0.10970040057E+02  0.51100000000E-03 0.  1.
        -12    1    3    3    0    0  0.57325693393E+01 -0.22309805569E+02 -0.36437200560E+02  0.43107532525E+02  0.00000000000E+00 0.  1.
</event>
<event>
 7    1  0.2691225E-015  0.9000777E+02  0.7816164E-02  0.1186339E+00
        -11   -1    0    0    0    0  0.00000000000E+00  0.00000000000E+00  0.45593999997E+02  0.45594000000E+02  0.51100000000E-03 0.  1.
         11   -1    0    0    0    0 -0.00000000000E+00 -0.00000000000E+00 -0.45593999997E+02  0.45594000000E+02  0.51100000000E-03 0. -1.
    9900012    2    1    2    0    0  0.68018223255E+00 -0.76097136500E+00  0.59262784430E+00  0.90007774153E+02  0.90000035972E+02 0.  0.
         12    1    1    2    0    0 -0.68018223255E+00  0.76097136500E+00 -0.59262784430E+00  0.11802258469E+01  0.00000000000E+00 0. -1.
         11    1    3    3    0    0 -0.77854447711E+00 -0.33385036220E+02 -0.15181119257E+02  0.36682872803E+02  0.51100000000E-03 0. -1.
        -11    1    3    3    0    0 -0.28052795343E+01 -0.46174556635E+01 -0.74694855695E+01  0.92186606947E+01  0.51100000000E-03 0.  1.
        -12    1    3    3    0    0  0.42640062439E+01  0.37241520518E+02  0.23243232671E+02  0.44106240656E+02  0.00000000000E+00 0.  1.
</event>
<event>
 7    1  0.2090370E-015  0.9000777E+02  0.7816164E-02  0.1186339E+00
        -11   -1    0    0    0    0  0.00000000000E+00  0.00000000000E+00  0.45593999997E+02  0.45594000000E+02  0.51100000000E-03 0.  1.
         11   -1    0    0    0    0 -0.00000000000E+00 -0.00000000000E+00 -0.45593999997E+02  0.45594000000E+02  0.51100000000E-03 0. -1.
    9900012    2    1    2    0    0 -0.12294907582E+00  0.62208885065E+00  0.99540033527E+00  0.90007774242E+02  0.90000036062E+02 0.  0.
         12    1    1    2    0    0  0.12294907582E+00 -0.62208885065E+00 -0.99540033527E+00  0.11802257584E+01  0.00000000000E+00 0. -1.
         11    1    3    3    0    0  0.43193473233E+02  0.78020849230E+01 -0.18309231570E+01  0.43930637817E+02  0.51100000000E-03 0. -1.
        -11    1    3    3    0    0 -0.60614464276E+01  0.47623007638E+00 -0.42137055922E+01  0.73975159992E+01  0.51100000000E-03 0.  1.
        -12    1    3    3    0    0 -0.37254975882E+02 -0.76562261488E+01  0.70400290845E+01  0.38679620426E+02  0.00000000000E+00 0.  1.
</event>
<event>
 7    1  0.2090370E-015  0.9000784E+02  0.7816164E-02  0.1186339E+00
        -11   -1    0    0    0    0  0.00000000000E+00  0.00000000000E+00  0.45593999997E+02  0.45594000000E+02  0.51100000000E-03 0.  1.
         11   -1    0    0    0    0 -0.00000000000E+00 -0.00000000000E+00 -0.45593999997E+02  0.45594000000E+02  0.51100000000E-03 0. -1.
    9900012    2    1    2    0    0  0.33153512042E-01 -0.11725871599E+01 -0.12933865382E+00  0.90007835482E+02  0.90000098110E+02 0.  0.
         12    1    1    2    0    0 -0.33153512042E-01  0.11725871599E+01  0.12933865382E+00  0.11801645183E+01  0.00000000000E+00 0. -1.
         11    1    3    3    0    0 -0.67788862199E+01 -0.68189807631E+01 -0.61768595583E+01  0.11428271579E+02  0.51100000000E-03 0. -1.
        -11    1    3    3    0    0 -0.22392064606E+02  0.15809539759E+02  0.29125175749E+02  0.39995274313E+02  0.51100000000E-03 0.  1.
         12    1    3    3    0    0  0.29204104338E+02 -0.10163146155E+02 -0.23077654845E+02  0.38584289589E+02  0.00000000000E+00 0. -1.
</event>
<event>
 7    1  0.2090370E-015  0.9000820E+02  0.7816164E-02  0.1186338E+00
        -11   -1    0    0    0    0  0.00000000000E+00  0.00000000000E+00  0.45593999997E+02  0.45594000000E+02  0.51100000000E-03 0. -1.
         11   -1    0    0    0    0 -0.00000000000E+00 -0.00000000000E+00 -0.45593999997E+02  0.45594000000E+02  0.51100000000E-03 0.  1.
    9900012    2    1    2    0    0 -0.69042699106E+00 -0.44614564730E+00 -0.84627870205E+00  0.90008202132E+02  0.90000469599E+02 0.  0.
         12    1    1    2    0    0  0.69042699106E+00  0.44614564730E+00  0.84627870205E+00  0.11797978683E+01  0.00000000000E+00 0. -1.
         11    1    3    3    0    0  0.19264038474E+02  0.35656204283E+02 -0.53261238343E+01  0.40875856903E+02  0.51100000000E-03 0. -1.
        -11    1    3    3    0    0 -0.51097748393E+01 -0.11927646455E+01 -0.76755968385E+01  0.92977025923E+01  0.51100000000E-03 0.  1.
        -12    1    3    3    0    0 -0.14844690626E+02 -0.34909585284E+02  0.12155441971E+02  0.39834642637E+02  0.00000000000E+00 0.  1.
</event>
<event>
 7    1  0.2090370E-015  0.9000771E+02  0.7816164E-02  0.1186339E+00
        -11   -1    0    0    0    0  0.00000000000E+00  0.00000000000E+00  0.45593999997E+02  0.45594000000E+02  0.51100000000E-03 0. -1.
         11   -1    0    0    0    0 -0.00000000000E+00 -0.00000000000E+00 -0.45593999997E+02  0.45594000000E+02  0.51100000000E-03 0.  1.
    9900012    2    1    2    0    0 -0.15451012311E+00 -0.83993074386E+00 -0.81470129578E+00  0.90007705446E+02  0.89999966358E+02 0.  0.
         12    1    1    2    0    0  0.15451012311E+00  0.83993074386E+00  0.81470129578E+00  0.11802945539E+01  0.00000000000E+00 0. -1.
         11    1    3    3    0    0  0.69319904454E+01 -0.20795188366E+01 -0.65390627304E+01  0.97537803841E+01  0.51100000000E-03 0. -1.
        -11    1    3    3    0    0  0.14999397105E+02  0.35180793202E+02 -0.44446287659E+01  0.38502270699E+02  0.51100000000E-03 0.  1.
         12    1    3    3    0    0 -0.22085897674E+02 -0.33941205110E+02  0.10168990201E+02  0.41751654363E+02  0.00000000000E+00 0. -1.
</event>
<event>
 7    1  0.2090370E-015  0.9000785E+02  0.7816164E-02  0.1186339E+00
        -11   -1    0    0    0    0  0.00000000000E+00  0.00000000000E+00  0.45593999997E+02  0.45594000000E+02  0.51100000000E-03 0. -1.
         11   -1    0    0    0    0 -0.00000000000E+00 -0.00000000000E+00 -0.45593999997E+02  0.45594000000E+02  0.51100000000E-03 0.  1.
    9900012    2    1    2    0    0 -0.30700968446E+00 -0.60519735874E+00 -0.96552698628E+00  0.90007846980E+02  0.90000109760E+02 0.  0.
         12    1    1    2    0    0  0.30700968446E+00  0.60519735874E+00  0.96552698628E+00  0.11801530200E+01  0.00000000000E+00 0. -1.
         11    1    3    3    0    0  0.62182926013E+01  0.33555883998E+01 -0.81843933744E+01  0.10812558973E+02  0.51100000000E-03 0. -1.
        -11    1    3    3    0    0  0.13708688179E+02 -0.93940835855E+01 -0.31248436986E+02  0.35392679360E+02  0.51100000000E-03 0.  1.
         12    1    3    3    0    0 -0.20233990464E+02  0.54332978269E+01  0.38467303374E+02  0.43802608646E+02  0.00000000000E+00 0. -1.
</event>
<event>
 7    1  0.2090370E-015  0.9000791E+02  0.7816164E-02  0.1186339E+00
        -11   -1    0    0    0    0  0.00000000000E+00  0.00000000000E+00  0.45593999997E+02  0.45594000000E+02  0.51100000000E-03 0.  1.
         11   -1    0    0    0    0 -0.00000000000E+00 -0.00000000000E+00 -0.45593999997E+02  0.45594000000E+02  0.51100000000E-03 0. -1.
    9900012    2    1    2    0    0  0.10946763152E+01  0.19676905372E+00 -0.39441952643E+00  0.90007914809E+02  0.90000178484E+02 0.  0.
         12    1    1    2    0    0 -0.10946763152E+01 -0.19676905372E+00  0.39441952643E+00  0.11800851912E+01  0.00000000000E+00 0. -1.
         11    1    3    3    0    0 -0.16857131837E+01 -0.29527844625E+01  0.62325431094E+01  0.70996590687E+01  0.51100000000E-03 0. -1.
        -11    1    3    3    0    0  0.31668921799E+02  0.88473875038E+01  0.23781254923E+02  0.40580105465E+02  0.51100000000E-03 0.  1.
         12    1    3    3    0    0 -0.28888532300E+02 -0.56978339875E+01 -0.30408217559E+02  0.42328150275E+02  0.00000000000E+00 0. -1.
</event>
<event>
 7    1  0.2090370E-015  0.9000776E+02  0.7816164E-02  0.1186339E+00
        -11   -1    0    0    0    0  0.00000000000E+00  0.00000000000E+00  0.45593999997E+02  0.45594000000E+02  0.51100000000E-03 0. -1.
         11   -1    0    0    0    0 -0.00000000000E+00 -0.00000000000E+00 -0.45593999997E+02  0.45594000000E+02  0.51100000000E-03 0.  1.
    9900012    2    1    2    0    0  0.64212632761E+00  0.91176108220E+00 -0.38644794777E+00  0.90007755742E+02  0.90000017318E+02 0.  0.
         12    1    1    2    0    0 -0.64212632761E+00 -0.91176108220E+00  0.38644794777E+00  0.11802442578E+01  0.00000000000E+00 0. -1.
         11    1    3    3    0    0 -0.58643479847E+01 -0.24117150213E+01 -0.31504265438E+01  0.70804049530E+01  0.51100000000E-03 0. -1.
        -11    1    3    3    0    0 -0.28749331658E+02  0.13846151058E+02 -0.21838214132E+02  0.38667138071E+02  0.51100000000E-03 0.  1.
         12    1    3    3    0    0  0.35255805970E+02 -0.10522674954E+02  0.24602192728E+02  0.44260212718E+02  0.00000000000E+00 0. -1.
</event>
<event>
 7    1  0.2090370E-015  0.9000772E+02  0.7816164E-02  0.1186339E+00
        -11   -1    0    0    0    0  0.00000000000E+00  0.00000000000E+00  0.45593999997E+02  0.45594000000E+02  0.51100000000E-03 0. -1.
         11   -1    0    0    0    0 -0.00000000000E+00 -0.00000000000E+00 -0.45593999997E+02  0.45594000000E+02  0.51100000000E-03 0.  1.
    9900012    2    1    2    0    0 -0.47182556766E+00  0.52152986863E+00 -0.94786620572E+00  0.90007719053E+02  0.89999980144E+02 0.  0.
         12    1    1    2    0    0  0.47182556766E+00 -0.52152986863E+00  0.94786620572E+00  0.11802809471E+01  0.00000000000E+00 0. -1.
         11    1    3    3    0    0  0.31715948982E+01  0.40110487908E+01  0.65006029343E+01  0.82707536156E+01  0.51100000000E-03 0. -1.
        -11    1    3    3    0    0 -0.11519271937E+02  0.14182582483E+02 -0.39940188760E+02  0.43921042226E+02  0.51100000000E-03 0.  1.
         12    1    3    3    0    0  0.78758514713E+01 -0.17672101405E+02  0.32491719620E+02  0.37815923211E+02  0.00000000000E+00 0. -1.
</event>
<event>
 7    1  0.2090370E-015  0.9000773E+02  0.7816164E-02  0.1186339E+00
        -11   -1    0    0    0    0  0.00000000000E+00  0.00000000000E+00  0.45593999997E+02  0.45594000000E+02  0.51100000000E-03 0. -1.
         11   -1    0    0    0    0 -0.00000000000E+00 -0.00000000000E+00 -0.45593999997E+02  0.45594000000E+02  0.51100000000E-03 0.  1.
    9900012    2    1    2    0    0  0.71844825960E+00  0.91042946387E+00 -0.21903932173E+00  0.90007733956E+02  0.89999995244E+02 0.  0.
         12    1    1    2    0    0 -0.71844825960E+00 -0.91042946387E+00  0.21903932173E+00  0.11802660441E+01  0.00000000000E+00 0. -1.
         11    1    3    3    0    0 -0.59794283596E+01 -0.86460850614E+01 -0.72366630565E+01  0.12762352559E+02  0.51100000000E-03 0. -1.
        -11    1    3    3    0    0 -0.45853764356E+01  0.17263492217E+02 -0.31590439115E+02  0.36290628051E+02  0.51100000000E-03 0.  1.
         12    1    3    3    0    0  0.11283253055E+02 -0.77069776921E+01  0.38608062849E+02  0.40954753346E+02  0.00000000000E+00 0. -1.
</event>
<event>
 7    1  0.2090370E-015  0.9000770E+02  0.7816164E-02  0.1186339E+00
        -11   -1    0    0    0    0  0.00000000000E+00  0.00000000000E+00  0.45593999997E+02  0.45594000000E+02  0.51100000000E-03 0. -1.
         11   -1    0    0    0    0 -0.00000000000E+00 -0.00000000000E+00 -0.45593999997E+02  0.45594000000E+02  0.51100000000E-03 0.  1.
    9900012    2    1    2    0    0 -0.90136959615E+00  0.63768544468E+00  0.41713291091E+00  0.90007699301E+02  0.89999960132E+02 0.  0.
         12    1    1    2    0    0  0.90136959615E+00 -0.63768544468E+00 -0.41713291091E+00  0.11803006992E+01  0.00000000000E+00 0. -1.
         11    1    3    3    0    0  0.83622589236E+01  0.24250249735E+01  0.27476952187E+02  0.28823445703E+02  0.51100000000E-03 0. -1.
        -11    1    3    3    0    0  0.45520143408E+01  0.22332401318E+02 -0.58755708325E+00  0.22799171186E+02  0.51100000000E-03 0.  1.
        -12    1    3    3    0    0 -0.13815642861E+02 -0.24119740846E+02 -0.26472262193E+02  0.38385082412E+02  0.00000000000E+00 0.  1.
</event>
<event>
 7    1  0.2090370E-015  0.9000758E+02  0.7816164E-02  0.1186339E+00
        -11   -1    0    0    0    0  0.00000000000E+00  0.00000000000E+00  0.45593999997E+02  0.45594000000E+02  0.51100000000E-03 0. -1.
         11   -1    0    0    0    0 -0.00000000000E+00 -0.00000000000E+00 -0.45593999997E+02  0.45594000000E+02  0.51100000000E-03 0.  1.
    9900012    2    1    2    0    0  0.60492380450E+00  0.44016672017E-01 -0.10126775409E+01  0.90007582244E+02  0.89999841530E+02 0.  0.
         12    1    1    2    0    0 -0.60492380450E+00 -0.44016672017E-01  0.10126775409E+01  0.11804177560E+01  0.00000000000E+00 0. -1.
         11    1    3    3    0    0 -0.72678231897E+01  0.53287285296E+01 -0.32318948387E+01  0.95740141095E+01  0.51100000000E-03 0. -1.
        -11    1    3    3    0    0 -0.12428361025E+02  0.33621442989E+02 -0.41697015708E+01  0.36086728833E+02  0.51100000000E-03 0.  1.
         12    1    3    3    0    0  0.20301108020E+02 -0.38906154846E+02  0.63889188686E+01  0.44346839302E+02  0.00000000000E+00 0. -1.
</event>
<event>
 7    1  0.2090370E-015  0.9000769E+02  0.7816164E-02  0.1186339E+00
        -11   -1    0    0    0    0  0.00000000000E+00  0.00000000000E+00  0.45593999997E+02  0.45594000000E+02  0.51100000000E-03 0. -1.
         11   -1    0    0    0    0 -0.00000000000E+00 -0.00000000000E+00 -0.45593999997E+02  0.45594000000E+02  0.51100000000E-03 0.  1.
    9900012    2    1    2    0    0 -0.90045130189E+00 -0.67117650157E+00 -0.36311047520E+00  0.90007686626E+02  0.89999947290E+02 0.  0.
         12    1    1    2    0    0  0.90045130189E+00  0.67117650157E+00  0.36311047520E+00  0.11803133739E+01  0.00000000000E+00 0. -1.
         11    1    3    3    0    0 -0.44538698515E+01 -0.19486967120E+01 -0.23648615805E+01  0.54061951579E+01  0.51100000000E-03 0. -1.
        -11    1    3    3    0    0  0.36821136401E+01  0.16545305488E+02 -0.38095207210E+02  0.41695921949E+02  0.51100000000E-03 0.  1.
         12    1    3    3    0    0 -0.12869509044E+00 -0.15267785277E+02  0.40096958315E+02  0.42905569520E+02  0.00000000000E+00 0. -1.
</event>
<event>
 7    1  0.2090370E-015  0.9000770E+02  0.7816164E-02  0.1186339E+00
        -11   -1    0    0    0    0  0.00000000000E+00  0.00000000000E+00  0.45593999997E+02  0.45594000000E+02  0.51100000000E-03 0.  1.
         11   -1    0    0    0    0 -0.00000000000E+00 -0.00000000000E+00 -0.45593999997E+02  0.45594000000E+02  0.51100000000E-03 0. -1.
    9900012    2    1    2    0    0  0.28912901723E+00 -0.10952097819E+00  0.11390832490E+01  0.90007702969E+02  0.89999963848E+02 0.  0.
         12    1    1    2    0    0 -0.28912901723E+00  0.10952097819E+00 -0.11390832490E+01  0.11802970310E+01  0.00000000000E+00 0. -1.
         11    1    3    3    0    0  0.19946271801E+02 -0.23286763103E+02 -0.26086947912E+02  0.40257371328E+02  0.51100000000E-03 0. -1.
        -11    1    3    3    0    0  0.74087125464E+01  0.36281606038E+01  0.51795582167E+01  0.97406567819E+01  0.51100000000E-03 0.  1.
        -12    1    3    3    0    0 -0.27065855330E+02  0.19549081521E+02  0.22046472945E+02  0.40009674859E+02  0.00000000000E+00 0.  1.
</event>
<event>
 7    1  0.2090370E-015  0.9000775E+02  0.7816164E-02  0.1186339E+00
        -11   -1    0    0    0    0  0.00000000000E+00  0.00000000000E+00  0.45593999997E+02  0.45594000000E+02  0.51100000000E-03 0.  1.
         11   -1    0    0    0    0 -0.00000000000E+00 -0.00000000000E+00 -0.45593999997E+02  0.45594000000E+02  0.51100000000E-03 0. -1.
    9900012    2    1    2    0    0 -0.68691937077E+00  0.64735363657E+00 -0.70856308662E+00  0.90007751467E+02  0.90000012986E+02 0.  0.
         12    1    1    2    0    0  0.68691937077E+00 -0.64735363657E+00  0.70856308662E+00  0.11802485333E+01  0.00000000000E+00 0. -1.
         11    1    3    3    0    0  0.35503903320E+02 -0.95901676763E+01  0.76620040791E+01  0.37566005560E+02  0.51100000000E-03 0. -1.
        -11    1    3    3    0    0  0.60561277657E+01  0.22014018538E+01 -0.68584627246E+01  0.94107048005E+01  0.51100000000E-03 0.  1.
        -12    1    3    3    0    0 -0.42246950456E+02  0.80361194591E+01 -0.15121044411E+01  0.43031041106E+02  0.00000000000E+00 0.  1.
</event>
<event>
 7    1  0.2090370E-015  0.9000774E+02  0.7816164E-02  0.1186339E+00
        -11   -1    0    0    0    0  0.00000000000E+00  0.00000000000E+00  0.45593999997E+02  0.45594000000E+02  0.51100000000E-03 0. -1.
         11   -1    0    0    0    0 -0.00000000000E+00 -0.00000000000E+00 -0.45593999997E+02  0.45594000000E+02  0.51100000000E-03 0.  1.
    9900012    2    1    2    0    0  0.92512733407E+00 -0.40863872882E+00 -0.60841739956E+00  0.90007738196E+02  0.89999999540E+02 0.  0.
         12    1    1    2    0    0 -0.92512733407E+00  0.40863872882E+00  0.60841739956E+00  0.11802618044E+01  0.00000000000E+00 0. -1.
         11    1    3    3    0    0  0.29360309502E+02  0.16268461931E+02  0.16267662094E+02  0.37300502114E+02  0.51100000000E-03 0. -1.
        -11    1    3    3    0    0 -0.10124551977E+01  0.62234394632E+01  0.72412853626E+01  0.96016914261E+01  0.51100000000E-03 0.  1.
        -12    1    3    3    0    0 -0.27422726971E+02 -0.22900540123E+02 -0.24117364857E+02  0.43105544656E+02  0.00000000000E+00 0.  1.
</event>
<event>
 7    1  0.2090370E-015  0.9000765E+02  0.7816164E-02  0.1186339E+00
        -11   -1    0    0    0    0  0.00000000000E+00  0.00000000000E+00  0.45593999997E+02  0.45594000000E+02  0.51100000000E-03 0.  1.
         11   -1    0    0    0    0 -0.00000000000E+00 -0.00000000000E+00 -0.45593999997E+02  0.45594000000E+02  0.51100000000E-03 0. -1.
    9900012    2    1    2    0    0 -0.50813173288E-01  0.89218434815E+00  0.77113736027E+00  0.90007649324E+02  0.89999909495E+02 0.  0.
         12    1    1    2    0    0  0.50813173288E-01 -0.89218434815E+00 -0.77113736027E+00  0.11803506759E+01  0.00000000000E+00 0. -1.
         11    1    3    3    0    0  0.97320200301E+00  0.10486512502E+02 -0.54152080023E+01  0.11842235624E+02  0.51100000000E-03 0. -1.
        -11    1    3    3    0    0  0.23424064112E+02  0.15477041311E+02 -0.19973074442E+02  0.34455032871E+02  0.51100000000E-03 0.  1.
         12    1    3    3    0    0 -0.24448079288E+02 -0.25071369465E+02  0.26159419804E+02  0.43710380829E+02  0.00000000000E+00 0. -1.
</event>
<event>
 7    1  0.2090370E-015  0.9000773E+02  0.7816164E-02  0.1186339E+00
        -11   -1    0    0    0    0  0.00000000000E+00  0.00000000000E+00  0.45593999997E+02  0.45594000000E+02  0.51100000000E-03 0. -1.
         11   -1    0    0    0    0 -0.00000000000E+00 -0.00000000000E+00 -0.45593999997E+02  0.45594000000E+02  0.51100000000E-03 0.  1.
    9900012    2    1    2    0    0 -0.82206145171E+00 -0.83585971063E+00 -0.13630739646E+00  0.90007734694E+02  0.89999995992E+02 0.  0.
         12    1    1    2    0    0  0.82206145171E+00  0.83585971063E+00  0.13630739646E+00  0.11802653060E+01  0.00000000000E+00 0. -1.
         11    1    3    3    0    0 -0.33971008376E+02 -0.93148675445E+01  0.26303034808E+02  0.43961867656E+02  0.51100000000E-03 0. -1.
        -11    1    3    3    0    0  0.37712503211E+01  0.73667599523E+01 -0.64959219848E+01  0.10520859465E+02  0.51100000000E-03 0.  1.
        -12    1    3    3    0    0  0.29377696603E+02  0.11122478815E+01 -0.19943420220E+02  0.35525007573E+02  0.00000000000E+00 0.  1.
</event>
<event>
 7    1  0.2090370E-015  0.9000740E+02  0.7816164E-02  0.1186340E+00
        -11   -1    0    0    0    0  0.00000000000E+00  0.00000000000E+00  0.45593999997E+02  0.45594000000E+02  0.51100000000E-03 0.  1.
         11   -1    0    0    0    0 -0.00000000000E+00 -0.00000000000E+00 -0.45593999997E+02  0.45594000000E+02  0.51100000000E-03 0. -1.
    9900012    2    1    2    0    0  0.65765174129E+00 -0.73715629793E+00  0.64646648872E+00  0.90007396704E+02  0.89999653540E+02 0.  0.
         12    1    1    2    0    0 -0.65765174129E+00  0.73715629793E+00 -0.64646648872E+00  0.11806032955E+01  0.00000000000E+00 0. -1.
         11    1    3    3    0    0 -0.28726754066E+02  0.60865791280E+01 -0.13510520970E+02  0.32323474779E+02  0.51100000000E-03 0. -1.
        -11    1    3    3    0    0 -0.11029134740E+02 -0.50171322495E+01 -0.47694254119E+01  0.13021553215E+02  0.51100000000E-03 0.  1.
        -12    1    3    3    0    0  0.40413540547E+02 -0.18066031764E+01  0.18926412871E+02  0.44662368710E+02  0.00000000000E+00 0.  1.
</event>
<event>
 7    1  0.2090370E-015  0.9000771E+02  0.7816164E-02  0.1186339E+00
        -11   -1    0    0    0    0  0.00000000000E+00  0.00000000000E+00  0.45593999997E+02  0.45594000000E+02  0.51100000000E-03 0. -1.
         11   -1    0    0    0    0 -0.00000000000E+00 -0.00000000000E+00 -0.45593999997E+02  0.45594000000E+02  0.51100000000E-03 0.  1.
    9900012    2    1    2    0    0 -0.81104135334E+00  0.23784282059E+00 -0.82385131461E+00  0.90007708395E+02  0.89999969346E+02 0.  0.
         12    1    1    2    0    0  0.81104135334E+00 -0.23784282059E+00  0.82385131461E+00  0.11802916049E+01  0.00000000000E+00 0. -1.
         11    1    3    3    0    0 -0.41840809027E+01 -0.77436922794E+01 -0.52043175193E+01  0.10225273797E+02  0.51100000000E-03 0. -1.
        -11    1    3    3    0    0 -0.37867673226E+02  0.55993127213E+01  0.38157459758E+01  0.38469116133E+02  0.51100000000E-03 0.  1.
         12    1    3    3    0    0  0.41240712775E+02  0.23822223786E+01  0.56472022890E+00  0.41313318465E+02  0.00000000000E+00 0. -1.
</event>
<event>
 7    1  0.2090370E-015  0.9000775E+02  0.7816164E-02  0.1186339E+00
        -11   -1    0    0    0    0  0.00000000000E+00  0.00000000000E+00  0.45593999997E+02  0.45594000000E+02  0.51100000000E-03 0. -1.
         11   -1    0    0    0    0 -0.00000000000E+00 -0.00000000000E+00 -0.45593999997E+02  0.45594000000E+02  0.51100000000E-03 0.  1.
    9900012    2    1    2    0    0  0.86905209941E+00  0.69206364575E+00  0.39846554808E+00  0.90007754926E+02  0.90000016491E+02 0.  0.
         12    1    1    2    0    0 -0.86905209941E+00 -0.69206364575E+00 -0.39846554808E+00  0.11802450738E+01  0.00000000000E+00 0. -1.
         11    1    3    3    0    0  0.13631436783E+02  0.52307852430E+01  0.41750272789E+02  0.44229655902E+02  0.51100000000E-03 0. -1.
        -11    1    3    3    0    0 -0.26837339354E+00  0.23656489155E+01 -0.40582363715E+00  0.24151629667E+01  0.51100000000E-03 0.  1.
        -12    1    3    3    0    0 -0.12494011290E+02 -0.69043705128E+01 -0.40945983603E+02  0.43362936058E+02  0.00000000000E+00 0.  1.
</event>
<event>
 7    1  0.2090370E-015  0.9000772E+02  0.7816164E-02  0.1186339E+00
        -11   -1    0    0    0    0  0.00000000000E+00  0.00000000000E+00  0.45593999997E+02  0.45594000000E+02  0.51100000000E-03 0.  1.
         11   -1    0    0    0    0 -0.00000000000E+00 -0.00000000000E+00 -0.45593999997E+02  0.45594000000E+02  0.51100000000E-03 0. -1.
    9900012    2    1    2    0    0  0.57710934737E+00  0.70742570436E+00  0.74802744883E+00  0.90007724019E+02  0.89999985177E+02 0.  0.
         12    1    1    2    0    0 -0.57710934737E+00 -0.70742570436E+00 -0.74802744883E+00  0.11802759805E+01  0.00000000000E+00 0. -1.
         11    1    3    3    0    0 -0.64057804574E+01  0.13916317552E+01 -0.95972467158E+01  0.11622297836E+02  0.51100000000E-03 0. -1.
        -11    1    3    3    0    0 -0.26958852452E+02  0.22340956669E+02 -0.32816921712E+01  0.35166284623E+02  0.51100000000E-03 0.  1.
         12    1    3    3    0    0  0.33941742257E+02 -0.23025162720E+02  0.13626966336E+02  0.43219141560E+02  0.00000000000E+00 0. -1.
</event>
<event>
 7    1  0.2090370E-015  0.9000768E+02  0.7816164E-02  0.1186339E+00
        -11   -1    0    0    0    0  0.00000000000E+00  0.00000000000E+00  0.45593999997E+02  0.45594000000E+02  0.51100000000E-03 0. -1.
         11   -1    0    0    0    0 -0.00000000000E+00 -0.00000000000E+00 -0.45593999997E+02  0.45594000000E+02  0.51100000000E-03 0.  1.
    9900012    2    1    2    0    0  0.24950183961E+00  0.33380979857E-01 -0.11531644907E+01  0.90007680636E+02  0.89999941221E+02 0.  0.
         12    1    1    2    0    0 -0.24950183961E+00 -0.33380979857E-01  0.11531644907E+01  0.11803193638E+01  0.00000000000E+00 0. -1.
         11    1    3    3    0    0  0.78450320947E+01  0.32715011819E+01 -0.48204361577E+01  0.97715839842E+01  0.51100000000E-03 0. -1.
        -11    1    3    3    0    0 -0.13271660257E+02 -0.27963183038E+02 -0.26551620988E+02  0.40780695788E+02  0.51100000000E-03 0.  1.
         12    1    3    3    0    0  0.56761300021E+01  0.24725062836E+02  0.30218892655E+02  0.39455400864E+02  0.00000000000E+00 0. -1.
</event>
<event>
 7    1  0.2376435E-015  0.9000764E+02  0.7816164E-02  0.1186339E+00
        -11   -1    0    0    0    0  0.00000000000E+00  0.00000000000E+00  0.45593999997E+02  0.45594000000E+02  0.51100000000E-03 0. -1.
         11   -1    0    0    0    0 -0.00000000000E+00 -0.00000000000E+00 -0.45593999997E+02  0.45594000000E+02  0.51100000000E-03 0.  1.
    9900012    2    1    2    0    0  0.27294440612E+00  0.34274362825E+00 -0.10960326084E+01  0.90007635937E+02  0.89999895931E+02 0.  0.
         12    1    1    2    0    0 -0.27294440612E+00 -0.34274362825E+00  0.10960326084E+01  0.11803640635E+01  0.00000000000E+00 0. -1.
         11    1    3    3    0    0  0.33914805585E+02  0.14401287445E+02  0.15582011711E+02  0.40005127261E+02  0.51100000000E-03 0. -1.
        -11    1    3    3    0    0 -0.54478094645E+01  0.80472736064E+01  0.14913331723E+01  0.98316486587E+01  0.51100000000E-03 0.  1.
        -12    1    3    3    0    0 -0.28194051715E+02 -0.22105817423E+02 -0.18169377492E+02  0.40170860017E+02  0.00000000000E+00 0.  1.
</event>
<event>
 7    1  0.2090370E-015  0.9000747E+02  0.7816164E-02  0.1186340E+00
        -11   -1    0    0    0    0  0.00000000000E+00  0.00000000000E+00  0.45593999997E+02  0.45594000000E+02  0.51100000000E-03 0.  1.
         11   -1    0    0    0    0 -0.00000000000E+00 -0.00000000000E+00 -0.45593999997E+02  0.45594000000E+02  0.51100000000E-03 0. -1.
    9900012    2    1    2    0    0  0.21742026108E+00  0.11582308304E+01 -0.69931453180E-01  0.90007465954E+02  0.89999723704E+02 0.  0.
         12    1    1    2    0    0 -0.21742026108E+00 -0.11582308304E+01  0.69931453180E-01  0.11805340463E+01  0.00000000000E+00 0. -1.
         11    1    3    3    0    0  0.19234462982E+02  0.10460811669E+02 -0.33689251870E+02  0.40179084594E+02  0.51100000000E-03 0. -1.
        -11    1    3    3    0    0 -0.82271865693E+01  0.19363355441E+01 -0.38211790827E+01  0.92756349663E+01  0.51100000000E-03 0.  1.
        -12    1    3    3    0    0 -0.10789856151E+02 -0.11238916383E+02  0.37440499500E+02  0.40552746393E+02  0.00000000000E+00 0.  1.
</event>
<event>
 7    1  0.2090370E-015  0.9000777E+02  0.7816164E-02  0.1186339E+00
        -11   -1    0    0    0    0  0.00000000000E+00  0.00000000000E+00  0.45593999997E+02  0.45594000000E+02  0.51100000000E-03 0. -1.
         11   -1    0    0    0    0 -0.00000000000E+00 -0.00000000000E+00 -0.45593999997E+02  0.45594000000E+02  0.51100000000E-03 0.  1.
    9900012    2    1    2    0    0 -0.44653572915E+00  0.42643589957E-02 -0.10924859329E+01  0.90007772117E+02  0.90000033909E+02 0.  0.
         12    1    1    2    0    0  0.44653572915E+00 -0.42643589957E-02  0.10924859329E+01  0.11802278830E+01  0.00000000000E+00 0. -1.
         11    1    3    3    0    0 -0.99926528514E+01 -0.43673674813E+01  0.34446701383E+02  0.36131734613E+02  0.51100000000E-03 0. -1.
        -11    1    3    3    0    0  0.51399224687E+01  0.10585035483E+02  0.48848356666E+01  0.12740620036E+02  0.51100000000E-03 0.  1.
        -12    1    3    3    0    0  0.44061946536E+01 -0.62134036426E+01 -0.40424022982E+02  0.41135417468E+02  0.00000000000E+00 0.  1.
</event>
<event>
 7    1  0.2090370E-015  0.9000772E+02  0.7816164E-02  0.1186339E+00
        -11   -1    0    0    0    0  0.00000000000E+00  0.00000000000E+00  0.45593999997E+02  0.45594000000E+02  0.51100000000E-03 0.  1.
         11   -1    0    0    0    0 -0.00000000000E+00 -0.00000000000E+00 -0.45593999997E+02  0.45594000000E+02  0.51100000000E-03 0. -1.
    9900012    2    1    2    0    0  0.47427232199E+00 -0.10337713355E+01  0.31533970484E+00  0.90007721838E+02  0.89999982967E+02 0.  0.
         12    1    1    2    0    0 -0.47427232199E+00  0.10337713355E+01 -0.31533970484E+00  0.11802781617E+01  0.00000000000E+00 0. -1.
         11    1    3    3    0    0 -0.48651339375E+01 -0.40975669563E+02  0.21630836575E+01  0.41320139829E+02  0.51100000000E-03 0. -1.
        -11    1    3    3    0    0  0.10773696642E+02  0.30245491069E+01  0.11666893356E+01  0.11250848897E+02  0.51100000000E-03 0.  1.
        -12    1    3    3    0    0 -0.54342903827E+01  0.36917349120E+02 -0.30144332883E+01  0.37436733112E+02  0.00000000000E+00 0.  1.
</event>
<event>
 7    1  0.2090370E-015  0.9000773E+02  0.7816164E-02  0.1186339E+00
        -11   -1    0    0    0    0  0.00000000000E+00  0.00000000000E+00  0.45593999997E+02  0.45594000000E+02  0.51100000000E-03 0.  1.
         11   -1    0    0    0    0 -0.00000000000E+00 -0.00000000000E+00 -0.45593999997E+02  0.45594000000E+02  0.51100000000E-03 0. -1.
    9900012    2    1    2    0    0  0.11375418983E+01 -0.30819105958E+00  0.63645375695E-01  0.90007731372E+02  0.89999992626E+02 0.  0.
         12    1    1    2    0    0 -0.11375418983E+01  0.30819105958E+00 -0.63645375695E-01  0.11802686277E+01  0.00000000000E+00 0. -1.
         11    1    3    3    0    0 -0.11552262267E+02  0.48706773405E+01 -0.57573050191E+01  0.13795826274E+02  0.51100000000E-03 0. -1.
        -11    1    3    3    0    0 -0.17601201111E+02 -0.22255317017E+02 -0.18415151212E+02  0.33826309442E+02  0.51100000000E-03 0.  1.
        -12    1    3    3    0    0  0.30291005276E+02  0.17076448617E+02  0.24236101607E+02  0.42385595656E+02  0.00000000000E+00 0.  1.
</event>
<event>
 7    1  0.2090370E-015  0.9000794E+02  0.7816164E-02  0.1186339E+00
        -11   -1    0    0    0    0  0.00000000000E+00  0.00000000000E+00  0.45593999997E+02  0.45594000000E+02  0.51100000000E-03 0.  1.
         11   -1    0    0    0    0 -0.00000000000E+00 -0.00000000000E+00 -0.45593999997E+02  0.45594000000E+02  0.51100000000E-03 0. -1.
    9900012    2    1    2    0    0  0.11101374548E+01  0.37567789712E+00 -0.13784165077E+00  0.90007940946E+02  0.90000204966E+02 0.  0.
         12    1    1    2    0    0 -0.11101374548E+01 -0.37567789712E+00  0.13784165077E+00  0.11800590543E+01  0.00000000000E+00 0. -1.
         11    1    3    3    0    0  0.56007553757E+01 -0.30136849711E+02 -0.23651501755E+02  0.38716814265E+02  0.51100000000E-03 0. -1.
        -11    1    3    3    0    0  0.30673890856E+01 -0.67524171148E+01  0.53955110550E+01  0.91714531291E+01  0.51100000000E-03 0.  1.
        -12    1    3    3    0    0 -0.75580070064E+01  0.37264944723E+02  0.18118149049E+02  0.42119673552E+02  0.00000000000E+00 0.  1.
</event>
<event>
 7    1  0.2090370E-015  0.9000757E+02  0.7816164E-02  0.1186339E+00
        -11   -1    0    0    0    0  0.00000000000E+00  0.00000000000E+00  0.45593999997E+02  0.45594000000E+02  0.51100000000E-03 0.  1.
         11   -1    0    0    0    0 -0.00000000000E+00 -0.00000000000E+00 -0.45593999997E+02  0.45594000000E+02  0.51100000000E-03 0. -1.
    9900012    2    1    2    0    0  0.43026851706E-01 -0.11539122258E+01 -0.24503508425E+00  0.90007573413E+02  0.89999832582E+02 0.  0.
         12    1    1    2    0    0 -0.43026851706E-01  0.11539122258E+01  0.24503508425E+00  0.11804265870E+01  0.00000000000E+00 0. -1.
         11    1    3    3    0    0 -0.47406953579E+01 -0.12267932537E+01  0.83547214392E+01  0.96840376265E+01  0.51100000000E-03 0. -1.
        -11    1    3    3    0    0 -0.24906569253E+02  0.23228141071E+02  0.13533963489E+02  0.36647672471E+02  0.51100000000E-03 0.  1.
         12    1    3    3    0    0  0.29690291462E+02 -0.23155260043E+02 -0.22133720013E+02  0.43675863316E+02  0.00000000000E+00 0. -1.
</event>
<event>
 7    1  0.2090370E-015  0.9000788E+02  0.7816164E-02  0.1186339E+00
        -11   -1    0    0    0    0  0.00000000000E+00  0.00000000000E+00  0.45593999997E+02  0.45594000000E+02  0.51100000000E-03 0.  1.
         11   -1    0    0    0    0 -0.00000000000E+00 -0.00000000000E+00 -0.45593999997E+02  0.45594000000E+02  0.51100000000E-03 0. -1.
    9900012    2    1    2    0    0 -0.95889713355E+00 -0.66256562757E+00 -0.18493983582E+00  0.90007881503E+02  0.90000144739E+02 0.  0.
         12    1    1    2    0    0  0.95889713355E+00  0.66256562757E+00  0.18493983582E+00  0.11801184968E+01  0.00000000000E+00 0. -1.
         11    1    3    3    0    0 -0.87164088909E+01  0.49605423179E+01 -0.24220389531E+01  0.10317414259E+02  0.51100000000E-03 0. -1.
        -11    1    3    3    0    0 -0.17963607254E+02  0.29140739767E+02  0.10197530452E+02  0.35719231897E+02  0.51100000000E-03 0.  1.
         12    1    3    3    0    0  0.25721119011E+02 -0.34763847712E+02 -0.79604313343E+01  0.43971235347E+02  0.00000000000E+00 0. -1.
</event>
<event>
 7    1  0.2090370E-015  0.9000775E+02  0.7816164E-02  0.1186339E+00
        -11   -1    0    0    0    0  0.00000000000E+00  0.00000000000E+00  0.45593999997E+02  0.45594000000E+02  0.51100000000E-03 0.  1.
         11   -1    0    0    0    0 -0.00000000000E+00 -0.00000000000E+00 -0.45593999997E+02  0.45594000000E+02  0.51100000000E-03 0. -1.
    9900012    2    1    2    0    0  0.79986082060E+00 -0.49200354100E+00  0.71494251763E+00  0.90007751035E+02  0.90000012548E+02 0.  0.
         12    1    1    2    0    0 -0.79986082060E+00  0.49200354100E+00 -0.71494251763E+00  0.11802489653E+01  0.00000000000E+00 0. -1.
         11    1    3    3    0    0  0.97073061214E+01  0.36325346528E+00 -0.89022383370E+00  0.97548061974E+01  0.51100000000E-03 0. -1.
        -11    1    3    3    0    0  0.19983498138E+02 -0.14569503793E+01 -0.30857383773E+02  0.36791861000E+02  0.51100000000E-03 0.  1.
         12    1    3    3    0    0 -0.28890943439E+02  0.60169337302E+00  0.32462550125E+02  0.43461083837E+02  0.00000000000E+00 0. -1.
</event>
<event>
 7    1  0.2801363E-015  0.9000779E+02  0.7816164E-02  0.1186339E+00
        -11   -1    0    0    0    0  0.00000000000E+00  0.00000000000E+00  0.45593999997E+02  0.45594000000E+02  0.51100000000E-03 0. -1.
         11   -1    0    0    0    0 -0.00000000000E+00 -0.00000000000E+00 -0.45593999997E+02  0.45594000000E+02  0.51100000000E-03 0.  1.
    9900012    2    1    2    0    0  0.18200422455E+00  0.60277549693E+00 -0.99821034552E+00  0.90007793352E+02  0.90000055424E+02 0.  0.
         12    1    1    2    0    0 -0.18200422455E+00 -0.60277549693E+00  0.99821034552E+00  0.11802066477E+01  0.00000000000E+00 0. -1.
         11    1    3    3    0    0 -0.16530312940E+02 -0.22407075491E+02  0.23375001507E+02  0.36355453149E+02  0.51100000000E-03 0. -1.
        -11    1    3    3    0    0 -0.84956140696E+01  0.20455063358E+01  0.46207202724E+01  0.98848677627E+01  0.51100000000E-03 0.  1.
        -12    1    3    3    0    0  0.25207931234E+02  0.20964344652E+02 -0.28993932125E+02  0.43767472441E+02  0.00000000000E+00 0.  1.
</event>
<event>
 7    1  0.2090370E-015  0.9000760E+02  0.7816164E-02  0.1186339E+00
        -11   -1    0    0    0    0  0.00000000000E+00  0.00000000000E+00  0.45593999997E+02  0.45594000000E+02  0.51100000000E-03 0. -1.
         11   -1    0    0    0    0 -0.00000000000E+00 -0.00000000000E+00 -0.45593999997E+02  0.45594000000E+02  0.51100000000E-03 0.  1.
    9900012    2    1    2    0    0 -0.81180041568E+00 -0.85683982182E+00 -0.12186078589E-01  0.90007600536E+02  0.89999860063E+02 0.  0.
         12    1    1    2    0    0  0.81180041568E+00  0.85683982182E+00  0.12186078589E-01  0.11803994644E+01  0.00000000000E+00 0. -1.
         11    1    3    3    0    0  0.41828670860E+01  0.83911856862E+01 -0.27495770663E+01  0.97708008159E+01  0.51100000000E-03 0. -1.
        -11    1    3    3    0    0 -0.38042788209E+01  0.34968655117E+02 -0.43391447686E+01  0.35441607690E+02  0.51100000000E-03 0.  1.
         12    1    3    3    0    0 -0.11903886807E+01 -0.44216680625E+02  0.70765357563E+01  0.44795192030E+02  0.00000000000E+00 0. -1.
</event>
<event>
 7    1  0.2090370E-015  0.9000783E+02  0.7816164E-02  0.1186339E+00
        -11   -1    0    0    0    0  0.00000000000E+00  0.00000000000E+00  0.45593999997E+02  0.45594000000E+02  0.51100000000E-03 0.  1.
         11   -1    0    0    0    0 -0.00000000000E+00 -0.00000000000E+00 -0.45593999997E+02  0.45594000000E+02  0.51100000000E-03 0. -1.
    9900012    2    1    2    0    0 -0.29216105242E-01  0.24924316205E+00  0.11531820068E+01  0.90007828625E+02  0.90000091162E+02 0.  0.
         12    1    1    2    0    0  0.29216105242E-01 -0.24924316205E+00 -0.11531820068E+01  0.11801713755E+01  0.00000000000E+00 0. -1.
         11    1    3    3    0    0  0.11691617534E+02  0.15489147625E+02  0.17372878993E+02  0.26046584028E+02  0.51100000000E-03 0.  1.
        -11    1    3    3    0    0 -0.79287561129E+00  0.10175889900E+02  0.17552346916E+02  0.20304242648E+02  0.51100000000E-03 0. -1.
         12    1    3    3    0    0 -0.10927958028E+02 -0.25415794363E+02 -0.33772043903E+02  0.43657001949E+02  0.00000000000E+00 0. -1.
</event>
<event>
 7    1  0.2090370E-015  0.9000774E+02  0.7816164E-02  0.1186339E+00
        -11   -1    0    0    0    0  0.00000000000E+00  0.00000000000E+00  0.45593999997E+02  0.45594000000E+02  0.51100000000E-03 0.  1.
         11   -1    0    0    0    0 -0.00000000000E+00 -0.00000000000E+00 -0.45593999997E+02  0.45594000000E+02  0.51100000000E-03 0. -1.
    9900012    2    1    2    0    0 -0.96727237175E+00 -0.65779399549E+00 -0.15718790670E+00  0.90007738665E+02  0.90000000015E+02 0.  0.
         12    1    1    2    0    0  0.96727237175E+00  0.65779399549E+00  0.15718790670E+00  0.11802613353E+01  0.00000000000E+00 0. -1.
         11    1    3    3    0    0  0.79271174127E+01 -0.11040826552E+00 -0.74383068255E+01  0.10871052808E+02  0.51100000000E-03 0. -1.
        -11    1    3    3    0    0 -0.10715801278E+02 -0.38736680951E+02  0.75941987279E+01  0.40902697989E+02  0.51100000000E-03 0.  1.
         12    1    3    3    0    0  0.18214114937E+01  0.38189295221E+02 -0.31307980905E+00  0.38233987868E+02  0.00000000000E+00 0. -1.
</event>
<event>
 7    1  0.2090370E-015  0.9000775E+02  0.7816164E-02  0.1186339E+00
        -11   -1    0    0    0    0  0.00000000000E+00  0.00000000000E+00  0.45593999997E+02  0.45594000000E+02  0.51100000000E-03 0. -1.
         11   -1    0    0    0    0 -0.00000000000E+00 -0.00000000000E+00 -0.45593999997E+02  0.45594000000E+02  0.51100000000E-03 0.  1.
    9900012    2    1    2    0    0 -0.11414886964E+01  0.51646317828E-01  0.29552558539E+00  0.90007746147E+02  0.90000007596E+02 0.  0.
         12    1    1    2    0    0  0.11414886964E+01 -0.51646317828E-01 -0.29552558539E+00  0.11802538531E+01  0.00000000000E+00 0. -1.
         11    1    3    3    0    0 -0.82119014200E+01 -0.44037975114E+01 -0.19098762160E+01  0.95119075308E+01  0.51100000000E-03 0. -1.
        -11    1    3    3    0    0  0.52283911636E+01 -0.35538970076E+02 -0.12214535758E+02  0.37941393652E+02  0.51100000000E-03 0.  1.
         12    1    3    3    0    0  0.18420215599E+01  0.39994413905E+02  0.14419937559E+02  0.42554444964E+02  0.00000000000E+00 0. -1.
</event>
<event>
 7    1  0.2090370E-015  0.9000773E+02  0.7816164E-02  0.1186339E+00
        -11   -1    0    0    0    0  0.00000000000E+00  0.00000000000E+00  0.45593999997E+02  0.45594000000E+02  0.51100000000E-03 0. -1.
         11   -1    0    0    0    0 -0.00000000000E+00 -0.00000000000E+00 -0.45593999997E+02  0.45594000000E+02  0.51100000000E-03 0.  1.
    9900012    2    1    2    0    0  0.65554505880E-01  0.11681218594E+01 -0.15568555740E+00  0.90007727123E+02  0.89999988321E+02 0.  0.
         12    1    1    2    0    0 -0.65554505880E-01 -0.11681218594E+01  0.15568555740E+00  0.11802728771E+01  0.00000000000E+00 0. -1.
         11    1    3    3    0    0  0.42272446143E+01  0.21097831309E+02  0.23703450847E+02  0.32013148319E+02  0.51100000000E-03 0. -1.
        -11    1    3    3    0    0 -0.13430887530E+02  0.12689372685E+02 -0.47811588232E+01  0.19085816696E+02  0.51100000000E-03 0.  1.
        -12    1    3    3    0    0  0.92691974214E+01 -0.32619082135E+02 -0.19077977581E+02  0.38908762108E+02  0.00000000000E+00 0.  1.
</event>
<event>
 7    1  0.2090370E-015  0.9000779E+02  0.7816164E-02  0.1186339E+00
        -11   -1    0    0    0    0  0.00000000000E+00  0.00000000000E+00  0.45593999997E+02  0.45594000000E+02  0.51100000000E-03 0.  1.
         11   -1    0    0    0    0 -0.00000000000E+00 -0.00000000000E+00 -0.45593999997E+02  0.45594000000E+02  0.51100000000E-03 0. -1.
    9900012    2    1    2    0    0 -0.10454892104E+01  0.26809832949E+00  0.47745406191E+00  0.90007793753E+02  0.90000055831E+02 0.  0.
         12    1    1    2    0    0  0.10454892104E+01 -0.26809832949E+00 -0.47745406191E+00  0.11802062466E+01  0.00000000000E+00 0. -1.
         11    1    3    3    0    0  0.87863355939E+01 -0.15837984366E+01  0.73766976253E-01  0.89282446474E+01  0.51100000000E-03 0. -1.
        -11    1    3    3    0    0  0.32853522020E+02  0.14166849262E+02 -0.57233606786E+01  0.36232725330E+02  0.51100000000E-03 0.  1.
         12    1    3    3    0    0 -0.42685346824E+02 -0.12314952496E+02  0.61270477643E+01  0.44846823776E+02  0.00000000000E+00 0. -1.
</event>
<event>
 7    1  0.2090370E-015  0.9000772E+02  0.7816164E-02  0.1186339E+00
        -11   -1    0    0    0    0  0.00000000000E+00  0.00000000000E+00  0.45593999997E+02  0.45594000000E+02  0.51100000000E-03 0.  1.
         11   -1    0    0    0    0 -0.00000000000E+00 -0.00000000000E+00 -0.45593999997E+02  0.45594000000E+02  0.51100000000E-03 0. -1.
    9900012    2    1    2    0    0 -0.86658702737E+00 -0.67364469854E+00  0.43393490226E+00  0.90007716240E+02  0.89999977294E+02 0.  0.
         12    1    1    2    0    0  0.86658702737E+00  0.67364469854E+00 -0.43393490226E+00  0.11802837605E+01  0.00000000000E+00 0. -1.
         11    1    3    3    0    0 -0.16004929331E+02 -0.10243981981E+02 -0.34409220518E+02  0.39307650485E+02  0.51100000000E-03 0. -1.
        -11    1    3    3    0    0 -0.72906309428E+01  0.64520004557E+01  0.74031291917E+00  0.97636915613E+01  0.51100000000E-03 0.  1.
        -12    1    3    3    0    0  0.22428973246E+02  0.31183368266E+01  0.34102842501E+02  0.40936374193E+02  0.00000000000E+00 0.  1.
</event>
<event>
 7    1  0.2090370E-015  0.9000767E+02  0.7816164E-02  0.1186339E+00
        -11   -1    0    0    0    0  0.00000000000E+00  0.00000000000E+00  0.45593999997E+02  0.45594000000E+02  0.51100000000E-03 0. -1.
         11   -1    0    0    0    0 -0.00000000000E+00 -0.00000000000E+00 -0.45593999997E+02  0.45594000000E+02  0.51100000000E-03 0.  1.
    9900012    2    1    2    0    0  0.15849347456E+00  0.10976940762E+01 -0.40390256483E+00  0.90007665408E+02  0.89999925792E+02 0.  0.
         12    1    1    2    0    0 -0.15849347456E+00 -0.10976940762E+01  0.40390256483E+00  0.11803345916E+01  0.00000000000E+00 0. -1.
         11    1    3    3    0    0  0.28682035747E+02  0.21149544587E+02  0.10090787889E+02  0.37037635067E+02  0.51100000000E-03 0. -1.
        -11    1    3    3    0    0  0.53733278514E+01  0.27263470930E+01  0.63856527596E+01  0.87796458981E+01  0.51100000000E-03 0.  1.
        -12    1    3    3    0    0 -0.33896870124E+02 -0.22778197604E+02 -0.16880343213E+02  0.44190384444E+02  0.00000000000E+00 0.  1.
</event>
<event>
 7    1  0.2090370E-015  0.9000767E+02  0.7816164E-02  0.1186339E+00
        -11   -1    0    0    0    0  0.00000000000E+00  0.00000000000E+00  0.45593999997E+02  0.45594000000E+02  0.51100000000E-03 0.  1.
         11   -1    0    0    0    0 -0.00000000000E+00 -0.00000000000E+00 -0.45593999997E+02  0.45594000000E+02  0.51100000000E-03 0. -1.
    9900012    2    1    2    0    0  0.58020759005E+00 -0.28528300716E+00  0.98749414132E+00  0.90007672960E+02  0.89999933443E+02 0.  0.
         12    1    1    2    0    0 -0.58020759005E+00  0.28528300716E+00 -0.98749414132E+00  0.11803270398E+01  0.00000000000E+00 0. -1.
         11    1    3    3    0    0  0.19090751750E+02 -0.21509841662E+02 -0.23801195943E+02  0.37331314192E+02  0.51100000000E-03 0. -1.
        -11    1    3    3    0    0 -0.23351514703E+01  0.11639318835E+01 -0.94613490296E+01  0.98145196286E+01  0.51100000000E-03 0.  1.
        -12    1    3    3    0    0 -0.16175392690E+02  0.20060626772E+02  0.34250039114E+02  0.42861839140E+02  0.00000000000E+00 0.  1.
</event>
<event>
 7    1  0.2090370E-015  0.9000778E+02  0.7816164E-02  0.1186339E+00
        -11   -1    0    0    0    0  0.00000000000E+00  0.00000000000E+00  0.45593999997E+02  0.45594000000E+02  0.51100000000E-03 0.  1.
         11   -1    0    0    0    0 -0.00000000000E+00 -0.00000000000E+00 -0.45593999997E+02  0.45594000000E+02  0.51100000000E-03 0. -1.
    9900012    2    1    2    0    0  0.10091781276E+01 -0.43735251080E+00  0.42803320420E+00  0.90007775388E+02  0.90000037223E+02 0.  0.
         12    1    1    2    0    0 -0.10091781276E+01  0.43735251080E+00 -0.42803320420E+00  0.11802246124E+01  0.00000000000E+00 0. -1.
         11    1    3    3    0    0 -0.28948472265E+02  0.14075691882E+02 -0.29293111032E+02  0.43522701004E+02  0.51100000000E-03 0. -1.
        -11    1    3    3    0    0  0.72730891745E+01  0.11466874351E+01  0.25823581601E+01  0.78026464832E+01  0.51100000000E-03 0.  1.
        -12    1    3    3    0    0  0.22684561219E+02 -0.15659731828E+02  0.27138786076E+02  0.38682427901E+02  0.00000000000E+00 0.  1.
</event>
<event>
 7    1  0.2102208E-015  0.9000778E+02  0.7816164E-02  0.1186339E+00
        -11   -1    0    0    0    0  0.00000000000E+00  0.00000000000E+00  0.45593999997E+02  0.45594000000E+02  0.51100000000E-03 0. -1.
         11   -1    0    0    0    0 -0.00000000000E+00 -0.00000000000E+00 -0.45593999997E+02  0.45594000000E+02  0.51100000000E-03 0.  1.
    9900012    2    1    2    0    0  0.70568548645E+00  0.88333967493E+00 -0.33858810385E+00  0.90007778457E+02  0.90000040332E+02 0.  0.
         12    1    1    2    0    0 -0.70568548645E+00 -0.88333967493E+00  0.33858810385E+00  0.11802215433E+01  0.00000000000E+00 0. -1.
         11    1    3    3    0    0  0.18226194577E+02  0.15495161651E+02  0.26551317779E+02  0.35738867909E+02  0.51100000000E-03 0. -1.
        -11    1    3    3    0    0  0.93390687199E+01  0.32057319288E+01  0.29909714636E+01  0.10317016638E+02  0.51100000000E-03 0.  1.
        -12    1    3    3    0    0 -0.26859577810E+02 -0.17817553905E+02 -0.29880877346E+02  0.43951893910E+02  0.00000000000E+00 0.  1.
</event>
<event>
 7    1  0.2090370E-015  0.9000776E+02  0.7816164E-02  0.1186339E+00
        -11   -1    0    0    0    0  0.00000000000E+00  0.00000000000E+00  0.45593999997E+02  0.45594000000E+02  0.51100000000E-03 0. -1.
         11   -1    0    0    0    0 -0.00000000000E+00 -0.00000000000E+00 -0.45593999997E+02  0.45594000000E+02  0.51100000000E-03 0.  1.
    9900012    2    1    2    0    0  0.28381924285E+00  0.10423026709E+01 -0.47542245815E+00  0.90007756494E+02  0.90000018079E+02 0.  0.
         12    1    1    2    0    0 -0.28381924285E+00 -0.10423026709E+01  0.47542245815E+00  0.11802435063E+01  0.00000000000E+00 0. -1.
         11    1    3    3    0    0  0.48157184476E+01 -0.10834519817E+01 -0.58328610708E+01  0.76411570390E+01  0.51100000000E-03 0. -1.
        -11    1    3    3    0    0 -0.26207000431E+02 -0.25033902819E+00 -0.30615488145E+02  0.40301087526E+02  0.51100000000E-03 0.  1.
         12    1    3    3    0    0  0.21675101226E+02  0.23760936808E+01  0.35972926757E+02  0.42065511929E+02  0.00000000000E+00 0. -1.
</event>
<event>
 7    1  0.2090370E-015  0.9000762E+02  0.7816164E-02  0.1186339E+00
        -11   -1    0    0    0    0  0.00000000000E+00  0.00000000000E+00  0.45593999997E+02  0.45594000000E+02  0.51100000000E-03 0. -1.
         11   -1    0    0    0    0 -0.00000000000E+00 -0.00000000000E+00 -0.45593999997E+02  0.45594000000E+02  0.51100000000E-03 0.  1.
    9900012    2    1    2    0    0 -0.11595600233E+01 -0.20304891127E+00 -0.86490090337E-01  0.90007623431E+02  0.89999883261E+02 0.  0.
         12    1    1    2    0    0  0.11595600233E+01  0.20304891127E+00  0.86490090337E-01  0.11803765686E+01  0.00000000000E+00 0. -1.
         11    1    3    3    0    0 -0.15745090020E+02  0.26484833160E+02  0.28633347940E+02  0.42062130970E+02  0.51100000000E-03 0. -1.
        -11    1    3    3    0    0  0.81631705441E+01  0.18948823206E+01 -0.10548091732E+02  0.13471828821E+02  0.51100000000E-03 0.  1.
        -12    1    3    3    0    0  0.64223594524E+01 -0.28582764392E+02 -0.18171746299E+02  0.34473663640E+02  0.00000000000E+00 0.  1.
</event>
<event>
 7    1  0.2090370E-015  0.9000781E+02  0.7816164E-02  0.1186339E+00
        -11   -1    0    0    0    0  0.00000000000E+00  0.00000000000E+00  0.45593999997E+02  0.45594000000E+02  0.51100000000E-03 0.  1.
         11   -1    0    0    0    0 -0.00000000000E+00 -0.00000000000E+00 -0.45593999997E+02  0.45594000000E+02  0.51100000000E-03 0. -1.
    9900012    2    1    2    0    0 -0.36319170738E+00  0.88328838490E+00  0.69336230360E+00  0.90007806003E+02  0.90000068242E+02 0.  0.
         12    1    1    2    0    0  0.36319170738E+00 -0.88328838490E+00 -0.69336230360E+00  0.11801939973E+01  0.00000000000E+00 0. -1.
         11    1    3    3    0    0 -0.33684354155E+02 -0.12918698350E+02  0.22999428893E+01  0.36149940794E+02  0.51100000000E-03 0. -1.
        -11    1    3    3    0    0 -0.85214381322E+01  0.27544972209E+01 -0.53297985245E+01  0.10421560121E+02  0.51100000000E-03 0.  1.
        -12    1    3    3    0    0  0.41842600580E+02  0.11047489514E+02  0.37232179389E+01  0.43436305087E+02  0.00000000000E+00 0.  1.
</event>
<event>
 7    1  0.2090370E-015  0.9000786E+02  0.7816164E-02  0.1186339E+00
        -11   -1    0    0    0    0  0.00000000000E+00  0.00000000000E+00  0.45593999997E+02  0.45594000000E+02  0.51100000000E-03 0. -1.
         11   -1    0    0    0    0 -0.00000000000E+00 -0.00000000000E+00 -0.45593999997E+02  0.45594000000E+02  0.51100000000E-03 0.  1.
    9900012    2    1    2    0    0  0.65965150712E+00  0.85129461345E+00 -0.48258795203E+00  0.90007858584E+02  0.90000121517E+02 0.  0.
         12    1    1    2    0    0 -0.65965150712E+00 -0.85129461345E+00  0.48258795203E+00  0.11801414158E+01  0.00000000000E+00 0. -1.
         11    1    3    3    0    0 -0.11373153768E+02  0.16291412974E+01  0.46023716642E+01  0.12376774749E+02  0.51100000000E-03 0. -1.
        -11    1    3    3    0    0 -0.17627065935E+01  0.36960383046E+02  0.86333798061E+00  0.37012462795E+02  0.51100000000E-03 0.  1.
         12    1    3    3    0    0  0.13795511868E+02 -0.37738229730E+02 -0.59482975968E+01  0.40618621040E+02  0.00000000000E+00 0. -1.
</event>
<event>
 7    1  0.2090370E-015  0.9000770E+02  0.7816164E-02  0.1186339E+00
        -11   -1    0    0    0    0  0.00000000000E+00  0.00000000000E+00  0.45593999997E+02  0.45594000000E+02  0.51100000000E-03 0. -1.
         11   -1    0    0    0    0 -0.00000000000E+00 -0.00000000000E+00 -0.45593999997E+02  0.45594000000E+02  0.51100000000E-03 0.  1.
    9900012    2    1    2    0    0  0.10547907840E+01  0.47241483748E+00  0.23945400713E+00  0.90007704445E+02  0.89999965343E+02 0.  0.
         12    1    1    2    0    0 -0.10547907840E+01 -0.47241483748E+00 -0.23945400713E+00  0.11802955554E+01  0.00000000000E+00 0. -1.
         11    1    3    3    0    0 -0.43849929780E+01 -0.24238061672E-01 -0.51615137179E+01  0.67727376312E+01  0.51100000000E-03 0. -1.
        -11    1    3    3    0    0 -0.37134190129E+02  0.75471300437E+01 -0.65535965848E+01  0.38455908218E+02  0.51100000000E-03 0.  1.
         12    1    3    3    0    0  0.42573973891E+02 -0.70504771446E+01  0.11954564310E+02  0.44779058595E+02  0.00000000000E+00 0. -1.
</event>
<event>
 7    1  0.2090370E-015  0.9000708E+02  0.7816164E-02  0.1186340E+00
        -11   -1    0    0    0    0  0.00000000000E+00  0.00000000000E+00  0.45593999997E+02  0.45594000000E+02  0.51100000000E-03 0. -1.
         11   -1    0    0    0    0 -0.00000000000E+00 -0.00000000000E+00 -0.45593999997E+02  0.45594000000E+02  0.51100000000E-03 0.  1.
    9900012    2    1    2    0    0  0.46143340308E+00  0.46592825801E+00 -0.98211666919E+00  0.90007083797E+02  0.89999336500E+02 0.  0.
         12    1    1    2    0    0 -0.46143340308E+00 -0.46592825801E+00  0.98211666919E+00  0.11809162032E+01  0.00000000000E+00 0. -1.
         11    1    3    3    0    0  0.26712276479E+01  0.33930443284E+02 -0.16828658487E+02  0.37968594724E+02  0.51100000000E-03 0. -1.
        -11    1    3    3    0    0 -0.38745820747E+01  0.30722805378E+01 -0.72542943137E+01  0.87792983892E+01  0.51100000000E-03 0.  1.
        -12    1    3    3    0    0  0.16647878298E+01 -0.36536795564E+02  0.23100836132E+02  0.43259190683E+02  0.00000000000E+00 0.  1.
</event>
<event>
 7    1  0.2090370E-015  0.9000781E+02  0.7816164E-02  0.1186339E+00
        -11   -1    0    0    0    0  0.00000000000E+00  0.00000000000E+00  0.45593999997E+02  0.45594000000E+02  0.51100000000E-03 0. -1.
         11   -1    0    0    0    0 -0.00000000000E+00 -0.00000000000E+00 -0.45593999997E+02  0.45594000000E+02  0.51100000000E-03 0.  1.
    9900012    2    1    2    0    0 -0.17641160577E-01 -0.39767060855E+00  0.11110375630E+01  0.90007806122E+02  0.90000068363E+02 0.  0.
         12    1    1    2    0    0  0.17641160577E-01  0.39767060855E+00 -0.11110375630E+01  0.11801938781E+01  0.00000000000E+00 0. -1.
         11    1    3    3    0    0  0.48495885141E+01  0.57755626499E+01  0.63248593129E+01  0.98427373361E+01  0.51100000000E-03 0. -1.
        -11    1    3    3    0    0  0.22021406515E+02 -0.63928555759E+01 -0.33848347326E+02  0.40884245919E+02  0.51100000000E-03 0.  1.
         12    1    3    3    0    0 -0.26888636190E+02  0.21962231745E+00  0.28634525577E+02  0.39280822867E+02  0.00000000000E+00 0. -1.
</event>
<event>
 7    1  0.2090370E-015  0.9000721E+02  0.7816164E-02  0.1186340E+00
        -11   -1    0    0    0    0  0.00000000000E+00  0.00000000000E+00  0.45593999997E+02  0.45594000000E+02  0.51100000000E-03 0.  1.
         11   -1    0    0    0    0 -0.00000000000E+00 -0.00000000000E+00 -0.45593999997E+02  0.45594000000E+02  0.51100000000E-03 0. -1.
    9900012    2    1    2    0    0  0.12502157084E+00 -0.82624838892E+00  0.83423625729E+00  0.90007209195E+02  0.89999463554E+02 0.  0.
         12    1    1    2    0    0 -0.12502157084E+00  0.82624838892E+00 -0.83423625729E+00  0.11807908055E+01  0.00000000000E+00 0. -1.
         11    1    3    3    0    0 -0.57138828373E+01 -0.82123982604E+01 -0.20204044807E+01  0.10206565377E+02  0.51100000000E-03 0. -1.
        -11    1    3    3    0    0 -0.57616064173E+01  0.29037225210E+02 -0.27737641852E+02  0.40567638977E+02  0.51100000000E-03 0.  1.
         12    1    3    3    0    0  0.11600510825E+02 -0.21651075339E+02  0.30592282590E+02  0.39233004840E+02  0.00000000000E+00 0. -1.
</event>
<event>
 7    1  0.2090370E-015  0.9000802E+02  0.7816164E-02  0.1186338E+00
        -11   -1    0    0    0    0  0.00000000000E+00  0.00000000000E+00  0.45593999997E+02  0.45594000000E+02  0.51100000000E-03 0. -1.
         11   -1    0    0    0    0 -0.00000000000E+00 -0.00000000000E+00 -0.45593999997E+02  0.45594000000E+02  0.51100000000E-03 0.  1.
    9900012    2    1    2    0    0 -0.32328488871E+00  0.42080127688E+00 -0.10539253771E+01  0.90008023079E+02  0.90000288183E+02 0.  0.
         12    1    1    2    0    0  0.32328488871E+00 -0.42080127688E+00  0.10539253771E+01  0.11799769211E+01  0.00000000000E+00 0. -1.
         11    1    3    3    0    0  0.51285028678E+01  0.64627202638E+01  0.34553431980E+02  0.35524751326E+02  0.51100000000E-03 0. -1.
        -11    1    3    3    0    0  0.14604059932E+02 -0.26081409895E+01 -0.16906605691E+01  0.14931151976E+02  0.51100000000E-03 0.  1.
        -12    1    3    3    0    0 -0.20055847688E+02 -0.34337779974E+01 -0.33916696788E+02  0.39552119777E+02  0.00000000000E+00 0.  1.
</event>
<event>
 7    1  0.2090370E-015  0.9000762E+02  0.7816164E-02  0.1186339E+00
        -11   -1    0    0    0    0  0.00000000000E+00  0.00000000000E+00  0.45593999997E+02  0.45594000000E+02  0.51100000000E-03 0. -1.
         11   -1    0    0    0    0 -0.00000000000E+00 -0.00000000000E+00 -0.45593999997E+02  0.45594000000E+02  0.51100000000E-03 0.  1.
    9900012    2    1    2    0    0  0.68812150321E+00  0.95891916334E+00  0.16207940251E-01  0.90007618764E+02  0.89999878532E+02 0.  0.
         12    1    1    2    0    0 -0.68812150321E+00 -0.95891916334E+00 -0.16207940251E-01  0.11803812360E+01  0.00000000000E+00 0. -1.
         11    1    3    3    0    0 -0.52079037245E+01  0.70308213459E+01 -0.26753700635E+01  0.91494434388E+01  0.51100000000E-03 0. -1.
        -11    1    3    3    0    0 -0.13468948484E+02 -0.39658680140E+02 -0.11466751336E+01  0.41899144953E+02  0.51100000000E-03 0.  1.
         12    1    3    3    0    0  0.19364973711E+02  0.33586777957E+02  0.38382531373E+01  0.38959030372E+02  0.00000000000E+00 0. -1.
</event>
<event>
 7    1  0.2090370E-015  0.9000768E+02  0.7816164E-02  0.1186339E+00
        -11   -1    0    0    0    0  0.00000000000E+00  0.00000000000E+00  0.45593999997E+02  0.45594000000E+02  0.51100000000E-03 0. -1.
         11   -1    0    0    0    0 -0.00000000000E+00 -0.00000000000E+00 -0.45593999997E+02  0.45594000000E+02  0.51100000000E-03 0.  1.
    9900012    2    1    2    0    0  0.72239654555E+00  0.13653522102E+00 -0.92339858761E+00  0.90007676490E+02  0.89999937020E+02 0.  0.
         12    1    1    2    0    0 -0.72239654555E+00 -0.13653522102E+00  0.92339858761E+00  0.11803235095E+01  0.00000000000E+00 0. -1.
         11    1    3    3    0    0  0.16661594939E+01  0.35789510850E+02  0.93796167644E+01  0.37035690695E+02  0.51100000000E-03 0. -1.
        -11    1    3    3    0    0 -0.91805342882E+01  0.50106807904E+01 -0.16201453555E+01  0.10583666805E+02  0.51100000000E-03 0.  1.
        -12    1    3    3    0    0  0.82367713399E+01 -0.40663656419E+02 -0.86828699965E+01  0.42388318991E+02  0.00000000000E+00 0.  1.
</event>
<event>
 7    1  0.2090370E-015  0.9000783E+02  0.7816164E-02  0.1186339E+00
        -11   -1    0    0    0    0  0.00000000000E+00  0.00000000000E+00  0.45593999997E+02  0.45594000000E+02  0.51100000000E-03 0.  1.
         11   -1    0    0    0    0 -0.00000000000E+00 -0.00000000000E+00 -0.45593999997E+02  0.45594000000E+02  0.51100000000E-03 0. -1.
    9900012    2    1    2    0    0 -0.97447235160E+00  0.86876538384E-01 -0.66004367895E+00  0.90007829862E+02  0.90000092416E+02 0.  0.
         12    1    1    2    0    0  0.97447235160E+00 -0.86876538384E-01  0.66004367895E+00  0.11801701382E+01  0.00000000000E+00 0. -1.
         11    1    3    3    0    0 -0.68389071124E+01 -0.37519101346E+01  0.71716938034E+01  0.10596257472E+02  0.51100000000E-03 0. -1.
        -11    1    3    3    0    0  0.81494160187E+01  0.24402671644E+02  0.28006314856E+02  0.38029686258E+02  0.51100000000E-03 0.  1.
         12    1    3    3    0    0 -0.22849812579E+01 -0.20563884971E+02 -0.35838052338E+02  0.41381886132E+02  0.00000000000E+00 0. -1.
</event>
<event>
 7    1  0.2090370E-015  0.9000762E+02  0.7816164E-02  0.1186339E+00
        -11   -1    0    0    0    0  0.00000000000E+00  0.00000000000E+00  0.45593999997E+02  0.45594000000E+02  0.51100000000E-03 0. -1.
         11   -1    0    0    0    0 -0.00000000000E+00 -0.00000000000E+00 -0.45593999997E+02  0.45594000000E+02  0.51100000000E-03 0.  1.
    9900012    2    1    2    0    0 -0.49279254570E+00 -0.30027760934E+00 -0.10297073937E+01  0.90007615125E+02  0.89999874845E+02 0.  0.
         12    1    1    2    0    0  0.49279254570E+00  0.30027760934E+00  0.10297073937E+01  0.11803848747E+01  0.00000000000E+00 0. -1.
         11    1    3    3    0    0 -0.20855019996E+01  0.79039412243E+00 -0.12955779828E+02  0.13146340657E+02  0.51100000000E-03 0. -1.
        -11    1    3    3    0    0 -0.17116739124E+02 -0.33990457518E+02  0.69817488586E+01  0.38692102268E+02  0.51100000000E-03 0.  1.
         12    1    3    3    0    0  0.18709448578E+02  0.32899785786E+02  0.49443235755E+01  0.38169172201E+02  0.00000000000E+00 0. -1.
</event>
<event>
 7    1  0.2090370E-015  0.9000779E+02  0.7816164E-02  0.1186339E+00
        -11   -1    0    0    0    0  0.00000000000E+00  0.00000000000E+00  0.45593999997E+02  0.45594000000E+02  0.51100000000E-03 0.  1.
         11   -1    0    0    0    0 -0.00000000000E+00 -0.00000000000E+00 -0.45593999997E+02  0.45594000000E+02  0.51100000000E-03 0. -1.
    9900012    2    1    2    0    0  0.36992811511E-01  0.11738493163E+01 -0.11664134899E+00  0.90007789896E+02  0.90000051923E+02 0.  0.
         12    1    1    2    0    0 -0.36992811511E-01 -0.11738493163E+01  0.11664134899E+00  0.11802101041E+01  0.00000000000E+00 0. -1.
         11    1    3    3    0    0 -0.61580316470E+01 -0.89371454128E+01 -0.64908997212E+01  0.12646173388E+02  0.51100000000E-03 0. -1.
        -11    1    3    3    0    0 -0.20172894333E+02  0.34547027505E+02 -0.32750467831E+01  0.40139366050E+02  0.51100000000E-03 0.  1.
         12    1    3    3    0    0  0.26367918791E+02 -0.24436032776E+02  0.96493051553E+01  0.37222250458E+02  0.00000000000E+00 0. -1.
</event>
<event>
 7    1  0.2090370E-015  0.9000789E+02  0.7816164E-02  0.1186339E+00
        -11   -1    0    0    0    0  0.00000000000E+00  0.00000000000E+00  0.45593999997E+02  0.45594000000E+02  0.51100000000E-03 0. -1.
         11   -1    0    0    0    0 -0.00000000000E+00 -0.00000000000E+00 -0.45593999997E+02  0.45594000000E+02  0.51100000000E-03 0.  1.
    9900012    2    1    2    0    0 -0.16850438241E+00  0.99434079967E+00 -0.61282522008E+00  0.90007888945E+02  0.90000152279E+02 0.  0.
         12    1    1    2    0    0  0.16850438241E+00 -0.99434079967E+00  0.61282522008E+00  0.11801110554E+01  0.00000000000E+00 0. -1.
         11    1    3    3    0    0  0.20667207848E+01 -0.32670374959E+02  0.28147143828E+02  0.43172751137E+02  0.51100000000E-03 0. -1.
        -11    1    3    3    0    0  0.55331177882E+01  0.88675220021E+01 -0.48478388950E+01  0.11521713463E+02  0.51100000000E-03 0.  1.
        -12    1    3    3    0    0 -0.77683429554E+01  0.24797193756E+02 -0.23912130153E+02  0.35313424345E+02  0.00000000000E+00 0.  1.
</event>
<event>
 7    1  0.2090370E-015  0.9000777E+02  0.7816164E-02  0.1186339E+00
        -11   -1    0    0    0    0  0.00000000000E+00  0.00000000000E+00  0.45593999997E+02  0.45594000000E+02  0.51100000000E-03 0. -1.
         11   -1    0    0    0    0 -0.00000000000E+00 -0.00000000000E+00 -0.45593999997E+02  0.45594000000E+02  0.51100000000E-03 0.  1.
    9900012    2    1    2    0    0  0.96614803714E-01  0.10304478484E+01 -0.56726448716E+00  0.90007768588E+02  0.90000030333E+02 0.  0.
         12    1    1    2    0    0 -0.96614803714E-01 -0.10304478484E+01  0.56726448716E+00  0.11802314125E+01  0.00000000000E+00 0. -1.
         11    1    3    3    0    0  0.82080133366E+00  0.84252300440E+01  0.25513462552E+02  0.26881126981E+02  0.51100000000E-03 0. -1.
        -11    1    3    3    0    0 -0.92485846467E+01  0.95964977978E+01  0.13652988773E+02  0.19079653840E+02  0.51100000000E-03 0.  1.
        -12    1    3    3    0    0  0.85243981168E+01 -0.16991279993E+02 -0.39733715812E+02  0.44046987767E+02  0.00000000000E+00 0.  1.
</event>
<event>
 7    1  0.2090370E-015  0.9000777E+02  0.7816164E-02  0.1186339E+00
        -11   -1    0    0    0    0  0.00000000000E+00  0.00000000000E+00  0.45593999997E+02  0.45594000000E+02  0.51100000000E-03 0.  1.
         11   -1    0    0    0    0 -0.00000000000E+00 -0.00000000000E+00 -0.45593999997E+02  0.45594000000E+02  0.51100000000E-03 0. -1.
    9900012    2    1    2    0    0 -0.48638776054E+00  0.70885679522E+00  0.80863936399E+00  0.90007767552E+02  0.90000029284E+02 0.  0.
         12    1    1    2    0    0  0.48638776054E+00 -0.70885679522E+00 -0.80863936399E+00  0.11802324477E+01  0.00000000000E+00 0. -1.
         11    1    3    3    0    0 -0.30978064804E+02 -0.22141100830E+01  0.88172331547E+01  0.32284460399E+02  0.51100000000E-03 0. -1.
        -11    1    3    3    0    0 -0.16832558786E+01 -0.13000634203E+02  0.10989964301E+02  0.17106406859E+02  0.51100000000E-03 0.  1.
        -12    1    3    3    0    0  0.32174932922E+02  0.15923601081E+02 -0.18998558092E+02  0.40616900294E+02  0.00000000000E+00 0.  1.
</event>
<event>
 7    1  0.2090370E-015  0.9000777E+02  0.7816164E-02  0.1186339E+00
        -11   -1    0    0    0    0  0.00000000000E+00  0.00000000000E+00  0.45593999997E+02  0.45594000000E+02  0.51100000000E-03 0. -1.
         11   -1    0    0    0    0 -0.00000000000E+00 -0.00000000000E+00 -0.45593999997E+02  0.45594000000E+02  0.51100000000E-03 0.  1.
    9900012    2    1    2    0    0  0.72356515154E+00  0.55688428749E-01 -0.93074979626E+00  0.90007769975E+02  0.90000031738E+02 0.  0.
         12    1    1    2    0    0 -0.72356515154E+00 -0.55688428749E-01  0.93074979626E+00  0.11802300254E+01  0.00000000000E+00 0. -1.
         11    1    3    3    0    0 -0.84894887609E+01 -0.31120100468E+01  0.30107002899E+00  0.90469149093E+01  0.51100000000E-03 0. -1.
        -11    1    3    3    0    0 -0.32792986378E+02  0.16508335464E+02  0.20053708605E+01  0.36768554608E+02  0.51100000000E-03 0.  1.
         12    1    3    3    0    0  0.42006040291E+02 -0.13340636988E+02 -0.32371906858E+01  0.44192300457E+02  0.00000000000E+00 0. -1.
</event>
<event>
 7    1  0.2090370E-015  0.9000773E+02  0.7816164E-02  0.1186339E+00
        -11   -1    0    0    0    0  0.00000000000E+00  0.00000000000E+00  0.45593999997E+02  0.45594000000E+02  0.51100000000E-03 0. -1.
         11   -1    0    0    0    0 -0.00000000000E+00 -0.00000000000E+00 -0.45593999997E+02  0.45594000000E+02  0.51100000000E-03 0.  1.
    9900012    2    1    2    0    0  0.83240171512E+00 -0.19718219155E+00 -0.81318028485E+00  0.90007730705E+02  0.89999991951E+02 0.  0.
         12    1    1    2    0    0 -0.83240171512E+00  0.19718219155E+00  0.81318028485E+00  0.11802692946E+01  0.00000000000E+00 0. -1.
         11    1    3    3    0    0  0.20029039400E+02  0.26779598489E+01  0.18194966912E+02  0.27191739728E+02  0.51100000000E-03 0. -1.
        -11    1    3    3    0    0  0.13462146918E+01 -0.36387840635E+01  0.19114348990E+02  0.19504137537E+02  0.51100000000E-03 0.  1.
        -12    1    3    3    0    0 -0.20542852377E+02  0.76364202307E+00 -0.38122496187E+02  0.43311853441E+02  0.00000000000E+00 0.  1.
</event>
<event>
 7    1  0.2090370E-015  0.9000676E+02  0.7816164E-02  0.1186341E+00
        -11   -1    0    0    0    0  0.00000000000E+00  0.00000000000E+00  0.45593999997E+02  0.45594000000E+02  0.51100000000E-03 0. -1.
         11   -1    0    0    0    0 -0.00000000000E+00 -0.00000000000E+00 -0.45593999997E+02  0.45594000000E+02  0.51100000000E-03 0.  1.
    9900012    2    1    2    0    0  0.51842677252E+00  0.64177737761E+00  0.84539635553E+00  0.90006755098E+02  0.89999003460E+02 0.  0.
         12    1    1    2    0    0 -0.51842677252E+00 -0.64177737761E+00 -0.84539635553E+00  0.11812449021E+01  0.00000000000E+00 0. -1.
         11    1    3    3    0    0 -0.84693754638E+01 -0.16088454723E+02  0.34427713447E+00  0.18184807481E+02  0.51100000000E-03 0. -1.
        -11    1    3    3    0    0 -0.19353643857E+02  0.31716055722E+02  0.98293527956E+01  0.38432901240E+02  0.51100000000E-03 0.  1.
         12    1    3    3    0    0  0.28341446093E+02 -0.14985823621E+02 -0.93282335745E+01  0.33389046376E+02  0.00000000000E+00 0. -1.
</event>
<event>
 7    1  0.2090370E-015  0.9000794E+02  0.7816164E-02  0.1186339E+00
        -11   -1    0    0    0    0  0.00000000000E+00  0.00000000000E+00  0.45593999997E+02  0.45594000000E+02  0.51100000000E-03 0.  1.
         11   -1    0    0    0    0 -0.00000000000E+00 -0.00000000000E+00 -0.45593999997E+02  0.45594000000E+02  0.51100000000E-03 0. -1.
    9900012    2    1    2    0    0  0.19422574333E+00  0.11313750946E+01 -0.27349657729E+00  0.90007943382E+02  0.90000207434E+02 0.  0.
         12    1    1    2    0    0 -0.19422574333E+00 -0.11313750946E+01  0.27349657729E+00  0.11800566181E+01  0.00000000000E+00 0. -1.
         11    1    3    3    0    0 -0.49144018385E+01 -0.10780773245E+02 -0.34091335737E+02  0.36091489160E+02  0.51100000000E-03 0. -1.
        -11    1    3    3    0    0 -0.13970245437E+01 -0.78523170624E+01 -0.53228348153E+01  0.95886981158E+01  0.51100000000E-03 0.  1.
        -12    1    3    3    0    0  0.65056521254E+01  0.19764465402E+02  0.39140673975E+02  0.44327756106E+02  0.00000000000E+00 0.  1.
</event>
<event>
 7    1  0.2090370E-015  0.9000761E+02  0.7816164E-02  0.1186339E+00
        -11   -1    0    0    0    0  0.00000000000E+00  0.00000000000E+00  0.45593999997E+02  0.45594000000E+02  0.51100000000E-03 0. -1.
         11   -1    0    0    0    0 -0.00000000000E+00 -0.00000000000E+00 -0.45593999997E+02  0.45594000000E+02  0.51100000000E-03 0.  1.
    9900012    2    1    2    0    0 -0.60812638805E+00 -0.39726169516E+00 -0.93042627339E+00  0.90007607011E+02  0.89999866623E+02 0.  0.
         12    1    1    2    0    0  0.60812638805E+00  0.39726169516E+00  0.93042627339E+00  0.11803929890E+01  0.00000000000E+00 0. -1.
         11    1    3    3    0    0  0.25202942544E+01 -0.27931948330E+02  0.24888089479E+02  0.37496168055E+02  0.51100000000E-03 0. -1.
        -11    1    3    3    0    0 -0.12377308874E+01 -0.89070010135E+01 -0.73451747689E+01  0.11611125589E+02  0.51100000000E-03 0.  1.
        -12    1    3    3    0    0 -0.18906897551E+01  0.36441687648E+02 -0.18473340984E+02  0.40900313367E+02  0.00000000000E+00 0.  1.
</event>
<event>
 7    1  0.2090370E-015  0.9000773E+02  0.7816164E-02  0.1186339E+00
        -11   -1    0    0    0    0  0.00000000000E+00  0.00000000000E+00  0.45593999997E+02  0.45594000000E+02  0.51100000000E-03 0.  1.
         11   -1    0    0    0    0 -0.00000000000E+00 -0.00000000000E+00 -0.45593999997E+02  0.45594000000E+02  0.51100000000E-03 0. -1.
    9900012    2    1    2    0    0  0.84870876468E+00 -0.81970889534E+00 -0.28217834509E-01  0.90007734993E+02  0.89999996295E+02 0.  0.
         12    1    1    2    0    0 -0.84870876468E+00  0.81970889534E+00  0.28217834509E-01  0.11802650069E+01  0.00000000000E+00 0. -1.
         11    1    3    3    0    0 -0.10818905918E+02  0.20033043185E+01 -0.25285645565E+02  0.27575819578E+02  0.51100000000E-03 0. -1.
        -11    1    3    3    0    0  0.17902139663E+02  0.68340532626E+01 -0.12556334423E+02  0.22909657852E+02  0.51100000000E-03 0.  1.
        -12    1    3    3    0    0 -0.62345249802E+01 -0.96570664764E+01  0.37813762154E+02  0.39522257563E+02  0.00000000000E+00 0.  1.
</event>
<event>
 7    1  0.2090370E-015  0.9000775E+02  0.7816164E-02  0.1186339E+00
        -11   -1    0    0    0    0  0.00000000000E+00  0.00000000000E+00  0.45593999997E+02  0.45594000000E+02  0.51100000000E-03 0.  1.
         11   -1    0    0    0    0 -0.00000000000E+00 -0.00000000000E+00 -0.45593999997E+02  0.45594000000E+02  0.51100000000E-03 0. -1.
    9900012    2    1    2    0    0 -0.11045406855E+01 -0.36015772102E+00  0.20800080661E+00  0.90007750854E+02  0.90000012366E+02 0.  0.
         12    1    1    2    0    0  0.11045406855E+01  0.36015772102E+00 -0.20800080661E+00  0.11802491456E+01  0.00000000000E+00 0. -1.
         11    1    3    3    0    0 -0.86768266205E+01  0.29387666534E+02 -0.12737705377E+02  0.33183902770E+02  0.51100000000E-03 0. -1.
        -11    1    3    3    0    0 -0.65417417078E+01  0.88646104014E+01  0.11148120673E+02  0.15673426458E+02  0.51100000000E-03 0.  1.
        -12    1    3    3    0    0  0.14114027643E+02 -0.38612434656E+02  0.17975855115E+01  0.41150421627E+02  0.00000000000E+00 0.  1.
</event>
<event>
 7    1  0.2090370E-015  0.9000771E+02  0.7816164E-02  0.1186339E+00
        -11   -1    0    0    0    0  0.00000000000E+00  0.00000000000E+00  0.45593999997E+02  0.45594000000E+02  0.51100000000E-03 0. -1.
         11   -1    0    0    0    0 -0.00000000000E+00 -0.00000000000E+00 -0.45593999997E+02  0.45594000000E+02  0.51100000000E-03 0.  1.
    9900012    2    1    2    0    0  0.48872062485E-01  0.51948997921E+00 -0.10586860170E+01  0.90007714272E+02  0.89999975300E+02 0.  0.
         12    1    1    2    0    0 -0.48872062485E-01 -0.51948997921E+00  0.10586860170E+01  0.11802857279E+01  0.00000000000E+00 0. -1.
         11    1    3    3    0    0 -0.81968720258E+01  0.22558644113E+01 -0.12076209658E+01  0.85869659315E+01  0.51100000000E-03 0. -1.
        -11    1    3    3    0    0  0.31994679096E+01 -0.11098823343E+02 -0.39092628623E+02  0.40763391510E+02  0.51100000000E-03 0.  1.
         12    1    3    3    0    0  0.50462761787E+01  0.93624489112E+01  0.39241563572E+02  0.40657356830E+02  0.00000000000E+00 0. -1.
</event>
<event>
 7    1  0.2090370E-015  0.9000766E+02  0.7816164E-02  0.1186339E+00
        -11   -1    0    0    0    0  0.00000000000E+00  0.00000000000E+00  0.45593999997E+02  0.45594000000E+02  0.51100000000E-03 0.  1.
         11   -1    0    0    0    0 -0.00000000000E+00 -0.00000000000E+00 -0.45593999997E+02  0.45594000000E+02  0.51100000000E-03 0. -1.
    9900012    2    1    2    0    0 -0.49169389367E+00  0.98447653682E+00  0.42689413827E+00  0.90007662954E+02  0.89999923305E+02 0.  0.
         12    1    1    2    0    0  0.49169389367E+00 -0.98447653682E+00 -0.42689413827E+00  0.11803370459E+01  0.00000000000E+00 0. -1.
         11    1    3    3    0    0 -0.39949500287E+01  0.33913019444E+01 -0.77639665710E+01  0.93669489048E+01  0.51100000000E-03 0. -1.
        -11    1    3    3    0    0 -0.30585022932E+02  0.13458422681E+02 -0.14825006351E+02  0.36556170237E+02  0.51100000000E-03 0.  1.
         12    1    3    3    0    0  0.34088279067E+02 -0.15865248089E+02  0.23015867060E+02  0.44084543813E+02  0.00000000000E+00 0. -1.
</event>
<event>
 7    1  0.2090370E-015  0.9000773E+02  0.7816164E-02  0.1186339E+00
        -11   -1    0    0    0    0  0.00000000000E+00  0.00000000000E+00  0.45593999997E+02  0.45594000000E+02  0.51100000000E-03 0.  1.
         11   -1    0    0    0    0 -0.00000000000E+00 -0.00000000000E+00 -0.45593999997E+02  0.45594000000E+02  0.51100000000E-03 0. -1.
    9900012    2    1    2    0    0  0.65839681573E+00 -0.31605172994E-01  0.97906095390E+00  0.90007726470E+02  0.89999987660E+02 0.  0.
         12    1    1    2    0    0 -0.65839681573E+00  0.31605172994E-01 -0.97906095390E+00  0.11802735299E+01  0.00000000000E+00 0. -1.
         11    1    3    3    0    0  0.88500448821E+01  0.53128684221E+01  0.30592985357E+01  0.10766112255E+02  0.51100000000E-03 0. -1.
        -11    1    3    3    0    0 -0.27383751943E+01  0.10912401301E+02  0.35872314648E+02  0.37595241179E+02  0.51100000000E-03 0.  1.
         12    1    3    3    0    0 -0.54532728720E+01 -0.16256874896E+02 -0.37952552229E+02  0.41646373037E+02  0.00000000000E+00 0. -1.
</event>
<event>
 7    1  0.2857437E-015  0.9000771E+02  0.7816164E-02  0.1186339E+00
        -11   -1    0    0    0    0  0.00000000000E+00  0.00000000000E+00  0.45593999997E+02  0.45594000000E+02  0.51100000000E-03 0. -1.
         11   -1    0    0    0    0 -0.00000000000E+00 -0.00000000000E+00 -0.45593999997E+02  0.45594000000E+02  0.51100000000E-03 0.  1.
    9900012    2    1    2    0    0  0.10858507309E+01 -0.40123817447E+00  0.23024047503E+00  0.90007714205E+02  0.89999975232E+02 0.  0.
         12    1    1    2    0    0 -0.10858507309E+01  0.40123817447E+00 -0.23024047503E+00  0.11802857954E+01  0.00000000000E+00 0. -1.
         11    1    3    3    0    0 -0.11982484753E+02 -0.22989943790E+02  0.25089793986E+02  0.36077904857E+02  0.51100000000E-03 0. -1.
        -11    1    3    3    0    0 -0.72374263958E+01 -0.54793255377E+01  0.29078357797E+01  0.95319913117E+01  0.51100000000E-03 0.  1.
        -12    1    3    3    0    0  0.20305761880E+02  0.28068031154E+02 -0.27767389291E+02  0.44397818036E+02  0.00000000000E+00 0.  1.
</event>
<event>
 7    1  0.2090370E-015  0.9000763E+02  0.7816164E-02  0.1186339E+00
        -11   -1    0    0    0    0  0.00000000000E+00  0.00000000000E+00  0.45593999997E+02  0.45594000000E+02  0.51100000000E-03 0.  1.
         11   -1    0    0    0    0 -0.00000000000E+00 -0.00000000000E+00 -0.45593999997E+02  0.45594000000E+02  0.51100000000E-03 0. -1.
    9900012    2    1    2    0    0  0.92247972314E+00  0.73641251451E+00 -0.20011187370E-02  0.90007628772E+02  0.89999888672E+02 0.  0.
         12    1    1    2    0    0 -0.92247972314E+00 -0.73641251451E+00  0.20011187370E-02  0.11803712279E+01  0.00000000000E+00 0. -1.
         11    1    3    3    0    0  0.32011050888E+01 -0.10521598849E+01 -0.10569019427E+02  0.11093163936E+02  0.51100000000E-03 0. -1.
        -11    1    3    3    0    0 -0.36778768355E+02 -0.22525678234E+01  0.21296268543E+02  0.42559169607E+02  0.51100000000E-03 0.  1.
         12    1    3    3    0    0  0.34500142989E+02  0.40411402227E+01 -0.10729250235E+02  0.36355295229E+02  0.00000000000E+00 0. -1.
</event>
<event>
 7    1  0.2090370E-015  0.9000781E+02  0.7816164E-02  0.1186339E+00
        -11   -1    0    0    0    0  0.00000000000E+00  0.00000000000E+00  0.45593999997E+02  0.45594000000E+02  0.51100000000E-03 0. -1.
         11   -1    0    0    0    0 -0.00000000000E+00 -0.00000000000E+00 -0.45593999997E+02  0.45594000000E+02  0.51100000000E-03 0.  1.
    9900012    2    1    2    0    0  0.49932758646E+00 -0.83077189277E+00 -0.67329942025E+00  0.90007812690E+02  0.90000075018E+02 0.  0.
         12    1    1    2    0    0 -0.49932758646E+00  0.83077189277E+00  0.67329942025E+00  0.11801873096E+01  0.00000000000E+00 0. -1.
         11    1    3    3    0    0 -0.31300445815E+02 -0.10124117293E+02  0.29703966675E+02  0.44323146275E+02  0.51100000000E-03 0. -1.
        -11    1    3    3    0    0  0.37574255542E+01  0.39374115140E+01 -0.64093036120E+01  0.84083666236E+01  0.51100000000E-03 0.  1.
        -12    1    3    3    0    0  0.28042347847E+02  0.53559338860E+01 -0.23967962483E+02  0.37276299792E+02  0.00000000000E+00 0.  1.
</event>
<event>
 7    1  0.2090370E-015  0.9000771E+02  0.7816164E-02  0.1186339E+00
        -11   -1    0    0    0    0  0.00000000000E+00  0.00000000000E+00  0.45593999997E+02  0.45594000000E+02  0.51100000000E-03 0. -1.
         11   -1    0    0    0    0 -0.00000000000E+00 -0.00000000000E+00 -0.45593999997E+02  0.45594000000E+02  0.51100000000E-03 0.  1.
    9900012    2    1    2    0    0  0.63089440512E+00  0.16243520877E+00 -0.98421678588E+00  0.90007705279E+02  0.89999966188E+02 0.  0.
         12    1    1    2    0    0 -0.63089440512E+00 -0.16243520877E+00  0.98421678588E+00  0.11802947213E+01  0.00000000000E+00 0. -1.
         11    1    3    3    0    0 -0.70566543435E+01 -0.60763243367E+01  0.11373350313E+00  0.93129492396E+01  0.51100000000E-03 0. -1.
        -11    1    3    3    0    0  0.38757985620E+01  0.11745649495E+02 -0.39665929996E+02  0.41549586030E+02  0.51100000000E-03 0.  1.
         12    1    3    3    0    0  0.38117501866E+01 -0.55068899494E+01  0.38567979707E+02  0.39145170009E+02  0.00000000000E+00 0. -1.
</event>
<event>
 7    1  0.2090370E-015  0.9000776E+02  0.7816164E-02  0.1186339E+00
        -11   -1    0    0    0    0  0.00000000000E+00  0.00000000000E+00  0.45593999997E+02  0.45594000000E+02  0.51100000000E-03 0. -1.
         11   -1    0    0    0    0 -0.00000000000E+00 -0.00000000000E+00 -0.45593999997E+02  0.45594000000E+02  0.51100000000E-03 0.  1.
    9900012    2    1    2    0    0  0.44212367443E+00  0.65260949322E+00 -0.87840251487E+00  0.90007761265E+02  0.90000022913E+02 0.  0.
         12    1    1    2    0    0 -0.44212367443E+00 -0.65260949322E+00  0.87840251487E+00  0.11802387353E+01  0.00000000000E+00 0. -1.
         11    1    3    3    0    0 -0.53347901612E+01 -0.70933477650E+01  0.68213929323E+01  0.11194059602E+02  0.51100000000E-03 0. -1.
        -11    1    3    3    0    0 -0.10192197923E+02 -0.22643958751E+02 -0.29181142871E+02  0.38316691741E+02  0.51100000000E-03 0.  1.
         12    1    3    3    0    0  0.15969111759E+02  0.30389916009E+02  0.21481347424E+02  0.40497009922E+02  0.00000000000E+00 0. -1.
</event>
<event>
 7    1  0.2090370E-015  0.9000778E+02  0.7816164E-02  0.1186339E+00
        -11   -1    0    0    0    0  0.00000000000E+00  0.00000000000E+00  0.45593999997E+02  0.45594000000E+02  0.51100000000E-03 0.  1.
         11   -1    0    0    0    0 -0.00000000000E+00 -0.00000000000E+00 -0.45593999997E+02  0.45594000000E+02  0.51100000000E-03 0. -1.
    9900012    2    1    2    0    0 -0.41758996389E+00  0.10759193515E+01  0.24685565067E+00  0.90007779029E+02  0.90000040912E+02 0.  0.
         12    1    1    2    0    0  0.41758996389E+00 -0.10759193515E+01 -0.24685565067E+00  0.11802209713E+01  0.00000000000E+00 0. -1.
         11    1    3    3    0    0  0.90189709215E+01  0.69551307469E+00 -0.24657524150E+01  0.93757938412E+01  0.51100000000E-03 0. -1.
        -11    1    3    3    0    0  0.19319073492E+02  0.22076259598E+02  0.24768748999E+02  0.38393733417E+02  0.51100000000E-03 0.  1.
         12    1    3    3    0    0 -0.28755634377E+02 -0.21695853321E+02 -0.22056140933E+02  0.42238251771E+02  0.00000000000E+00 0. -1.
</event>
<event>
 7    1  0.2090370E-015  0.9000865E+02  0.7816164E-02  0.1186337E+00
        -11   -1    0    0    0    0  0.00000000000E+00  0.00000000000E+00  0.45593999997E+02  0.45594000000E+02  0.51100000000E-03 0. -1.
         11   -1    0    0    0    0 -0.00000000000E+00 -0.00000000000E+00 -0.45593999997E+02  0.45594000000E+02  0.51100000000E-03 0.  1.
    9900012    2    1    2    0    0 -0.15999495867E+00  0.60780511248E+00 -0.99791395518E+00  0.90008653697E+02  0.90000927121E+02 0.  0.
         12    1    1    2    0    0  0.15999495867E+00 -0.60780511248E+00  0.99791395518E+00  0.11793463035E+01  0.00000000000E+00 0. -1.
         11    1    3    3    0    0  0.10173986733E+01 -0.72240515202E+01 -0.61588599364E+01  0.95474382116E+01  0.51100000000E-03 0. -1.
        -11    1    3    3    0    0 -0.23044583707E+02  0.98348106058E+01  0.35227902622E+02  0.43229405053E+02  0.51100000000E-03 0.  1.
         12    1    3    3    0    0  0.21867190075E+02 -0.20029539731E+01 -0.30066956641E+02  0.37231810432E+02  0.00000000000E+00 0. -1.
</event>
<event>
 7    1  0.2090370E-015  0.9000751E+02  0.7816164E-02  0.1186339E+00
        -11   -1    0    0    0    0  0.00000000000E+00  0.00000000000E+00  0.45593999997E+02  0.45594000000E+02  0.51100000000E-03 0.  1.
         11   -1    0    0    0    0 -0.00000000000E+00 -0.00000000000E+00 -0.45593999997E+02  0.45594000000E+02  0.51100000000E-03 0. -1.
    9900012    2    1    2    0    0 -0.16692634624E+00 -0.11256045744E+01  0.31415993533E+00  0.90007514283E+02  0.89999772671E+02 0.  0.
         12    1    1    2    0    0  0.16692634624E+00  0.11256045744E+01 -0.31415993533E+00  0.11804857169E+01  0.00000000000E+00 0. -1.
         11    1    3    3    0    0  0.11133759267E+02  0.35197969196E+02 -0.19324882289E+02  0.41669037746E+02  0.51100000000E-03 0. -1.
        -11    1    3    3    0    0  0.38464501715E+01 -0.91498910943E+01 -0.24015908402E+01  0.10211920720E+02  0.51100000000E-03 0.  1.
        -12    1    3    3    0    0 -0.15147135785E+02 -0.27173682676E+02  0.22040633064E+02  0.38126555818E+02  0.00000000000E+00 0.  1.
</event>
<event>
 7    1  0.2090370E-015  0.9000763E+02  0.7816164E-02  0.1186339E+00
        -11   -1    0    0    0    0  0.00000000000E+00  0.00000000000E+00  0.45593999997E+02  0.45594000000E+02  0.51100000000E-03 0.  1.
         11   -1    0    0    0    0 -0.00000000000E+00 -0.00000000000E+00 -0.45593999997E+02  0.45594000000E+02  0.51100000000E-03 0. -1.
    9900012    2    1    2    0    0  0.77558215360E+00 -0.30039506197E-01  0.88929306102E+00  0.90007630483E+02  0.89999890405E+02 0.  0.
         12    1    1    2    0    0 -0.77558215360E+00  0.30039506197E-01 -0.88929306102E+00  0.11803695173E+01  0.00000000000E+00 0. -1.
         11    1    3    3    0    0  0.34087826050E+01 -0.12071836038E+02 -0.34840397632E+01  0.13018738706E+02  0.51100000000E-03 0. -1.
        -11    1    3    3    0    0 -0.35125194849E+01 -0.25173229716E+02 -0.20129813375E+02  0.32422811017E+02  0.51100000000E-03 0.  1.
         12    1    3    3    0    0  0.87931903353E+00  0.37215026247E+02  0.24503146200E+02  0.44566080759E+02  0.00000000000E+00 0. -1.
</event>
<event>
 7    1  0.2090370E-015  0.9000770E+02  0.7816164E-02  0.1186339E+00
        -11   -1    0    0    0    0  0.00000000000E+00  0.00000000000E+00  0.45593999997E+02  0.45594000000E+02  0.51100000000E-03 0.  1.
         11   -1    0    0    0    0 -0.00000000000E+00 -0.00000000000E+00 -0.45593999997E+02  0.45594000000E+02  0.51100000000E-03 0. -1.
    9900012    2    1    2    0    0  0.17495582121E-01 -0.76724101290E+00  0.89674016152E+00  0.90007700129E+02  0.89999960971E+02 0.  0.
         12    1    1    2    0    0 -0.17495582121E-01  0.76724101290E+00 -0.89674016152E+00  0.11802998706E+01  0.00000000000E+00 0. -1.
         11    1    3    3    0    0 -0.92954634312E+00 -0.10780178080E+02  0.73510587870E+00  0.10845122257E+02  0.51100000000E-03 0. -1.
        -11    1    3    3    0    0  0.25429631268E+02  0.11409093190E+02  0.29727879513E+02  0.40750219317E+02  0.51100000000E-03 0.  1.
         12    1    3    3    0    0 -0.24482589342E+02 -0.13961561223E+01 -0.29566245230E+02  0.38412358556E+02  0.00000000000E+00 0. -1.
</event>
<event>
 7    1  0.2090370E-015  0.9000774E+02  0.7816164E-02  0.1186339E+00
        -11   -1    0    0    0    0  0.00000000000E+00  0.00000000000E+00  0.45593999997E+02  0.45594000000E+02  0.51100000000E-03 0. -1.
         11   -1    0    0    0    0 -0.00000000000E+00 -0.00000000000E+00 -0.45593999997E+02  0.45594000000E+02  0.51100000000E-03 0.  1.
    9900012    2    1    2    0    0 -0.68636171175E+00  0.64549763300E-01 -0.95799620151E+00  0.90007739099E+02  0.90000000456E+02 0.  0.
         12    1    1    2    0    0  0.68636171175E+00 -0.64549763300E-01  0.95799620151E+00  0.11802609006E+01  0.00000000000E+00 0. -1.
         11    1    3    3    0    0 -0.26345339516E+02  0.22119173259E+02  0.20123181156E+02  0.39853195103E+02  0.51100000000E-03 0. -1.
        -11    1    3    3    0    0 -0.39032459308E+01  0.34043167179E+01 -0.69341528754E+01  0.86548932675E+01  0.51100000000E-03 0.  1.
        -12    1    3    3    0    0  0.29562223735E+02 -0.25458940213E+02 -0.14147024482E+02  0.41499650729E+02  0.00000000000E+00 0.  1.
</event>
<event>
 7    1  0.2090370E-015  0.9000772E+02  0.7816164E-02  0.1186339E+00
        -11   -1    0    0    0    0  0.00000000000E+00  0.00000000000E+00  0.45593999997E+02  0.45594000000E+02  0.51100000000E-03 0.  1.
         11   -1    0    0    0    0 -0.00000000000E+00 -0.00000000000E+00 -0.45593999997E+02  0.45594000000E+02  0.51100000000E-03 0. -1.
    9900012    2    1    2    0    0  0.68645017959E+00 -0.37436522853E+00  0.88414246310E+00  0.90007715683E+02  0.89999976730E+02 0.  0.
         12    1    1    2    0    0 -0.68645017959E+00  0.37436522853E+00 -0.88414246310E+00  0.11802843168E+01  0.00000000000E+00 0. -1.
         11    1    3    3    0    0  0.31286194883E+02 -0.30094409089E+01 -0.26458783332E+02  0.41084667949E+02  0.51100000000E-03 0. -1.
        -11    1    3    3    0    0 -0.23997917851E+01 -0.89332031728E+01  0.24489977719E+01  0.95686315576E+01  0.51100000000E-03 0.  1.
        -12    1    3    3    0    0 -0.28199952918E+02  0.11568278853E+02  0.24893928023E+02  0.39354416177E+02  0.00000000000E+00 0.  1.
</event>
<event>
 7    1  0.2090370E-015  0.9000773E+02  0.7816164E-02  0.1186339E+00
        -11   -1    0    0    0    0  0.00000000000E+00  0.00000000000E+00  0.45593999997E+02  0.45594000000E+02  0.51100000000E-03 0.  1.
         11   -1    0    0    0    0 -0.00000000000E+00 -0.00000000000E+00 -0.45593999997E+02  0.45594000000E+02  0.51100000000E-03 0. -1.
    9900012    2    1    2    0    0 -0.10737776442E+00  0.58969981290E+00  0.10167380855E+01  0.90007732154E+02  0.89999993418E+02 0.  0.
         12    1    1    2    0    0  0.10737776442E+00 -0.58969981290E+00 -0.10167380855E+01  0.11802678460E+01  0.00000000000E+00 0. -1.
         11    1    3    3    0    0 -0.33740735068E+00 -0.61920628039E+01  0.49229769273E+01  0.79177766814E+01  0.51100000000E-03 0. -1.
        -11    1    3    3    0    0 -0.30570438281E+02  0.10978849570E+02  0.23944139181E+02  0.40353545519E+02  0.51100000000E-03 0.  1.
         12    1    3    3    0    0  0.30800467868E+02 -0.41970869531E+01 -0.27850378023E+02  0.41736409953E+02  0.00000000000E+00 0. -1.
</event>
<event>
 7    1  0.2090370E-015  0.9000773E+02  0.7816164E-02  0.1186339E+00
        -11   -1    0    0    0    0  0.00000000000E+00  0.00000000000E+00  0.45593999997E+02  0.45594000000E+02  0.51100000000E-03 0. -1.
         11   -1    0    0    0    0 -0.00000000000E+00 -0.00000000000E+00 -0.45593999997E+02  0.45594000000E+02  0.51100000000E-03 0.  1.
    9900012    2    1    2    0    0 -0.75894178998E-01 -0.11756783885E+01 -0.71138349578E-01  0.90007728733E+02  0.89999989952E+02 0.  0.
         12    1    1    2    0    0  0.75894178998E-01  0.11756783885E+01  0.71138349578E-01  0.11802712673E+01  0.00000000000E+00 0. -1.
         11    1    3    3    0    0  0.29174701295E+02  0.13279195123E+02  0.25821199193E+02  0.41161080486E+02  0.51100000000E-03 0. -1.
        -11    1    3    3    0    0 -0.73510130005E+01  0.58572839363E+01 -0.12690992244E+00  0.94000677463E+01  0.51100000000E-03 0.  1.
        -12    1    3    3    0    0 -0.21899582473E+02 -0.20312157448E+02 -0.25765427620E+02  0.39446580500E+02  0.00000000000E+00 0.  1.
</event>
<event>
 7    1  0.2090370E-015  0.9000709E+02  0.7816164E-02  0.1186340E+00
        -11   -1    0    0    0    0  0.00000000000E+00  0.00000000000E+00  0.45593999997E+02  0.45594000000E+02  0.51100000000E-03 0.  1.
         11   -1    0    0    0    0 -0.00000000000E+00 -0.00000000000E+00 -0.45593999997E+02  0.45594000000E+02  0.51100000000E-03 0. -1.
    9900012    2    1    2    0    0 -0.10858147618E+01 -0.25868454126E-01 -0.46355282962E+00  0.90007091833E+02  0.89999344642E+02 0.  0.
         12    1    1    2    0    0  0.10858147618E+01  0.25868454126E-01  0.46355282962E+00  0.11809081673E+01  0.00000000000E+00 0. -1.
         11    1    3    3    0    0 -0.33023271145E+00 -0.34367337475E+01  0.21759724624E+00  0.34594134355E+01  0.51100000000E-03 0. -1.
        -11    1    3    3    0    0  0.30224545653E+01 -0.39548805875E+02  0.12271456621E+02  0.41519054970E+02  0.51100000000E-03 0.  1.
         12    1    3    3    0    0 -0.37780366157E+01  0.42959671168E+02 -0.12952606696E+02  0.45028623428E+02  0.00000000000E+00 0. -1.
</event>
<event>
 7    1  0.2090370E-015  0.9000779E+02  0.7816164E-02  0.1186339E+00
        -11   -1    0    0    0    0  0.00000000000E+00  0.00000000000E+00  0.45593999997E+02  0.45594000000E+02  0.51100000000E-03 0. -1.
         11   -1    0    0    0    0 -0.00000000000E+00 -0.00000000000E+00 -0.45593999997E+02  0.45594000000E+02  0.51100000000E-03 0.  1.
    9900012    2    1    2    0    0  0.79159282171E+00  0.42017388740E-01 -0.87435847681E+00  0.90007793492E+02  0.90000055566E+02 0.  0.
         12    1    1    2    0    0 -0.79159282171E+00 -0.42017388740E-01  0.87435847681E+00  0.11802065083E+01  0.00000000000E+00 0. -1.
         11    1    3    3    0    0  0.98082590900E+01  0.14066595912E+01 -0.41266356142E+01  0.10733580919E+02  0.51100000000E-03 0. -1.
        -11    1    3    3    0    0  0.58864502473E+01  0.17470156554E+02 -0.31815145018E+02  0.36770370127E+02  0.51100000000E-03 0.  1.
         12    1    3    3    0    0 -0.14903116516E+02 -0.18834798756E+02  0.35067422155E+02  0.42503842446E+02  0.00000000000E+00 0. -1.
</event>
<event>
 7    1  0.2090370E-015  0.9000778E+02  0.7816164E-02  0.1186339E+00
        -11   -1    0    0    0    0  0.00000000000E+00  0.00000000000E+00  0.45593999997E+02  0.45594000000E+02  0.51100000000E-03 0.  1.
         11   -1    0    0    0    0 -0.00000000000E+00 -0.00000000000E+00 -0.45593999997E+02  0.45594000000E+02  0.51100000000E-03 0. -1.
    9900012    2    1    2    0    0 -0.80571864988E+00 -0.65086152699E+00  0.56579255664E+00  0.90007777781E+02  0.90000039647E+02 0.  0.
         12    1    1    2    0    0  0.80571864988E+00  0.65086152699E+00 -0.56579255664E+00  0.11802222194E+01  0.00000000000E+00 0. -1.
         11    1    3    3    0    0 -0.20436398594E+02 -0.26206472068E+02 -0.11169870506E+02  0.35059828481E+02  0.51100000000E-03 0. -1.
        -11    1    3    3    0    0 -0.59330410196E-01 -0.98039140012E+01  0.10629782362E+02  0.14460723466E+02  0.51100000000E-03 0.  1.
        -12    1    3    3    0    0  0.19690010354E+02  0.35359524542E+02  0.11058807011E+01  0.40487225834E+02  0.00000000000E+00 0.  1.
</event>
<event>
 7    1  0.2090370E-015  0.9000769E+02  0.7816164E-02  0.1186339E+00
        -11   -1    0    0    0    0  0.00000000000E+00  0.00000000000E+00  0.45593999997E+02  0.45594000000E+02  0.51100000000E-03 0.  1.
         11   -1    0    0    0    0 -0.00000000000E+00 -0.00000000000E+00 -0.45593999997E+02  0.45594000000E+02  0.51100000000E-03 0. -1.
    9900012    2    1    2    0    0  0.23633799711E+00  0.25859344878E+00  0.11271178682E+01  0.90007694569E+02  0.89999955338E+02 0.  0.
         12    1    1    2    0    0 -0.23633799711E+00 -0.25859344878E+00 -0.11271178682E+01  0.11803054306E+01  0.00000000000E+00 0. -1.
         11    1    3    3    0    0 -0.17910647421E+02 -0.80309768169E+01 -0.35058286308E+02  0.40179239898E+02  0.51100000000E-03 0. -1.
        -11    1    3    3    0    0  0.65273440604E+01 -0.49912888615E+01 -0.13731570548E+01  0.83309510586E+01  0.51100000000E-03 0.  1.
        -12    1    3    3    0    0  0.11619641357E+02  0.13280859127E+02  0.37558561231E+02  0.41497503613E+02  0.00000000000E+00 0.  1.
</event>
<event>
 7    1  0.2090370E-015  0.9000735E+02  0.7816164E-02  0.1186340E+00
        -11   -1    0    0    0    0  0.00000000000E+00  0.00000000000E+00  0.45593999997E+02  0.45594000000E+02  0.51100000000E-03 0.  1.
         11   -1    0    0    0    0 -0.00000000000E+00 -0.00000000000E+00 -0.45593999997E+02  0.45594000000E+02  0.51100000000E-03 0. -1.
    9900012    2    1    2    0    0 -0.74180253368E+00 -0.31796069793E+00  0.86172673969E+00  0.90007346377E+02  0.89999602548E+02 0.  0.
         12    1    1    2    0    0  0.74180253368E+00  0.31796069793E+00 -0.86172673969E+00  0.11806536233E+01  0.00000000000E+00 0. -1.
         11    1    3    3    0    0  0.16866468569E+01 -0.38979919904E+02  0.15937464844E+00  0.39016718646E+02  0.51100000000E-03 0. -1.
        -11    1    3    3    0    0  0.70728589455E+01 -0.27833632662E+01 -0.32917293396E+01  0.82829902234E+01  0.51100000000E-03 0.  1.
        -12    1    3    3    0    0 -0.95013083362E+01  0.41445322473E+02  0.39940814308E+01  0.42707637507E+02  0.00000000000E+00 0.  1.
</event>
<event>
 7    1  0.2090370E-015  0.9000770E+02  0.7816164E-02  0.1186339E+00
        -11   -1    0    0    0    0  0.00000000000E+00  0.00000000000E+00  0.45593999997E+02  0.45594000000E+02  0.51100000000E-03 0.  1.
         11   -1    0    0    0    0 -0.00000000000E+00 -0.00000000000E+00 -0.45593999997E+02  0.45594000000E+02  0.51100000000E-03 0. -1.
    9900012    2    1    2    0    0 -0.22079510853E+00  0.40722827024E+00  0.10855996728E+01  0.90007698346E+02  0.89999959164E+02 0.  0.
         12    1    1    2    0    0  0.22079510853E+00 -0.40722827024E+00 -0.10855996728E+01  0.11803016537E+01  0.00000000000E+00 0. -1.
         11    1    3    3    0    0 -0.16101544861E+01  0.10615387187E+02 -0.59144555246E+01  0.12258051518E+02  0.51100000000E-03 0. -1.
        -11    1    3    3    0    0  0.45830890304E+01 -0.29036984246E+02 -0.26246376554E+02  0.39408418411E+02  0.51100000000E-03 0.  1.
         12    1    3    3    0    0 -0.31937296528E+01  0.18828825330E+02  0.33246431751E+02  0.38341228418E+02  0.00000000000E+00 0. -1.
</event>
<event>
 7    1  0.2090370E-015  0.9000774E+02  0.7816164E-02  0.1186339E+00
        -11   -1    0    0    0    0  0.00000000000E+00  0.00000000000E+00  0.45593999997E+02  0.45594000000E+02  0.51100000000E-03 0. -1.
         11   -1    0    0    0    0 -0.00000000000E+00 -0.00000000000E+00 -0.45593999997E+02  0.45594000000E+02  0.51100000000E-03 0.  1.
    9900012    2    1    2    0    0  0.88588361744E+00 -0.15820795780E+00 -0.76367783854E+00  0.90007735884E+02  0.89999997198E+02 0.  0.
         12    1    1    2    0    0 -0.88588361744E+00  0.15820795780E+00  0.76367783854E+00  0.11802641156E+01  0.00000000000E+00 0. -1.
         11    1    3    3    0    0 -0.38593616401E+01 -0.71550943949E+01  0.17839408738E+01  0.83230098745E+01  0.51100000000E-03 0. -1.
        -11    1    3    3    0    0 -0.24083522891E+02  0.88179373609E+01  0.29131814912E+02  0.38812816626E+02  0.51100000000E-03 0.  1.
         12    1    3    3    0    0  0.28828768149E+02 -0.18210509238E+01 -0.31679433624E+02  0.42871909384E+02  0.00000000000E+00 0. -1.
</event>
<event>
 7    1  0.2090370E-015  0.9000764E+02  0.7816164E-02  0.1186339E+00
        -11   -1    0    0    0    0  0.00000000000E+00  0.00000000000E+00  0.45593999997E+02  0.45594000000E+02  0.51100000000E-03 0. -1.
         11   -1    0    0    0    0 -0.00000000000E+00 -0.00000000000E+00 -0.45593999997E+02  0.45594000000E+02  0.51100000000E-03 0.  1.
    9900012    2    1    2    0    0  0.68600990382E+00  0.44029904438E+00  0.85368460403E+00  0.90007639784E+02  0.89999899829E+02 0.  0.
         12    1    1    2    0    0 -0.68600990382E+00 -0.44029904438E+00 -0.85368460403E+00  0.11803602161E+01  0.00000000000E+00 0. -1.
         11    1    3    3    0    0 -0.67224247448E+01 -0.62374759113E+01  0.23566452304E+01  0.94684147140E+01  0.51100000000E-03 0. -1.
        -11    1    3    3    0    0  0.36977206861E+02 -0.14959782895E+02  0.11738172736E+02  0.41579966702E+02  0.51100000000E-03 0.  1.
         12    1    3    3    0    0 -0.29568772212E+02  0.21637557851E+02 -0.13241133363E+02  0.38959258368E+02  0.00000000000E+00 0. -1.
</event>
<event>
 7    1  0.2090370E-015  0.9000785E+02  0.7816164E-02  0.1186339E+00
        -11   -1    0    0    0    0  0.00000000000E+00  0.00000000000E+00  0.45593999997E+02  0.45594000000E+02  0.51100000000E-03 0. -1.
         11   -1    0    0    0    0 -0.00000000000E+00 -0.00000000000E+00 -0.45593999997E+02  0.45594000000E+02  0.51100000000E-03 0.  1.
    9900012    2    1    2    0    0  0.28190992768E+00  0.89263396578E+00 -0.71866757314E+00  0.90007850990E+02  0.90000113823E+02 0.  0.
         12    1    1    2    0    0 -0.28190992768E+00 -0.89263396578E+00  0.71866757314E+00  0.11801490096E+01  0.00000000000E+00 0. -1.
         11    1    3    3    0    0  0.17013548705E+02 -0.21560123020E+02 -0.23056962675E+02  0.35859772339E+02  0.51100000000E-03 0. -1.
        -11    1    3    3    0    0 -0.11534006574E+00 -0.99074040555E+01 -0.23519987165E+01  0.10183410857E+02  0.51100000000E-03 0.  1.
        -12    1    3    3    0    0 -0.16616298712E+02  0.32360161041E+02  0.24690293818E+02  0.43964667795E+02  0.00000000000E+00 0.  1.
</event>
<event>
 7    1  0.2090370E-015  0.9000767E+02  0.7816164E-02  0.1186339E+00
        -11   -1    0    0    0    0  0.00000000000E+00  0.00000000000E+00  0.45593999997E+02  0.45594000000E+02  0.51100000000E-03 0. -1.
         11   -1    0    0    0    0 -0.00000000000E+00 -0.00000000000E+00 -0.45593999997E+02  0.45594000000E+02  0.51100000000E-03 0.  1.
    9900012    2    1    2    0    0 -0.96579812805E+00 -0.27866240792E-01 -0.67796612758E+00  0.90007669274E+02  0.89999929709E+02 0.  0.
         12    1    1    2    0    0  0.96579812805E+00  0.27866240792E-01  0.67796612758E+00  0.11803307255E+01  0.00000000000E+00 0. -1.
         11    1    3    3    0    0 -0.38657923610E+01  0.58548179461E+01 -0.49189718703E+01  0.85685196086E+01  0.51100000000E-03 0. -1.
        -11    1    3    3    0    0 -0.42940766172E+01  0.36004283459E+02  0.12086490997E+02  0.38220816139E+02  0.51100000000E-03 0.  1.
         12    1    3    3    0    0  0.71940708502E+01 -0.41886967646E+02 -0.78454852538E+01  0.43218333527E+02  0.00000000000E+00 0. -1.
</event>
<event>
 7    1  0.2090370E-015  0.9000789E+02  0.7816164E-02  0.1186339E+00
        -11   -1    0    0    0    0  0.00000000000E+00  0.00000000000E+00  0.45593999997E+02  0.45594000000E+02  0.51100000000E-03 0.  1.
         11   -1    0    0    0    0 -0.00000000000E+00 -0.00000000000E+00 -0.45593999997E+02  0.45594000000E+02  0.51100000000E-03 0. -1.
    9900012    2    1    2    0    0 -0.32374433871E+00 -0.91828922867E+00  0.66677409931E+00  0.90007892715E+02  0.90000156099E+02 0.  0.
         12    1    1    2    0    0  0.32374433871E+00  0.91828922867E+00 -0.66677409931E+00  0.11801072849E+01  0.00000000000E+00 0. -1.
         11    1    3    3    0    0 -0.38344615394E+01  0.79906527492E+01 -0.33998408995E+01  0.94927627726E+01  0.51100000000E-03 0. -1.
        -11    1    3    3    0    0 -0.13069297655E+02  0.63403738465E+01  0.37491973378E+02  0.40207647901E+02  0.51100000000E-03 0.  1.
         12    1    3    3    0    0  0.16580014856E+02 -0.15249315824E+02 -0.33425358379E+02  0.40307482041E+02  0.00000000000E+00 0. -1.
</event>
<event>
 7    1  0.2090370E-015  0.9000776E+02  0.7816164E-02  0.1186339E+00
        -11   -1    0    0    0    0  0.00000000000E+00  0.00000000000E+00  0.45593999997E+02  0.45594000000E+02  0.51100000000E-03 0. -1.
         11   -1    0    0    0    0 -0.00000000000E+00 -0.00000000000E+00 -0.45593999997E+02  0.45594000000E+02  0.51100000000E-03 0.  1.
    9900012    2    1    2    0    0 -0.28324611742E+00  0.21258051680E+00 -0.11258493720E+01  0.90007764580E+02  0.90000026272E+02 0.  0.
         12    1    1    2    0    0  0.28324611742E+00 -0.21258051680E+00  0.11258493720E+01  0.11802354204E+01  0.00000000000E+00 0. -1.
         11    1    3    3    0    0  0.93690840012E+01  0.24086892616E+01  0.23926768819E+01  0.99652607544E+01  0.51100000000E-03 0. -1.
        -11    1    3    3    0    0  0.23652777401E+02 -0.13588242950E+02 -0.26479150522E+02  0.38016307526E+02  0.51100000000E-03 0.  1.
         12    1    3    3    0    0 -0.33305107519E+02  0.11392134205E+02  0.22960624269E+02  0.42026196300E+02  0.00000000000E+00 0. -1.
</event>
<event>
 7    1  0.2090370E-015  0.9000765E+02  0.7816164E-02  0.1186339E+00
        -11   -1    0    0    0    0  0.00000000000E+00  0.00000000000E+00  0.45593999997E+02  0.45594000000E+02  0.51100000000E-03 0.  1.
         11   -1    0    0    0    0 -0.00000000000E+00 -0.00000000000E+00 -0.45593999997E+02  0.45594000000E+02  0.51100000000E-03 0. -1.
    9900012    2    1    2    0    0 -0.10147961695E+01 -0.48507352530E+00  0.35794922960E+00  0.90007646137E+02  0.89999906266E+02 0.  0.
         12    1    1    2    0    0  0.10147961695E+01  0.48507352530E+00 -0.35794922960E+00  0.11803538628E+01  0.00000000000E+00 0. -1.
         11    1    3    3    0    0  0.52913378684E+01  0.17113719728E+02 -0.32540851731E+02  0.37145453167E+02  0.51100000000E-03 0.  1.
        -11    1    3    3    0    0 -0.84646408632E+01 -0.14395775500E+02 -0.28189564474E+01  0.16936204206E+02  0.51100000000E-03 0. -1.
        -12    1    3    3    0    0  0.21585068253E+01 -0.32030177534E+01  0.35717757408E+02  0.35925988764E+02  0.00000000000E+00 0.  1.
</event>
<event>
 7    1  0.2090370E-015  0.9000782E+02  0.7816164E-02  0.1186339E+00
        -11   -1    0    0    0    0  0.00000000000E+00  0.00000000000E+00  0.45593999997E+02  0.45594000000E+02  0.51100000000E-03 0. -1.
         11   -1    0    0    0    0 -0.00000000000E+00 -0.00000000000E+00 -0.45593999997E+02  0.45594000000E+02  0.51100000000E-03 0.  1.
    9900012    2    1    2    0    0 -0.10217326172E+01 -0.45964084938E+00  0.37096348725E+00  0.90007821556E+02  0.90000084000E+02 0.  0.
         12    1    1    2    0    0  0.10217326172E+01  0.45964084938E+00 -0.37096348725E+00  0.11801784443E+01  0.00000000000E+00 0. -1.
         11    1    3    3    0    0 -0.24105178647E+01  0.12407535724E+01  0.83748631796E+01  0.88027495330E+01  0.51100000000E-03 0. -1.
        -11    1    3    3    0    0  0.20224757805E+02  0.31433328078E+02 -0.18453794901E+02  0.41684979175E+02  0.51100000000E-03 0.  1.
         12    1    3    3    0    0 -0.18835972557E+02 -0.33133722500E+02  0.10449895208E+02  0.39520092848E+02  0.00000000000E+00 0. -1.
</event>
<event>
 7    1  0.2090370E-015  0.9000775E+02  0.7816164E-02  0.1186339E+00
        -11   -1    0    0    0    0  0.00000000000E+00  0.00000000000E+00  0.45593999997E+02  0.45594000000E+02  0.51100000000E-03 0. -1.
         11   -1    0    0    0    0 -0.00000000000E+00 -0.00000000000E+00 -0.45593999997E+02  0.45594000000E+02  0.51100000000E-03 0.  1.
    9900012    2    1    2    0    0  0.54656592169E-01 -0.41947237318E+00 -0.11018340963E+01  0.90007753081E+02  0.90000014621E+02 0.  0.
         12    1    1    2    0    0 -0.54656592169E-01  0.41947237318E+00  0.11018340963E+01  0.11802469194E+01  0.00000000000E+00 0. -1.
         11    1    3    3    0    0  0.53392552368E+01  0.61127501401E+01  0.70798934958E+01  0.10770248508E+02  0.51100000000E-03 0. -1.
        -11    1    3    3    0    0  0.18505548018E+02  0.12747205975E+02 -0.32929457369E+02  0.39865972088E+02  0.51100000000E-03 0.  1.
         12    1    3    3    0    0 -0.23790146663E+02 -0.19279428488E+02  0.24747729777E+02  0.39371532485E+02  0.00000000000E+00 0. -1.
</event>
<event>
 7    1  0.2090370E-015  0.9000771E+02  0.7816164E-02  0.1186339E+00
        -11   -1    0    0    0    0  0.00000000000E+00  0.00000000000E+00  0.45593999997E+02  0.45594000000E+02  0.51100000000E-03 0.  1.
         11   -1    0    0    0    0 -0.00000000000E+00 -0.00000000000E+00 -0.45593999997E+02  0.45594000000E+02  0.51100000000E-03 0. -1.
    9900012    2    1    2    0    0 -0.34501133243E+00  0.60738475212E+00  0.95138929488E+00  0.90007707389E+02  0.89999968327E+02 0.  0.
         12    1    1    2    0    0  0.34501133243E+00 -0.60738475212E+00 -0.95138929488E+00  0.11802926108E+01  0.00000000000E+00 0. -1.
         11    1    3    3    0    0 -0.27963134921E+01  0.18488852982E+01 -0.82932582200E+01  0.89451594819E+01  0.51100000000E-03 0. -1.
        -11    1    3    3    0    0 -0.29117833964E+02  0.22510129613E+02  0.17420811979E+02  0.40719023567E+02  0.51100000000E-03 0.  1.
         12    1    3    3    0    0  0.31569136124E+02 -0.23751630159E+02 -0.81761644641E+01  0.40343524340E+02  0.00000000000E+00 0. -1.
</event>
<event>
 7    1  0.2090370E-015  0.9000771E+02  0.7816164E-02  0.1186339E+00
        -11   -1    0    0    0    0  0.00000000000E+00  0.00000000000E+00  0.45593999997E+02  0.45594000000E+02  0.51100000000E-03 0.  1.
         11   -1    0    0    0    0 -0.00000000000E+00 -0.00000000000E+00 -0.45593999997E+02  0.45594000000E+02  0.51100000000E-03 0. -1.
    9900012    2    1    2    0    0  0.54257264100E+00  0.68577031706E+00  0.79272626833E+00  0.90007711503E+02  0.89999972495E+02 0.  0.
         12    1    1    2    0    0 -0.54257264100E+00 -0.68577031706E+00 -0.79272626833E+00  0.11802884965E+01  0.00000000000E+00 0. -1.
         11    1    3    3    0    0 -0.67621056488E+01  0.37084400118E+01 -0.47946136431E+01  0.90811299063E+01  0.51100000000E-03 0. -1.
        -11    1    3    3    0    0 -0.18004928692E+02 -0.32949088610E+02 -0.98241101785E+01  0.38811506522E+02  0.51100000000E-03 0.  1.
         12    1    3    3    0    0  0.25309606982E+02  0.29926418915E+02  0.15411450090E+02  0.42115075075E+02  0.00000000000E+00 0. -1.
</event>
<event>
 7    1  0.2090370E-015  0.9000770E+02  0.7816164E-02  0.1186339E+00
        -11   -1    0    0    0    0  0.00000000000E+00  0.00000000000E+00  0.45593999997E+02  0.45594000000E+02  0.51100000000E-03 0. -1.
         11   -1    0    0    0    0 -0.00000000000E+00 -0.00000000000E+00 -0.45593999997E+02  0.45594000000E+02  0.51100000000E-03 0.  1.
    9900012    2    1    2    0    0 -0.57133042831E+00 -0.53623285904E+00 -0.88269744646E+00  0.90007695412E+02  0.89999956192E+02 0.  0.
         12    1    1    2    0    0  0.57133042831E+00  0.53623285904E+00  0.88269744646E+00  0.11803045876E+01  0.00000000000E+00 0. -1.
         11    1    3    3    0    0 -0.45919839633E+01 -0.67177871931E+01  0.64851087740E+01  0.10405364845E+02  0.51100000000E-03 0. -1.
        -11    1    3    3    0    0  0.36395741265E+01  0.26479871690E+01 -0.43280649664E+02  0.43514054873E+02  0.51100000000E-03 0.  1.
         12    1    3    3    0    0  0.38107940850E+00  0.35335671650E+01  0.35912843443E+02  0.36088275695E+02  0.00000000000E+00 0. -1.
</event>
<event>
 7    1  0.2090370E-015  0.9000785E+02  0.7816164E-02  0.1186339E+00
        -11   -1    0    0    0    0  0.00000000000E+00  0.00000000000E+00  0.45593999997E+02  0.45594000000E+02  0.51100000000E-03 0.  1.
         11   -1    0    0    0    0 -0.00000000000E+00 -0.00000000000E+00 -0.45593999997E+02  0.45594000000E+02  0.51100000000E-03 0. -1.
    9900012    2    1    2    0    0 -0.23924918202E+00 -0.31576992667E+00  0.11116708278E+01  0.90007846261E+02  0.90000109032E+02 0.  0.
         12    1    1    2    0    0  0.23924918202E+00  0.31576992667E+00 -0.11116708278E+01  0.11801537387E+01  0.00000000000E+00 0. -1.
         11    1    3    3    0    0 -0.11678573300E+02  0.63843449077E+00 -0.38175084883E+02  0.39926604902E+02  0.51100000000E-03 0. -1.
        -11    1    3    3    0    0 -0.81619611294E+01 -0.50663496075E+01  0.62920773105E+01  0.11483716514E+02  0.51100000000E-03 0.  1.
        -12    1    3    3    0    0  0.19601285248E+02  0.41121451900E+01  0.32994678400E+02  0.38597524845E+02  0.00000000000E+00 0.  1.
</event>
<event>
 7    1  0.2090370E-015  0.9000773E+02  0.7816164E-02  0.1186339E+00
        -11   -1    0    0    0    0  0.00000000000E+00  0.00000000000E+00  0.45593999997E+02  0.45594000000E+02  0.51100000000E-03 0.  1.
         11   -1    0    0    0    0 -0.00000000000E+00 -0.00000000000E+00 -0.45593999997E+02  0.45594000000E+02  0.51100000000E-03 0. -1.
    9900012    2    1    2    0    0 -0.56348170119E+00  0.34632729996E+00 -0.97753645768E+00  0.90007732339E+02  0.89999993606E+02 0.  0.
         12    1    1    2    0    0  0.56348170119E+00 -0.34632729996E+00  0.97753645768E+00  0.11802676613E+01  0.00000000000E+00 0. -1.
         11    1    3    3    0    0 -0.51952774920E+01  0.62253589341E+01  0.51145893342E+01  0.95867109269E+01  0.51100000000E-03 0. -1.
        -11    1    3    3    0    0 -0.37655514235E+02 -0.16896933043E+01 -0.25652449927E+01  0.37780594197E+02  0.51100000000E-03 0.  1.
         12    1    3    3    0    0  0.42287310026E+02 -0.41893383299E+01 -0.35268807992E+01  0.42640427214E+02  0.00000000000E+00 0. -1.
</event>
<event>
 7    1  0.2090370E-015  0.9000776E+02  0.7816164E-02  0.1186339E+00
        -11   -1    0    0    0    0  0.00000000000E+00  0.00000000000E+00  0.45593999997E+02  0.45594000000E+02  0.51100000000E-03 0.  1.
         11   -1    0    0    0    0 -0.00000000000E+00 -0.00000000000E+00 -0.45593999997E+02  0.45594000000E+02  0.51100000000E-03 0. -1.
    9900012    2    1    2    0    0 -0.16262077860E+00 -0.83844735223E+00  0.81456811258E+00  0.90007762443E+02  0.90000024108E+02 0.  0.
         12    1    1    2    0    0  0.16262077860E+00  0.83844735223E+00 -0.81456811258E+00  0.11802375567E+01  0.00000000000E+00 0. -1.
         11    1    3    3    0    0  0.12828147857E+01 -0.72177628245E+01 -0.34712581418E+00  0.73390878559E+01  0.51100000000E-03 0. -1.
        -11    1    3    3    0    0 -0.25368766043E+02 -0.21533852687E+02  0.22493872445E+02  0.40165350738E+02  0.51100000000E-03 0.  1.
         12    1    3    3    0    0  0.23923330479E+02  0.27913168160E+02 -0.21332178518E+02  0.42503323849E+02  0.00000000000E+00 0. -1.
</event>
<event>
 7    1  0.2090370E-015  0.9000775E+02  0.7816164E-02  0.1186339E+00
        -11   -1    0    0    0    0  0.00000000000E+00  0.00000000000E+00  0.45593999997E+02  0.45594000000E+02  0.51100000000E-03 0.  1.
         11   -1    0    0    0    0 -0.00000000000E+00 -0.00000000000E+00 -0.45593999997E+02  0.45594000000E+02  0.51100000000E-03 0. -1.
    9900012    2    1    2    0    0  0.23340775977E+00 -0.93618759740E+00 -0.67974871246E+00  0.90007752267E+02  0.90000013797E+02 0.  0.
         12    1    1    2    0    0 -0.23340775977E+00  0.93618759740E+00  0.67974871246E+00  0.11802477333E+01  0.00000000000E+00 0. -1.
         11    1    3    3    0    0  0.65099516755E+01  0.86230033895E+00 -0.38933977872E+01  0.76342373085E+01  0.51100000000E-03 0. -1.
        -11    1    3    3    0    0  0.36556422695E+02 -0.57858995629E+01  0.11096406358E+02  0.38639085242E+02  0.51100000000E-03 0.  1.
         12    1    3    3    0    0 -0.42832966611E+02  0.39874116265E+01 -0.78827572832E+01  0.43734429716E+02  0.00000000000E+00 0. -1.
</event>
<event>
 7    1  0.2090370E-015  0.9000777E+02  0.7816164E-02  0.1186339E+00
        -11   -1    0    0    0    0  0.00000000000E+00  0.00000000000E+00  0.45593999997E+02  0.45594000000E+02  0.51100000000E-03 0.  1.
         11   -1    0    0    0    0 -0.00000000000E+00 -0.00000000000E+00 -0.45593999997E+02  0.45594000000E+02  0.51100000000E-03 0. -1.
    9900012    2    1    2    0    0  0.27877308587E+00  0.11236604588E+01  0.22939601767E+00  0.90007767060E+02  0.90000028785E+02 0.  0.
         12    1    1    2    0    0 -0.27877308587E+00 -0.11236604588E+01 -0.22939601767E+00  0.11802329402E+01  0.00000000000E+00 0. -1.
         11    1    3    3    0    0 -0.64266467381E+01  0.25067507971E+01 -0.54503513415E+01  0.87915822161E+01  0.51100000000E-03 0. -1.
        -11    1    3    3    0    0 -0.12925046281E+02  0.35843378248E+02 -0.30875944430E+01  0.38227448585E+02  0.51100000000E-03 0.  1.
         12    1    3    3    0    0  0.19630466104E+02 -0.37226468586E+02  0.87673418022E+01  0.42988736259E+02  0.00000000000E+00 0. -1.
</event>
<event>
 7    1  0.2090370E-015  0.9000773E+02  0.7816164E-02  0.1186339E+00
        -11   -1    0    0    0    0  0.00000000000E+00  0.00000000000E+00  0.45593999997E+02  0.45594000000E+02  0.51100000000E-03 0.  1.
         11   -1    0    0    0    0 -0.00000000000E+00 -0.00000000000E+00 -0.45593999997E+02  0.45594000000E+02  0.51100000000E-03 0. -1.
    9900012    2    1    2    0    0  0.30692272928E+00 -0.19476345321E+00  0.11228995856E+01  0.90007729758E+02  0.89999990991E+02 0.  0.
         12    1    1    2    0    0 -0.30692272928E+00  0.19476345321E+00 -0.11228995856E+01  0.11802702419E+01  0.00000000000E+00 0. -1.
         11    1    3    3    0    0  0.38371303975E+01  0.85034782124E+01  0.12025312227E+01  0.94063166542E+01  0.51100000000E-03 0. -1.
        -11    1    3    3    0    0 -0.15886390393E+02  0.33222981840E+02 -0.17241901002E+01  0.36866200697E+02  0.51100000000E-03 0.  1.
         12    1    3    3    0    0  0.12356182725E+02 -0.41921223506E+02  0.16445584631E+01  0.43735212407E+02  0.00000000000E+00 0. -1.
</event>
<event>
 7    1  0.2090370E-015  0.9000771E+02  0.7816164E-02  0.1186339E+00
        -11   -1    0    0    0    0  0.00000000000E+00  0.00000000000E+00  0.45593999997E+02  0.45594000000E+02  0.51100000000E-03 0.  1.
         11   -1    0    0    0    0 -0.00000000000E+00 -0.00000000000E+00 -0.45593999997E+02  0.45594000000E+02  0.51100000000E-03 0. -1.
    9900012    2    1    2    0    0  0.13707289083E+00 -0.22996143558E+00  0.11495249497E+01  0.90007712387E+02  0.89999973391E+02 0.  0.
         12    1    1    2    0    0 -0.13707289083E+00  0.22996143558E+00 -0.11495249497E+01  0.11802876129E+01  0.00000000000E+00 0. -1.
         11    1    3    3    0    0 -0.47780444341E+00  0.29051217848E+01 -0.78417901286E+01  0.83762582549E+01  0.51100000000E-03 0. -1.
        -11    1    3    3    0    0  0.36553125464E+02 -0.26635471261E+01  0.22761051288E+02  0.43142680961E+02  0.51100000000E-03 0.  1.
         12    1    3    3    0    0 -0.35938248130E+02 -0.47153609428E+00 -0.13769736210E+02  0.38488773171E+02  0.00000000000E+00 0. -1.
</event>
<event>
 7    1  0.2090370E-015  0.9000789E+02  0.7816164E-02  0.1186339E+00
        -11   -1    0    0    0    0  0.00000000000E+00  0.00000000000E+00  0.45593999997E+02  0.45594000000E+02  0.51100000000E-03 0. -1.
         11   -1    0    0    0    0 -0.00000000000E+00 -0.00000000000E+00 -0.45593999997E+02  0.45594000000E+02  0.51100000000E-03 0.  1.
    9900012    2    1    2    0    0 -0.29727428501E+00 -0.11207109322E+00 -0.11365454697E+01  0.90007886643E+02  0.90000149947E+02 0.  0.
         12    1    1    2    0    0  0.29727428501E+00  0.11207109322E+00  0.11365454697E+01  0.11801133569E+01  0.00000000000E+00 0. -1.
         11    1    3    3    0    0 -0.95293466608E+01 -0.10633952437E+02  0.32195201902E+02  0.35219602752E+02  0.51100000000E-03 0. -1.
        -11    1    3    3    0    0 -0.25766238115E+01  0.58177628181E+01  0.87555522376E+01  0.10823356675E+02  0.51100000000E-03 0.  1.
        -12    1    3    3    0    0  0.11808696187E+02  0.47041185253E+01 -0.42087299609E+02  0.43964927216E+02  0.00000000000E+00 0.  1.
</event>
<event>
 7    1  0.2090370E-015  0.9000774E+02  0.7816164E-02  0.1186339E+00
        -11   -1    0    0    0    0  0.00000000000E+00  0.00000000000E+00  0.45593999997E+02  0.45594000000E+02  0.51100000000E-03 0.  1.
         11   -1    0    0    0    0 -0.00000000000E+00 -0.00000000000E+00 -0.45593999997E+02  0.45594000000E+02  0.51100000000E-03 0. -1.
    9900012    2    1    2    0    0 -0.10620683973E+01  0.96243940242E-01  0.50572727638E+00  0.90007740599E+02  0.90000001974E+02 0.  0.
         12    1    1    2    0    0  0.10620683973E+01 -0.96243940242E-01 -0.50572727638E+00  0.11802594014E+01  0.00000000000E+00 0. -1.
         11    1    3    3    0    0 -0.67075053268E+00 -0.15006092540E+01  0.10266871474E+02  0.10397614367E+02  0.51100000000E-03 0. -1.
        -11    1    3    3    0    0 -0.35585672884E+01  0.38289678000E+02  0.71000288607E+01  0.39104644898E+02  0.51100000000E-03 0.  1.
         12    1    3    3    0    0  0.31672494238E+01 -0.36692824806E+02 -0.16861173058E+02  0.40505481333E+02  0.00000000000E+00 0. -1.
</event>
<event>
 7    1  0.2090370E-015  0.9000784E+02  0.7816164E-02  0.1186339E+00
        -11   -1    0    0    0    0  0.00000000000E+00  0.00000000000E+00  0.45593999997E+02  0.45594000000E+02  0.51100000000E-03 0.  1.
         11   -1    0    0    0    0 -0.00000000000E+00 -0.00000000000E+00 -0.45593999997E+02  0.45594000000E+02  0.51100000000E-03 0. -1.
    9900012    2    1    2    0    0  0.64157530401E-01 -0.11630648018E+01  0.18956206584E+00  0.90007843358E+02  0.90000106091E+02 0.  0.
         12    1    1    2    0    0 -0.64157530401E-01  0.11630648018E+01 -0.18956206584E+00  0.11801566416E+01  0.00000000000E+00 0. -1.
         11    1    3    3    0    0  0.40383125719E+01 -0.19793640940E+01  0.82294241704E+01  0.93781273761E+01  0.51100000000E-03 0. -1.
        -11    1    3    3    0    0  0.43165856042E+01  0.14624930156E+02  0.33103170592E+02  0.36446418162E+02  0.51100000000E-03 0.  1.
         12    1    3    3    0    0 -0.82907406457E+01 -0.13808630864E+02 -0.41143032697E+02  0.44183297820E+02  0.00000000000E+00 0. -1.
</event>
<event>
 7    1  0.2090370E-015  0.9000771E+02  0.7816164E-02  0.1186339E+00
        -11   -1    0    0    0    0  0.00000000000E+00  0.00000000000E+00  0.45593999997E+02  0.45594000000E+02  0.51100000000E-03 0.  1.
         11   -1    0    0    0    0 -0.00000000000E+00 -0.00000000000E+00 -0.45593999997E+02  0.45594000000E+02  0.51100000000E-03 0. -1.
    9900012    2    1    2    0    0 -0.21453966614E+00  0.75260679688E+00  0.88354342281E+00  0.90007706291E+02  0.89999967214E+02 0.  0.
         12    1    1    2    0    0  0.21453966614E+00 -0.75260679688E+00 -0.88354342281E+00  0.11802937088E+01  0.00000000000E+00 0. -1.
         11    1    3    3    0    0  0.33141754575E+01  0.16344492221E+02  0.32735332090E+00  0.16680328096E+02  0.51100000000E-03 0. -1.
        -11    1    3    3    0    0  0.20503668023E+02  0.20675965777E+02 -0.47281633776E+01  0.29500025295E+02  0.51100000000E-03 0.  1.
         12    1    3    3    0    0 -0.24032383147E+02 -0.36267851202E+02  0.52843534795E+01  0.43827352900E+02  0.00000000000E+00 0. -1.
</event>
<event>
 7    1  0.2090370E-015  0.9000774E+02  0.7816164E-02  0.1186339E+00
        -11   -1    0    0    0    0  0.00000000000E+00  0.00000000000E+00  0.45593999997E+02  0.45594000000E+02  0.51100000000E-03 0.  1.
         11   -1    0    0    0    0 -0.00000000000E+00 -0.00000000000E+00 -0.45593999997E+02  0.45594000000E+02  0.51100000000E-03 0. -1.
    9900012    2    1    2    0    0  0.60553534280E+00 -0.10113328665E+01  0.59503487903E-01  0.90007742450E+02  0.90000003851E+02 0.  0.
         12    1    1    2    0    0 -0.60553534280E+00  0.10113328665E+01 -0.59503487903E-01  0.11802575495E+01  0.00000000000E+00 0. -1.
         11    1    3    3    0    0 -0.43119534169E+01 -0.30121304532E+02  0.21221051237E+02  0.37097425043E+02  0.51100000000E-03 0. -1.
        -11    1    3    3    0    0 -0.13636585787E+02  0.49608048403E+01  0.20018682387E+01  0.14648328686E+02  0.51100000000E-03 0.  1.
        -12    1    3    3    0    0  0.18554074547E+02  0.24149166825E+02 -0.23163415988E+02  0.38261988721E+02  0.00000000000E+00 0.  1.
</event>
<event>
 7    1  0.2090370E-015  0.9000778E+02  0.7816164E-02  0.1186339E+00
        -11   -1    0    0    0    0  0.00000000000E+00  0.00000000000E+00  0.45593999997E+02  0.45594000000E+02  0.51100000000E-03 0. -1.
         11   -1    0    0    0    0 -0.00000000000E+00 -0.00000000000E+00 -0.45593999997E+02  0.45594000000E+02  0.51100000000E-03 0.  1.
    9900012    2    1    2    0    0  0.50636654137E+00 -0.83180560045E+00 -0.66678538028E+00  0.90007783759E+02  0.90000045705E+02 0.  0.
         12    1    1    2    0    0 -0.50636654137E+00  0.83180560045E+00  0.66678538028E+00  0.11802162406E+01  0.00000000000E+00 0. -1.
         11    1    3    3    0    0 -0.95194209562E+01 -0.15457324215E+02  0.32157071132E+02  0.36927299811E+02  0.51100000000E-03 0. -1.
        -11    1    3    3    0    0  0.74276924695E+01  0.38913054715E+01  0.75131995748E+01  0.11258820622E+02  0.51100000000E-03 0.  1.
        -12    1    3    3    0    0  0.25980950281E+01  0.10734213143E+02 -0.40337056088E+02  0.41821663326E+02  0.00000000000E+00 0.  1.
</event>
<event>
 7    1  0.2090370E-015  0.9000770E+02  0.7816164E-02  0.1186339E+00
        -11   -1    0    0    0    0  0.00000000000E+00  0.00000000000E+00  0.45593999997E+02  0.45594000000E+02  0.51100000000E-03 0.  1.
         11   -1    0    0    0    0 -0.00000000000E+00 -0.00000000000E+00 -0.45593999997E+02  0.45594000000E+02  0.51100000000E-03 0. -1.
    9900012    2    1    2    0    0  0.29015763044E+00 -0.82698176509E+00  0.79057744802E+00  0.90007702160E+02  0.89999963028E+02 0.  0.
         12    1    1    2    0    0 -0.29015763044E+00  0.82698176509E+00 -0.79057744802E+00  0.11802978402E+01  0.00000000000E+00 0. -1.
         11    1    3    3    0    0  0.82522198655E+00 -0.68320677292E+01  0.50767986477E+01  0.85517264663E+01  0.51100000000E-03 0. -1.
        -11    1    3    3    0    0  0.22572334469E+02  0.16802178396E+02  0.28410908012E+02  0.39987537766E+02  0.51100000000E-03 0.  1.
         12    1    3    3    0    0 -0.23107398825E+02 -0.10797092432E+02 -0.32697129212E+02  0.41468437928E+02  0.00000000000E+00 0. -1.
</event>
<event>
 7    1  0.2090370E-015  0.9000779E+02  0.7816164E-02  0.1186339E+00
        -11   -1    0    0    0    0  0.00000000000E+00  0.00000000000E+00  0.45593999997E+02  0.45594000000E+02  0.51100000000E-03 0. -1.
         11   -1    0    0    0    0 -0.00000000000E+00 -0.00000000000E+00 -0.45593999997E+02  0.45594000000E+02  0.51100000000E-03 0.  1.
    9900012    2    1    2    0    0 -0.99778981782E+00  0.63010765533E+00  0.16725482010E-01  0.90007788189E+02  0.90000050193E+02 0.  0.
         12    1    1    2    0    0  0.99778981782E+00 -0.63010765533E+00 -0.16725482010E-01  0.11802118113E+01  0.00000000000E+00 0. -1.
         11    1    3    3    0    0  0.61894051511E+01 -0.66924748477E+01  0.17162762671E+01  0.92759668066E+01  0.51100000000E-03 0. -1.
        -11    1    3    3    0    0  0.29047610155E+02 -0.18239889219E+02  0.82664559466E+01  0.35281602977E+02  0.51100000000E-03 0.  1.
         12    1    3    3    0    0 -0.36234805124E+02  0.25562471722E+02 -0.99660067316E+01  0.45450218405E+02  0.00000000000E+00 0. -1.
</event>
<event>
 7    1  0.2090370E-015  0.9000772E+02  0.7816164E-02  0.1186339E+00
        -11   -1    0    0    0    0  0.00000000000E+00  0.00000000000E+00  0.45593999997E+02  0.45594000000E+02  0.51100000000E-03 0. -1.
         11   -1    0    0    0    0 -0.00000000000E+00 -0.00000000000E+00 -0.45593999997E+02  0.45594000000E+02  0.51100000000E-03 0.  1.
    9900012    2    1    2    0    0 -0.62484324715E+00 -0.65943147983E-01 -0.99914485580E+00  0.90007716972E+02  0.89999978036E+02 0.  0.
         12    1    1    2    0    0  0.62484324715E+00  0.65943147983E-01  0.99914485580E+00  0.11802830276E+01  0.00000000000E+00 0. -1.
         11    1    3    3    0    0  0.47331993611E+01  0.37490062544E+01 -0.74712705331E+01  0.96061494745E+01  0.51100000000E-03 0. -1.
        -11    1    3    3    0    0 -0.19143169712E+02 -0.21091862381E+02 -0.27682185975E+02  0.39719403645E+02  0.51100000000E-03 0.  1.
         12    1    3    3    0    0  0.13785127104E+02  0.17276912978E+02  0.34154311652E+02  0.40682163853E+02  0.00000000000E+00 0. -1.
</event>
<event>
 7    1  0.2090370E-015  0.9000777E+02  0.7816164E-02  0.1186339E+00
        -11   -1    0    0    0    0  0.00000000000E+00  0.00000000000E+00  0.45593999997E+02  0.45594000000E+02  0.51100000000E-03 0.  1.
         11   -1    0    0    0    0 -0.00000000000E+00 -0.00000000000E+00 -0.45593999997E+02  0.45594000000E+02  0.51100000000E-03 0. -1.
    9900012    2    1    2    0    0  0.38257731484E+00  0.87289006495E+00  0.69615607895E+00  0.90007773008E+02  0.90000034811E+02 0.  0.
         12    1    1    2    0    0 -0.38257731484E+00 -0.87289006495E+00 -0.69615607895E+00  0.11802269924E+01  0.00000000000E+00 0. -1.
         11    1    3    3    0    0 -0.36737922061E+01  0.58907533205E+01  0.66092620893E+01  0.95854091974E+01  0.51100000000E-03 0. -1.
        -11    1    3    3    0    0  0.23928941840E+02 -0.33913260999E+02  0.87384491593E+01  0.42415374844E+02  0.51100000000E-03 0.  1.
         12    1    3    3    0    0 -0.19872572319E+02  0.28895397744E+02 -0.14651555170E+02  0.38006988966E+02  0.00000000000E+00 0. -1.
</event>
<event>
 7    1  0.2090370E-015  0.9000772E+02  0.7816164E-02  0.1186339E+00
        -11   -1    0    0    0    0  0.00000000000E+00  0.00000000000E+00  0.45593999997E+02  0.45594000000E+02  0.51100000000E-03 0.  1.
         11   -1    0    0    0    0 -0.00000000000E+00 -0.00000000000E+00 -0.45593999997E+02  0.45594000000E+02  0.51100000000E-03 0. -1.
    9900012    2    1    2    0    0  0.87321956284E+00  0.34517932970E+00  0.71512692617E+00  0.90007717112E+02  0.89999978178E+02 0.  0.
         12    1    1    2    0    0 -0.87321956284E+00 -0.34517932970E+00 -0.71512692617E+00  0.11802828877E+01  0.00000000000E+00 0. -1.
         11    1    3    3    0    0  0.19226308364E+01 -0.88063893693E+01 -0.14898773443E+01  0.91361226907E+01  0.51100000000E-03 0. -1.
        -11    1    3    3    0    0 -0.23755938854E+02 -0.27910871619E+02  0.63929158849E+01  0.37205251768E+02  0.51100000000E-03 0.  1.
         12    1    3    3    0    0  0.22706527580E+02  0.37062440318E+02 -0.41879116144E+01  0.43666342654E+02  0.00000000000E+00 0. -1.
</event>
<event>
 7    1  0.2090370E-015  0.9000714E+02  0.7816164E-02  0.1186340E+00
        -11   -1    0    0    0    0  0.00000000000E+00  0.00000000000E+00  0.45593999997E+02  0.45594000000E+02  0.51100000000E-03 0. -1.
         11   -1    0    0    0    0 -0.00000000000E+00 -0.00000000000E+00 -0.45593999997E+02  0.45594000000E+02  0.51100000000E-03 0.  1.
    9900012    2    1    2    0    0 -0.40881634568E+00  0.77465670495E+00 -0.79196602324E+00  0.90007138451E+02  0.89999391877E+02 0.  0.
         12    1    1    2    0    0  0.40881634568E+00 -0.77465670495E+00  0.79196602324E+00  0.11808615486E+01  0.00000000000E+00 0. -1.
         11    1    3    3    0    0 -0.24356919137E+01 -0.39046158393E+02  0.17017613574E+02  0.42663031449E+02  0.51100000000E-03 0. -1.
        -11    1    3    3    0    0 -0.45831081453E+01  0.98229177006E+01  0.16749199989E+01  0.10968133373E+02  0.51100000000E-03 0.  1.
        -12    1    3    3    0    0  0.66099837133E+01  0.29997897398E+02 -0.19484499596E+02  0.36375973630E+02  0.00000000000E+00 0.  1.
</event>
<event>
 7    1  0.2090370E-015  0.9000769E+02  0.7816164E-02  0.1186339E+00
        -11   -1    0    0    0    0  0.00000000000E+00  0.00000000000E+00  0.45593999997E+02  0.45594000000E+02  0.51100000000E-03 0. -1.
         11   -1    0    0    0    0 -0.00000000000E+00 -0.00000000000E+00 -0.45593999997E+02  0.45594000000E+02  0.51100000000E-03 0.  1.
    9900012    2    1    2    0    0  0.51937667402E+00  0.10459362102E+01 -0.17147467993E+00  0.90007687223E+02  0.89999947895E+02 0.  0.
         12    1    1    2    0    0 -0.51937667402E+00 -0.10459362102E+01  0.17147467993E+00  0.11803127768E+01  0.00000000000E+00 0. -1.
         11    1    3    3    0    0 -0.17391789374E+02 -0.10162679324E+00  0.33911146970E+02  0.38111029306E+02  0.51100000000E-03 0. -1.
        -11    1    3    3    0    0 -0.80928130181E+01  0.73768277966E+01 -0.40256673201E+01  0.11666927981E+02  0.51100000000E-03 0.  1.
        -12    1    3    3    0    0  0.26003979066E+02 -0.62292647932E+01 -0.30056954330E+02  0.40229729936E+02  0.00000000000E+00 0.  1.
</event>
<event>
 7    1  0.2090370E-015  0.9000769E+02  0.7816164E-02  0.1186339E+00
        -11   -1    0    0    0    0  0.00000000000E+00  0.00000000000E+00  0.45593999997E+02  0.45594000000E+02  0.51100000000E-03 0. -1.
         11   -1    0    0    0    0 -0.00000000000E+00 -0.00000000000E+00 -0.45593999997E+02  0.45594000000E+02  0.51100000000E-03 0.  1.
    9900012    2    1    2    0    0 -0.22404130389E+00 -0.11538800067E+01 -0.10717665496E+00  0.90007694781E+02  0.89999955552E+02 0.  0.
         12    1    1    2    0    0  0.22404130389E+00  0.11538800067E+01  0.10717665496E+00  0.11803052194E+01  0.00000000000E+00 0. -1.
         11    1    3    3    0    0  0.16497175007E+02 -0.35435137691E+02  0.81064138034E+01  0.39918914207E+02  0.51100000000E-03 0. -1.
        -11    1    3    3    0    0  0.46847241841E+01  0.78763121838E+01  0.82402869045E+01  0.12324173921E+02  0.51100000000E-03 0.  1.
        -12    1    3    3    0    0 -0.21405940495E+02  0.26404945501E+02 -0.16453877363E+02  0.37764606653E+02  0.00000000000E+00 0.  1.
</event>
<event>
 7    1  0.2090370E-015  0.9000742E+02  0.7816164E-02  0.1186340E+00
        -11   -1    0    0    0    0  0.00000000000E+00  0.00000000000E+00  0.45593999997E+02  0.45594000000E+02  0.51100000000E-03 0.  1.
         11   -1    0    0    0    0 -0.00000000000E+00 -0.00000000000E+00 -0.45593999997E+02  0.45594000000E+02  0.51100000000E-03 0. -1.
    9900012    2    1    2    0    0  0.35971988863E+00 -0.47685261741E+00  0.10183189428E+01  0.90007423748E+02  0.89999680941E+02 0.  0.
         12    1    1    2    0    0 -0.35971988863E+00  0.47685261741E+00 -0.10183189428E+01  0.11805762518E+01  0.00000000000E+00 0. -1.
         11    1    3    3    0    0  0.29137311998E+01 -0.92662857878E+01 -0.11232288361E+01  0.97783191340E+01  0.51100000000E-03 0. -1.
        -11    1    3    3    0    0 -0.13511696862E+02 -0.96805570963E+01  0.36274903893E+02  0.39901726660E+02  0.51100000000E-03 0.  1.
         12    1    3    3    0    0  0.10957685550E+02  0.18469990267E+02 -0.34133356114E+02  0.40327377954E+02  0.00000000000E+00 0. -1.
</event>
<event>
 7    1  0.2237073E-015  0.9000751E+02  0.7816164E-02  0.1186340E+00
        -11   -1    0    0    0    0  0.00000000000E+00  0.00000000000E+00  0.45593999997E+02  0.45594000000E+02  0.51100000000E-03 0. -1.
         11   -1    0    0    0    0 -0.00000000000E+00 -0.00000000000E+00 -0.45593999997E+02  0.45594000000E+02  0.51100000000E-03 0.  1.
    9900012    2    1    2    0    0 -0.50664189342E+00 -0.81499441531E+00  0.68750045035E+00  0.90007509096E+02  0.89999767416E+02 0.  0.
         12    1    1    2    0    0  0.50664189342E+00  0.81499441531E+00 -0.68750045035E+00  0.11804909040E+01  0.00000000000E+00 0. -1.
         11    1    3    3    0    0 -0.12492358943E+02 -0.31687370997E+02 -0.19048646659E+02  0.39025625587E+02  0.51100000000E-03 0. -1.
        -11    1    3    3    0    0 -0.97759229881E+01  0.18928153929E+01  0.54219979852E+00  0.99722315087E+01  0.51100000000E-03 0.  1.
        -12    1    3    3    0    0  0.21761640038E+02  0.28979561189E+02  0.19193947311E+02  0.41009652000E+02  0.00000000000E+00 0.  1.
</event>
<event>
 7    1  0.2090370E-015  0.9000778E+02  0.7816164E-02  0.1186339E+00
        -11   -1    0    0    0    0  0.00000000000E+00  0.00000000000E+00  0.45593999997E+02  0.45594000000E+02  0.51100000000E-03 0.  1.
         11   -1    0    0    0    0 -0.00000000000E+00 -0.00000000000E+00 -0.45593999997E+02  0.45594000000E+02  0.51100000000E-03 0. -1.
    9900012    2    1    2    0    0 -0.84247250953E+00 -0.39191911673E+00 -0.72770149130E+00  0.90007783925E+02  0.90000045873E+02 0.  0.
         12    1    1    2    0    0  0.84247250953E+00  0.39191911673E+00  0.72770149130E+00  0.11802160751E+01  0.00000000000E+00 0. -1.
         11    1    3    3    0    0 -0.47972142727E+01  0.70111278389E-01  0.10431673798E+02  0.11482072934E+02  0.51100000000E-03 0. -1.
        -11    1    3    3    0    0 -0.16881052398E+02 -0.25902902144E+02  0.16954694451E+02  0.35261763055E+02  0.51100000000E-03 0.  1.
         12    1    3    3    0    0  0.20835794161E+02  0.25440871749E+02 -0.28114069741E+02  0.43263947936E+02  0.00000000000E+00 0. -1.
</event>
<event>
 7    1  0.2090370E-015  0.9000701E+02  0.7816164E-02  0.1186341E+00
        -11   -1    0    0    0    0  0.00000000000E+00  0.00000000000E+00  0.45593999997E+02  0.45594000000E+02  0.51100000000E-03 0.  1.
         11   -1    0    0    0    0 -0.00000000000E+00 -0.00000000000E+00 -0.45593999997E+02  0.45594000000E+02  0.51100000000E-03 0. -1.
    9900012    2    1    2    0    0 -0.71539936721E+00  0.16157375338E+00  0.92565649442E+00  0.90007007926E+02  0.89999259628E+02 0.  0.
         12    1    1    2    0    0  0.71539936721E+00 -0.16157375338E+00 -0.92565649442E+00  0.11809920737E+01  0.00000000000E+00 0. -1.
         11    1    3    3    0    0  0.38138404110E+01  0.70258899348E+01 -0.30437887854E+01  0.85541310773E+01  0.51100000000E-03 0. -1.
        -11    1    3    3    0    0  0.23952644667E+02  0.19978119739E+02 -0.18559151130E+02  0.36294580116E+02  0.51100000000E-03 0.  1.
         12    1    3    3    0    0 -0.28481884446E+02 -0.26842435920E+02  0.22528596410E+02  0.45158296733E+02  0.00000000000E+00 0. -1.
</event>
<event>
 7    1  0.2090370E-015  0.9000768E+02  0.7816164E-02  0.1186339E+00
        -11   -1    0    0    0    0  0.00000000000E+00  0.00000000000E+00  0.45593999997E+02  0.45594000000E+02  0.51100000000E-03 0. -1.
         11   -1    0    0    0    0 -0.00000000000E+00 -0.00000000000E+00 -0.45593999997E+02  0.45594000000E+02  0.51100000000E-03 0.  1.
    9900012    2    1    2    0    0 -0.11259258525E+01  0.33114194155E+00  0.12563443464E+00  0.90007683084E+02  0.89999943701E+02 0.  0.
         12    1    1    2    0    0  0.11259258525E+01 -0.33114194155E+00 -0.12563443464E+00  0.11803169159E+01  0.00000000000E+00 0. -1.
         11    1    3    3    0    0  0.26710661961E+01 -0.82328960994E+01 -0.28053444431E+01  0.90986334421E+01  0.51100000000E-03 0. -1.
        -11    1    3    3    0    0  0.34152105173E+02  0.65395044622E+01  0.19026977256E+02  0.39637826254E+02  0.51100000000E-03 0.  1.
         12    1    3    3    0    0 -0.37949097222E+02  0.20245335787E+01 -0.16095998379E+02  0.41271223388E+02  0.00000000000E+00 0. -1.
</event>
<event>
 7    1  0.2090370E-015  0.9000774E+02  0.7816164E-02  0.1186339E+00
        -11   -1    0    0    0    0  0.00000000000E+00  0.00000000000E+00  0.45593999997E+02  0.45594000000E+02  0.51100000000E-03 0. -1.
         11   -1    0    0    0    0 -0.00000000000E+00 -0.00000000000E+00 -0.45593999997E+02  0.45594000000E+02  0.51100000000E-03 0.  1.
    9900012    2    1    2    0    0  0.57867484217E+00 -0.10281896253E+01  0.31263813340E-01  0.90007739052E+02  0.90000000408E+02 0.  0.
         12    1    1    2    0    0 -0.57867484217E+00  0.10281896253E+01 -0.31263813340E-01  0.11802609476E+01  0.00000000000E+00 0. -1.
         11    1    3    3    0    0 -0.13114492987E+01  0.14999571461E+01 -0.45100209392E+01  0.49305232822E+01  0.51100000000E-03 0. -1.
        -11    1    3    3    0    0 -0.38980313680E+02  0.73055319195E+00 -0.12110234757E+02  0.40824702677E+02  0.51100000000E-03 0.  1.
         12    1    3    3    0    0  0.40870437821E+02 -0.32586999633E+01  0.16651519509E+02  0.44252513093E+02  0.00000000000E+00 0. -1.
</event>
<event>
 7    1  0.2090370E-015  0.9000783E+02  0.7816164E-02  0.1186339E+00
        -11   -1    0    0    0    0  0.00000000000E+00  0.00000000000E+00  0.45593999997E+02  0.45594000000E+02  0.51100000000E-03 0. -1.
         11   -1    0    0    0    0 -0.00000000000E+00 -0.00000000000E+00 -0.45593999997E+02  0.45594000000E+02  0.51100000000E-03 0.  1.
    9900012    2    1    2    0    0 -0.29096932674E+00 -0.10465279824E+01  0.46143499667E+00  0.90007827884E+02  0.90000090412E+02 0.  0.
         12    1    1    2    0    0  0.29096932674E+00  0.10465279824E+01 -0.46143499667E+00  0.11801721159E+01  0.00000000000E+00 0. -1.
         11    1    3    3    0    0  0.36893561543E+02 -0.80896694218E+00  0.53442066834E+01  0.37287395406E+02  0.51100000000E-03 0. -1.
        -11    1    3    3    0    0  0.49184365310E+01  0.40160449683E+01  0.63059212799E+01  0.89489819838E+01  0.51100000000E-03 0.  1.
        -12    1    3    3    0    0 -0.42102967401E+02 -0.42536060085E+01 -0.11188692967E+02  0.43771450494E+02  0.00000000000E+00 0.  1.
</event>
<event>
 7    1  0.2090370E-015  0.9000783E+02  0.7816164E-02  0.1186339E+00
        -11   -1    0    0    0    0  0.00000000000E+00  0.00000000000E+00  0.45593999997E+02  0.45594000000E+02  0.51100000000E-03 0.  1.
         11   -1    0    0    0    0 -0.00000000000E+00 -0.00000000000E+00 -0.45593999997E+02  0.45594000000E+02  0.51100000000E-03 0. -1.
    9900012    2    1    2    0    0  0.72096505821E+00 -0.55626610296E+00  0.75071338544E+00  0.90007833410E+02  0.90000096011E+02 0.  0.
         12    1    1    2    0    0 -0.72096505821E+00  0.55626610296E+00 -0.75071338544E+00  0.11801665897E+01  0.00000000000E+00 0. -1.
         11    1    3    3    0    0 -0.10050967825E+02  0.24031838039E+02  0.40717198137E+01  0.26365319954E+02  0.51100000000E-03 0.  1.
        -11    1    3    3    0    0  0.97255745610E+01 -0.85006405855E+01  0.26647391155E+02  0.29613023259E+02  0.51100000000E-03 0. -1.
         12    1    3    3    0    0  0.10463583224E+01 -0.16087463557E+02 -0.29968397583E+02  0.34029490198E+02  0.00000000000E+00 0. -1.
</event>
<event>
 7    1  0.2090370E-015  0.9000772E+02  0.7816164E-02  0.1186339E+00
        -11   -1    0    0    0    0  0.00000000000E+00  0.00000000000E+00  0.45593999997E+02  0.45594000000E+02  0.51100000000E-03 0. -1.
         11   -1    0    0    0    0 -0.00000000000E+00 -0.00000000000E+00 -0.45593999997E+02  0.45594000000E+02  0.51100000000E-03 0.  1.
    9900012    2    1    2    0    0 -0.81006885110E-01  0.11648566683E+01  0.17208939280E+00  0.90007717012E+02  0.89999978076E+02 0.  0.
         12    1    1    2    0    0  0.81006885110E-01 -0.11648566683E+01 -0.17208939280E+00  0.11802829882E+01  0.00000000000E+00 0. -1.
         11    1    3    3    0    0  0.41689881460E+02  0.13361670737E+02  0.59606792101E+01  0.44182690705E+02  0.51100000000E-03 0. -1.
        -11    1    3    3    0    0 -0.74863117340E+01  0.22730515388E+01 -0.34142919325E+01  0.85363350648E+01  0.51100000000E-03 0.  1.
        -12    1    3    3    0    0 -0.34284576611E+02 -0.14469865608E+02 -0.23742978848E+01  0.37288691242E+02  0.00000000000E+00 0.  1.
</event>
<event>
 7    1  0.2090370E-015  0.9000782E+02  0.7816164E-02  0.1186339E+00
        -11   -1    0    0    0    0  0.00000000000E+00  0.00000000000E+00  0.45593999997E+02  0.45594000000E+02  0.51100000000E-03 0. -1.
         11   -1    0    0    0    0 -0.00000000000E+00 -0.00000000000E+00 -0.45593999997E+02  0.45594000000E+02  0.51100000000E-03 0.  1.
    9900012    2    1    2    0    0  0.45154396046E+00  0.54398632501E+00 -0.94498898059E+00  0.90007823215E+02  0.90000085682E+02 0.  0.
         12    1    1    2    0    0 -0.45154396046E+00 -0.54398632501E+00  0.94498898059E+00  0.11801767848E+01  0.00000000000E+00 0. -1.
         11    1    3    3    0    0 -0.77415183209E+01  0.11883597229E+02  0.40971944599E+02  0.43357251222E+02  0.51100000000E-03 0. -1.
        -11    1    3    3    0    0 -0.17918479931E+01 -0.78339485892E+01 -0.89580929481E+01  0.12034487910E+02  0.51100000000E-03 0.  1.
        -12    1    3    3    0    0  0.99849102745E+01 -0.35056623145E+01 -0.32958840632E+02  0.34616084083E+02  0.00000000000E+00 0.  1.
</event>
<event>
 7    1  0.2090370E-015  0.9000794E+02  0.7816164E-02  0.1186339E+00
        -11   -1    0    0    0    0  0.00000000000E+00  0.00000000000E+00  0.45593999997E+02  0.45594000000E+02  0.51100000000E-03 0.  1.
         11   -1    0    0    0    0 -0.00000000000E+00 -0.00000000000E+00 -0.45593999997E+02  0.45594000000E+02  0.51100000000E-03 0. -1.
    9900012    2    1    2    0    0 -0.38171558231E+00 -0.81927517494E+00 -0.75869423797E+00  0.90007942567E+02  0.90000206609E+02 0.  0.
         12    1    1    2    0    0  0.38171558231E+00  0.81927517494E+00  0.75869423797E+00  0.11800574328E+01  0.00000000000E+00 0. -1.
         11    1    3    3    0    0 -0.96746693407E+01  0.17504026619E+02 -0.25405883735E+02  0.32333405379E+02  0.51100000000E-03 0. -1.
        -11    1    3    3    0    0  0.73591036757E+01  0.28325747834E+01 -0.12559695716E+02  0.14829896950E+02  0.51100000000E-03 0.  1.
        -12    1    3    3    0    0  0.19338500828E+01 -0.21155876578E+02  0.37206885213E+02  0.42844640239E+02  0.00000000000E+00 0.  1.
</event>
<event>
 7    1  0.2090370E-015  0.9000779E+02  0.7816164E-02  0.1186339E+00
        -11   -1    0    0    0    0  0.00000000000E+00  0.00000000000E+00  0.45593999997E+02  0.45594000000E+02  0.51100000000E-03 0.  1.
         11   -1    0    0    0    0 -0.00000000000E+00 -0.00000000000E+00 -0.45593999997E+02  0.45594000000E+02  0.51100000000E-03 0. -1.
    9900012    2    1    2    0    0 -0.11303556232E+01 -0.11511438984E+00  0.31927863136E+00  0.90007790696E+02  0.90000052733E+02 0.  0.
         12    1    1    2    0    0  0.11303556232E+01  0.11511438984E+00 -0.31927863136E+00  0.11802093043E+01  0.00000000000E+00 0. -1.
         11    1    3    3    0    0  0.35400339794E+01 -0.88019237292E+01  0.11151753344E+01  0.95524509000E+01  0.51100000000E-03 0. -1.
        -11    1    3    3    0    0  0.19627685608E+02  0.11991106590E+02  0.32060127031E+02  0.39457374787E+02  0.51100000000E-03 0.  1.
         12    1    3    3    0    0 -0.24298075211E+02 -0.33042972505E+01 -0.32856023734E+02  0.40997965009E+02  0.00000000000E+00 0. -1.
</event>
<event>
 7    1  0.2090370E-015  0.9000772E+02  0.7816164E-02  0.1186339E+00
        -11   -1    0    0    0    0  0.00000000000E+00  0.00000000000E+00  0.45593999997E+02  0.45594000000E+02  0.51100000000E-03 0. -1.
         11   -1    0    0    0    0 -0.00000000000E+00 -0.00000000000E+00 -0.45593999997E+02  0.45594000000E+02  0.51100000000E-03 0.  1.
    9900012    2    1    2    0    0  0.26251139903E+00 -0.84609065707E+00  0.77991718269E+00  0.90007723572E+02  0.89999984723E+02 0.  0.
         12    1    1    2    0    0 -0.26251139903E+00  0.84609065707E+00 -0.77991718269E+00  0.11802764280E+01  0.00000000000E+00 0. -1.
         11    1    3    3    0    0  0.81272362868E+01 -0.89369159657E+00  0.21346266006E+00  0.81790109977E+01  0.51100000000E-03 0. -1.
        -11    1    3    3    0    0 -0.81959735377E+01  0.17555557119E+02 -0.36226050921E+02  0.41081605781E+02  0.51100000000E-03 0.  1.
         12    1    3    3    0    0  0.33124864990E+00 -0.17507956179E+02  0.36792505443E+02  0.40747106793E+02  0.00000000000E+00 0. -1.
</event>
<event>
 7    1  0.2090370E-015  0.9000778E+02  0.7816164E-02  0.1186339E+00
        -11   -1    0    0    0    0  0.00000000000E+00  0.00000000000E+00  0.45593999997E+02  0.45594000000E+02  0.51100000000E-03 0.  1.
         11   -1    0    0    0    0 -0.00000000000E+00 -0.00000000000E+00 -0.45593999997E+02  0.45594000000E+02  0.51100000000E-03 0. -1.
    9900012    2    1    2    0    0  0.66734267948E+00  0.58776008319E+00 -0.77596039894E+00  0.90007778534E+02  0.90000040411E+02 0.  0.
         12    1    1    2    0    0 -0.66734267948E+00 -0.58776008319E+00  0.77596039894E+00  0.11802214656E+01  0.00000000000E+00 0. -1.
         11    1    3    3    0    0  0.25169341465E+02 -0.23920020895E+02 -0.11952570628E+02  0.36722296963E+02  0.51100000000E-03 0. -1.
        -11    1    3    3    0    0  0.22607355545E+01 -0.44177651919E+01 -0.80355302257E+01  0.94444333238E+01  0.51100000000E-03 0.  1.
        -12    1    3    3    0    0 -0.26762734340E+02  0.28925546170E+02  0.19212140455E+02  0.43841048247E+02  0.00000000000E+00 0.  1.
</event>
<event>
 7    1  0.2090370E-015  0.9000775E+02  0.7816164E-02  0.1186339E+00
        -11   -1    0    0    0    0  0.00000000000E+00  0.00000000000E+00  0.45593999997E+02  0.45594000000E+02  0.51100000000E-03 0.  1.
         11   -1    0    0    0    0 -0.00000000000E+00 -0.00000000000E+00 -0.45593999997E+02  0.45594000000E+02  0.51100000000E-03 0. -1.
    9900012    2    1    2    0    0  0.51919894102E+00 -0.10270552543E+01  0.26185946646E+00  0.90007754087E+02  0.90000015641E+02 0.  0.
         12    1    1    2    0    0 -0.51919894102E+00  0.10270552543E+01 -0.26185946646E+00  0.11802459133E+01  0.00000000000E+00 0. -1.
         11    1    3    3    0    0 -0.11635463855E+01  0.58328946085E+01  0.53166858862E+01  0.79776969595E+01  0.51100000000E-03 0. -1.
        -11    1    3    3    0    0  0.43501542591E+01 -0.65993826995E+01  0.38039729480E+02  0.38852242062E+02  0.51100000000E-03 0.  1.
         12    1    3    3    0    0 -0.26674089326E+01 -0.26056716323E+00 -0.43094555899E+02  0.43177815065E+02  0.00000000000E+00 0. -1.
</event>
<event>
 7    1  0.2090370E-015  0.9000774E+02  0.7816164E-02  0.1186339E+00
        -11   -1    0    0    0    0  0.00000000000E+00  0.00000000000E+00  0.45593999997E+02  0.45594000000E+02  0.51100000000E-03 0. -1.
         11   -1    0    0    0    0 -0.00000000000E+00 -0.00000000000E+00 -0.45593999997E+02  0.45594000000E+02  0.51100000000E-03 0.  1.
    9900012    2    1    2    0    0  0.40829283328E+00  0.62033617711E+00 -0.91732380954E+00  0.90007744527E+02  0.90000005955E+02 0.  0.
         12    1    1    2    0    0 -0.40829283328E+00 -0.62033617711E+00  0.91732380954E+00  0.11802554731E+01  0.00000000000E+00 0. -1.
         11    1    3    3    0    0 -0.68197287157E+01  0.20891329832E+01  0.31156691985E+01  0.77833521822E+01  0.51100000000E-03 0. -1.
        -11    1    3    3    0    0 -0.33410121990E+02  0.51418468818E+01 -0.18561051042E+02  0.38564069505E+02  0.51100000000E-03 0.  1.
         12    1    3    3    0    0  0.40638143539E+02 -0.66106436878E+01  0.14528058034E+02  0.43660322840E+02  0.00000000000E+00 0. -1.
</event>
<event>
 7    1  0.2090370E-015  0.9000774E+02  0.7816164E-02  0.1186339E+00
        -11   -1    0    0    0    0  0.00000000000E+00  0.00000000000E+00  0.45593999997E+02  0.45594000000E+02  0.51100000000E-03 0.  1.
         11   -1    0    0    0    0 -0.00000000000E+00 -0.00000000000E+00 -0.45593999997E+02  0.45594000000E+02  0.51100000000E-03 0. -1.
    9900012    2    1    2    0    0  0.11741415334E+01 -0.11909474289E+00 -0.14918525423E-01  0.90007739664E+02  0.90000001028E+02 0.  0.
         12    1    1    2    0    0 -0.11741415334E+01  0.11909474289E+00  0.14918525423E-01  0.11802603359E+01  0.00000000000E+00 0. -1.
         11    1    3    3    0    0 -0.38627118226E+00 -0.83745989386E+01  0.59649137845E-02  0.83835045566E+01  0.51100000000E-03 0. -1.
        -11    1    3    3    0    0  0.27059444653E+02 -0.23691016172E+02 -0.13751803833E+02  0.38504414048E+02  0.51100000000E-03 0.  1.
         12    1    3    3    0    0 -0.25499031938E+02  0.31946520368E+02  0.13730920394E+02  0.43119821060E+02  0.00000000000E+00 0. -1.
</event>
<event>
 7    1  0.2090370E-015  0.9000754E+02  0.7816164E-02  0.1186339E+00
        -11   -1    0    0    0    0  0.00000000000E+00  0.00000000000E+00  0.45593999997E+02  0.45594000000E+02  0.51100000000E-03 0.  1.
         11   -1    0    0    0    0 -0.00000000000E+00 -0.00000000000E+00 -0.45593999997E+02  0.45594000000E+02  0.51100000000E-03 0. -1.
    9900012    2    1    2    0    0 -0.63443600711E+00  0.98679446881E+00  0.13120879445E+00  0.90007539023E+02  0.89999797738E+02 0.  0.
         12    1    1    2    0    0  0.63443600711E+00 -0.98679446881E+00 -0.13120879445E+00  0.11804609771E+01  0.00000000000E+00 0. -1.
         11    1    3    3    0    0  0.26071007265E+02  0.27059607054E+01  0.27591623265E+02  0.38056764416E+02  0.51100000000E-03 0. -1.
        -11    1    3    3    0    0  0.24120143312E+01 -0.70064380888E+01  0.42777843330E+01  0.85561338750E+01  0.51100000000E-03 0.  1.
        -12    1    3    3    0    0 -0.29117457603E+02  0.52872718522E+01 -0.31738198804E+02  0.43394640732E+02  0.00000000000E+00 0.  1.
</event>
<event>
 7    1  0.2090370E-015  0.9000777E+02  0.7816164E-02  0.1186339E+00
        -11   -1    0    0    0    0  0.00000000000E+00  0.00000000000E+00  0.45593999997E+02  0.45594000000E+02  0.51100000000E-03 0.  1.
         11   -1    0    0    0    0 -0.00000000000E+00 -0.00000000000E+00 -0.45593999997E+02  0.45594000000E+02  0.51100000000E-03 0. -1.
    9900012    2    1    2    0    0  0.11607911725E+01 -0.19295452712E+00  0.90949449169E-01  0.90007771464E+02  0.90000033247E+02 0.  0.
         12    1    1    2    0    0 -0.11607911725E+01  0.19295452712E+00 -0.90949449169E-01  0.11802285363E+01  0.00000000000E+00 0. -1.
         11    1    3    3    0    0 -0.28491861582E+01 -0.39282358678E+01  0.88833935352E+01  0.10122429538E+02  0.51100000000E-03 0. -1.
        -11    1    3    3    0    0 -0.20032954967E+02  0.27145926746E+02  0.16793662463E+02  0.37686174160E+02  0.51100000000E-03 0.  1.
         12    1    3    3    0    0  0.24042932297E+02 -0.23410645405E+02 -0.25586106549E+02  0.42199167766E+02  0.00000000000E+00 0. -1.
</event>
<event>
 7    1  0.2090370E-015  0.9000763E+02  0.7816164E-02  0.1186339E+00
        -11   -1    0    0    0    0  0.00000000000E+00  0.00000000000E+00  0.45593999997E+02  0.45594000000E+02  0.51100000000E-03 0.  1.
         11   -1    0    0    0    0 -0.00000000000E+00 -0.00000000000E+00 -0.45593999997E+02  0.45594000000E+02  0.51100000000E-03 0. -1.
    9900012    2    1    2    0    0  0.70908424137E+00 -0.94352582105E+00  0.15214102932E-01  0.90007630183E+02  0.89999890101E+02 0.  0.
         12    1    1    2    0    0 -0.70908424137E+00  0.94352582105E+00 -0.15214102932E-01  0.11803698172E+01  0.00000000000E+00 0. -1.
         11    1    3    3    0    0 -0.34319718477E+01  0.31210592736E+01  0.11090470050E+02  0.12021562625E+02  0.51100000000E-03 0. -1.
        -11    1    3    3    0    0  0.34166547833E+02  0.18018229228E+02  0.14845070017E+01  0.38655055770E+02  0.51100000000E-03 0.  1.
         12    1    3    3    0    0 -0.30025491744E+02 -0.22082814323E+02 -0.12559762949E+02  0.39331011787E+02  0.00000000000E+00 0. -1.
</event>
<event>
 7    1  0.2090370E-015  0.9000762E+02  0.7816164E-02  0.1186339E+00
        -11   -1    0    0    0    0  0.00000000000E+00  0.00000000000E+00  0.45593999997E+02  0.45594000000E+02  0.51100000000E-03 0.  1.
         11   -1    0    0    0    0 -0.00000000000E+00 -0.00000000000E+00 -0.45593999997E+02  0.45594000000E+02  0.51100000000E-03 0. -1.
    9900012    2    1    2    0    0 -0.73403673810E+00  0.91262424614E+00  0.14701411477E+00  0.90007616123E+02  0.89999875856E+02 0.  0.
         12    1    1    2    0    0  0.73403673810E+00 -0.91262424614E+00 -0.14701411477E+00  0.11803838772E+01  0.00000000000E+00 0. -1.
         11    1    3    3    0    0 -0.14653706473E+02 -0.30245857360E+02 -0.23535070730E+01  0.33690977971E+02  0.51100000000E-03 0. -1.
        -11    1    3    3    0    0 -0.10504631442E+02 -0.57695284549E+01  0.34297597507E+00  0.11989677773E+02  0.51100000000E-03 0.  1.
        -12    1    3    3    0    0  0.24424301177E+02  0.36928010061E+02  0.21575452127E+01  0.44326960379E+02  0.00000000000E+00 0.  1.
</event>
<event>
 7    1  0.2090370E-015  0.9000759E+02  0.7816164E-02  0.1186339E+00
        -11   -1    0    0    0    0  0.00000000000E+00  0.00000000000E+00  0.45593999997E+02  0.45594000000E+02  0.51100000000E-03 0.  1.
         11   -1    0    0    0    0 -0.00000000000E+00 -0.00000000000E+00 -0.45593999997E+02  0.45594000000E+02  0.51100000000E-03 0. -1.
    9900012    2    1    2    0    0  0.11289931095E-01  0.89700641498E+00  0.76721874277E+00  0.90007587966E+02  0.89999847327E+02 0.  0.
         12    1    1    2    0    0 -0.11289931095E-01 -0.89700641498E+00 -0.76721874277E+00  0.11804120341E+01  0.00000000000E+00 0. -1.
         11    1    3    3    0    0 -0.75029625201E+01  0.61241751769E+01  0.72980489160E+01  0.12126891045E+02  0.51100000000E-03 0. -1.
        -11    1    3    3    0    0 -0.65614061144E+01 -0.18070628755E+02  0.30604623615E+02  0.36141979203E+02  0.51100000000E-03 0.  1.
         12    1    3    3    0    0  0.14075658566E+02  0.12843459993E+02 -0.37135453789E+02  0.41738717718E+02  0.00000000000E+00 0. -1.
</event>
<event>
 7    1  0.2090370E-015  0.9000745E+02  0.7816164E-02  0.1186340E+00
        -11   -1    0    0    0    0  0.00000000000E+00  0.00000000000E+00  0.45593999997E+02  0.45594000000E+02  0.51100000000E-03 0.  1.
         11   -1    0    0    0    0 -0.00000000000E+00 -0.00000000000E+00 -0.45593999997E+02  0.45594000000E+02  0.51100000000E-03 0. -1.
    9900012    2    1    2    0    0 -0.99161110194E+00  0.61431858174E+00  0.18170877184E+00  0.90007450139E+02  0.89999707680E+02 0.  0.
         12    1    1    2    0    0  0.99161110194E+00 -0.61431858174E+00 -0.18170877184E+00  0.11805498613E+01  0.00000000000E+00 0. -1.
         11    1    3    3    0    0  0.15766316344E+02  0.35424003338E+02 -0.63972301521E+01  0.39298362528E+02  0.51100000000E-03 0. -1.
        -11    1    3    3    0    0  0.63294504432E+01 -0.17300867791E+01  0.79971253291E+01  0.10344523042E+02  0.51100000000E-03 0.  1.
        -12    1    3    3    0    0 -0.23087377889E+02 -0.33079597977E+02 -0.14181864052E+01  0.40364564568E+02  0.00000000000E+00 0.  1.
</event>
<event>
 7    1  0.2090370E-015  0.9000767E+02  0.7816164E-02  0.1186339E+00
        -11   -1    0    0    0    0  0.00000000000E+00  0.00000000000E+00  0.45593999997E+02  0.45594000000E+02  0.51100000000E-03 0.  1.
         11   -1    0    0    0    0 -0.00000000000E+00 -0.00000000000E+00 -0.45593999997E+02  0.45594000000E+02  0.51100000000E-03 0. -1.
    9900012    2    1    2    0    0  0.61686158043E+00 -0.79276792614E+00  0.61981320815E+00  0.90007674788E+02  0.89999935295E+02 0.  0.
         12    1    1    2    0    0 -0.61686158043E+00  0.79276792614E+00 -0.61981320815E+00  0.11803252124E+01  0.00000000000E+00 0. -1.
         11    1    3    3    0    0 -0.32988285288E+02  0.13524129537E+02  0.16534771061E+02  0.39300479644E+02  0.51100000000E-03 0. -1.
        -11    1    3    3    0    0  0.41889410918E+01  0.41865244289E+01  0.69323529657E+01  0.91176604546E+01  0.51100000000E-03 0.  1.
        -12    1    3    3    0    0  0.29416205776E+02 -0.18503421892E+02 -0.22847310819E+02  0.41589534689E+02  0.00000000000E+00 0.  1.
</event>
<event>
 7    1  0.2090370E-015  0.9000769E+02  0.7816164E-02  0.1186339E+00
        -11   -1    0    0    0    0  0.00000000000E+00  0.00000000000E+00  0.45593999997E+02  0.45594000000E+02  0.51100000000E-03 0. -1.
         11   -1    0    0    0    0 -0.00000000000E+00 -0.00000000000E+00 -0.45593999997E+02  0.45594000000E+02  0.51100000000E-03 0.  1.
    9900012    2    1    2    0    0  0.15491712571E+00 -0.77000259074E+00 -0.88103320086E+00  0.90007693766E+02  0.89999954523E+02 0.  0.
         12    1    1    2    0    0 -0.15491712571E+00  0.77000259074E+00  0.88103320086E+00  0.11803062342E+01  0.00000000000E+00 0. -1.
         11    1    3    3    0    0  0.11085503192E+02  0.26802695998E+02  0.19913443196E+02  0.35182639383E+02  0.51100000000E-03 0. -1.
        -11    1    3    3    0    0  0.11199536414E+02  0.87156919920E+00  0.30152717743E+01  0.11631040921E+02  0.51100000000E-03 0.  1.
        -12    1    3    3    0    0 -0.22130122481E+02 -0.28444267788E+02 -0.23809748171E+02  0.43194013462E+02  0.00000000000E+00 0.  1.
</event>
<event>
 7    1  0.2090370E-015  0.9000791E+02  0.7816164E-02  0.1186339E+00
        -11   -1    0    0    0    0  0.00000000000E+00  0.00000000000E+00  0.45593999997E+02  0.45594000000E+02  0.51100000000E-03 0. -1.
         11   -1    0    0    0    0 -0.00000000000E+00 -0.00000000000E+00 -0.45593999997E+02  0.45594000000E+02  0.51100000000E-03 0.  1.
    9900012    2    1    2    0    0 -0.54068587149E+00 -0.81536102306E-01 -0.10457615178E+01  0.90007912503E+02  0.90000176148E+02 0.  0.
         12    1    1    2    0    0  0.54068587149E+00  0.81536102306E-01  0.10457615178E+01  0.11800874967E+01  0.00000000000E+00 0. -1.
         11    1    3    3    0    0  0.11986281811E+02 -0.33675976947E+02  0.13752063596E+02  0.38299629612E+02  0.51100000000E-03 0. -1.
        -11    1    3    3    0    0  0.11410430656E+01  0.50103091697E+01  0.10153128561E+02  0.11379419893E+02  0.51100000000E-03 0.  1.
        -12    1    3    3    0    0 -0.13668010748E+02  0.28584131675E+02 -0.24950953675E+02  0.40328862998E+02  0.00000000000E+00 0.  1.
</event>
<event>
 7    1  0.2090370E-015  0.9000769E+02  0.7816164E-02  0.1186339E+00
        -11   -1    0    0    0    0  0.00000000000E+00  0.00000000000E+00  0.45593999997E+02  0.45594000000E+02  0.51100000000E-03 0.  1.
         11   -1    0    0    0    0 -0.00000000000E+00 -0.00000000000E+00 -0.45593999997E+02  0.45594000000E+02  0.51100000000E-03 0. -1.
    9900012    2    1    2    0    0 -0.11506336292E+01  0.95567714539E-01 -0.24501726463E+00  0.90007693092E+02  0.89999953841E+02 0.  0.
         12    1    1    2    0    0  0.11506336292E+01 -0.95567714539E-01  0.24501726463E+00  0.11803069079E+01  0.00000000000E+00 0. -1.
         11    1    3    3    0    0  0.26713547783E+01 -0.43136397899E+02 -0.22484105994E+00  0.43219619548E+02  0.51100000000E-03 0. -1.
        -11    1    3    3    0    0 -0.25124095474E+01  0.61348963472E+01 -0.62941587163E+01  0.91414216144E+01  0.51100000000E-03 0.  1.
        -12    1    3    3    0    0 -0.13095788601E+01  0.37097069267E+02  0.62739825116E+01  0.37646651930E+02  0.00000000000E+00 0.  1.
</event>
<event>
 7    1  0.2090370E-015  0.9000771E+02  0.7816164E-02  0.1186339E+00
        -11   -1    0    0    0    0  0.00000000000E+00  0.00000000000E+00  0.45593999997E+02  0.45594000000E+02  0.51100000000E-03 0.  1.
         11   -1    0    0    0    0 -0.00000000000E+00 -0.00000000000E+00 -0.45593999997E+02  0.45594000000E+02  0.51100000000E-03 0. -1.
    9900012    2    1    2    0    0  0.15126637987E+00  0.34130877930E+00  0.11196965559E+01  0.90007706148E+02  0.89999967069E+02 0.  0.
         12    1    1    2    0    0 -0.15126637987E+00 -0.34130877930E+00 -0.11196965559E+01  0.11802938524E+01  0.00000000000E+00 0. -1.
         11    1    3    3    0    0  0.88115350338E+01 -0.35332320288E+02  0.93770929441E+01  0.37602471714E+02  0.51100000000E-03 0. -1.
        -11    1    3    3    0    0  0.87592529635E+01 -0.30186186733E+01 -0.23965344100E+01  0.95697413033E+01  0.51100000000E-03 0.  1.
        -12    1    3    3    0    0 -0.17419521617E+02  0.38692247741E+02 -0.58608619781E+01  0.42835493131E+02  0.00000000000E+00 0.  1.
</event>
<event>
 7    1  0.2090370E-015  0.9000775E+02  0.7816164E-02  0.1186339E+00
        -11   -1    0    0    0    0  0.00000000000E+00  0.00000000000E+00  0.45593999997E+02  0.45594000000E+02  0.51100000000E-03 0.  1.
         11   -1    0    0    0    0 -0.00000000000E+00 -0.00000000000E+00 -0.45593999997E+02  0.45594000000E+02  0.51100000000E-03 0. -1.
    9900012    2    1    2    0    0  0.94111710710E+00 -0.67732347459E+00 -0.22026451350E+00  0.90007752164E+02  0.90000013693E+02 0.  0.
         12    1    1    2    0    0 -0.94111710710E+00  0.67732347459E+00  0.22026451350E+00  0.11802478360E+01  0.00000000000E+00 0. -1.
         11    1    3    3    0    0  0.76154981677E+00  0.92742265754E+01 -0.29483413060E+01  0.97613499791E+01  0.51100000000E-03 0. -1.
        -11    1    3    3    0    0  0.18607943697E+01 -0.18321189328E+02 -0.36081344070E+02  0.40509158523E+02  0.51100000000E-03 0.  1.
         12    1    3    3    0    0 -0.16812270793E+01  0.83696392782E+01  0.38809420863E+02  0.39737243662E+02  0.00000000000E+00 0. -1.
</event>
<event>
 7    1  0.2090370E-015  0.9000769E+02  0.7816164E-02  0.1186339E+00
        -11   -1    0    0    0    0  0.00000000000E+00  0.00000000000E+00  0.45593999997E+02  0.45594000000E+02  0.51100000000E-03 0.  1.
         11   -1    0    0    0    0 -0.00000000000E+00 -0.00000000000E+00 -0.45593999997E+02  0.45594000000E+02  0.51100000000E-03 0. -1.
    9900012    2    1    2    0    0 -0.35215159646E+00  0.98551867878E+00  0.54577870253E+00  0.90007689784E+02  0.89999950489E+02 0.  0.
         12    1    1    2    0    0  0.35215159646E+00 -0.98551867878E+00 -0.54577870253E+00  0.11803102157E+01  0.00000000000E+00 0. -1.
         11    1    3    3    0    0  0.20425605771E+02  0.28651877117E+02 -0.11546387748E+02  0.37033154115E+02  0.51100000000E-03 0. -1.
        -11    1    3    3    0    0  0.79438837360E-01  0.88354048211E+01 -0.11208611074E+01  0.89065716617E+01  0.51100000000E-03 0.  1.
        -12    1    3    3    0    0 -0.20857196204E+02 -0.36501763259E+02  0.13213027558E+02  0.44067964008E+02  0.00000000000E+00 0.  1.
</event>
<event>
 7    1  0.2090370E-015  0.9000772E+02  0.7816164E-02  0.1186339E+00
        -11   -1    0    0    0    0  0.00000000000E+00  0.00000000000E+00  0.45593999997E+02  0.45594000000E+02  0.51100000000E-03 0.  1.
         11   -1    0    0    0    0 -0.00000000000E+00 -0.00000000000E+00 -0.45593999997E+02  0.45594000000E+02  0.51100000000E-03 0. -1.
    9900012    2    1    2    0    0 -0.55769895092E+00  0.51608056961E+00  0.90316147700E+00  0.90007717014E+02  0.89999978078E+02 0.  0.
         12    1    1    2    0    0  0.55769895092E+00 -0.51608056961E+00 -0.90316147700E+00  0.11802829863E+01  0.00000000000E+00 0. -1.
         11    1    3    3    0    0  0.75402069175E+01 -0.51776539871E+01  0.22328286574E+01  0.94153250206E+01  0.51100000000E-03 0. -1.
        -11    1    3    3    0    0  0.23622530918E+01 -0.36123911465E+02  0.65029843375E+01  0.36780511480E+02  0.51100000000E-03 0.  1.
         12    1    3    3    0    0 -0.10460158960E+02  0.41817646022E+02 -0.78326515179E+01  0.43811880513E+02  0.00000000000E+00 0. -1.
</event>
<event>
 7    1  0.2090370E-015  0.9000777E+02  0.7816164E-02  0.1186339E+00
        -11   -1    0    0    0    0  0.00000000000E+00  0.00000000000E+00  0.45593999997E+02  0.45594000000E+02  0.51100000000E-03 0.  1.
         11   -1    0    0    0    0 -0.00000000000E+00 -0.00000000000E+00 -0.45593999997E+02  0.45594000000E+02  0.51100000000E-03 0. -1.
    9900012    2    1    2    0    0 -0.11499509805E+01 -0.77796684943E-01 -0.25398967138E+00  0.90007766830E+02  0.90000028552E+02 0.  0.
         12    1    1    2    0    0  0.11499509805E+01  0.77796684943E-01  0.25398967138E+00  0.11802331697E+01  0.00000000000E+00 0. -1.
         11    1    3    3    0    0  0.13012927195E+02 -0.26460217788E+02  0.14620602903E+02  0.32912633275E+02  0.51100000000E-03 0. -1.
        -11    1    3    3    0    0 -0.10264750982E+02 -0.12038286326E+02 -0.84849159218E+01  0.17952137724E+02  0.51100000000E-03 0.  1.
        -12    1    3    3    0    0 -0.38981271937E+01  0.38420707429E+02 -0.63896766524E+01  0.39142995832E+02  0.00000000000E+00 0.  1.
</event>
<event>
 7    1  0.2090370E-015  0.9000764E+02  0.7816164E-02  0.1186339E+00
        -11   -1    0    0    0    0  0.00000000000E+00  0.00000000000E+00  0.45593999997E+02  0.45594000000E+02  0.51100000000E-03 0.  1.
         11   -1    0    0    0    0 -0.00000000000E+00 -0.00000000000E+00 -0.45593999997E+02  0.45594000000E+02  0.51100000000E-03 0. -1.
    9900012    2    1    2    0    0  0.10481656748E+01 -0.49367998649E+00  0.22554646768E+00  0.90007643096E+02  0.89999903185E+02 0.  0.
         12    1    1    2    0    0 -0.10481656748E+01  0.49367998649E+00 -0.22554646768E+00  0.11803569037E+01  0.00000000000E+00 0. -1.
         11    1    3    3    0    0 -0.67414764452E+01 -0.38198431608E+01  0.51493027551E+01  0.93034415975E+01  0.51100000000E-03 0. -1.
        -11    1    3    3    0    0 -0.91217415288E+01  0.51263951561E+01  0.35414197743E+02  0.36927652212E+02  0.51100000000E-03 0.  1.
         12    1    3    3    0    0  0.16911383649E+02 -0.18002319819E+01 -0.40337954031E+02  0.43776549287E+02  0.00000000000E+00 0. -1.
</event>
<event>
 7    1  0.2090370E-015  0.9000734E+02  0.7816164E-02  0.1186340E+00
        -11   -1    0    0    0    0  0.00000000000E+00  0.00000000000E+00  0.45593999997E+02  0.45594000000E+02  0.51100000000E-03 0. -1.
         11   -1    0    0    0    0 -0.00000000000E+00 -0.00000000000E+00 -0.45593999997E+02  0.45594000000E+02  0.51100000000E-03 0.  1.
    9900012    2    1    2    0    0  0.67019587698E+00 -0.83426366958E+00 -0.49878859723E+00  0.90007344060E+02  0.89999600201E+02 0.  0.
         12    1    1    2    0    0 -0.67019587698E+00  0.83426366958E+00  0.49878859723E+00  0.11806559400E+01  0.00000000000E+00 0. -1.
         11    1    3    3    0    0  0.13887274798E+01 -0.82603991567E+01  0.10819171149E+02  0.13682734480E+02  0.51100000000E-03 0. -1.
        -11    1    3    3    0    0 -0.29925894596E+02 -0.72653352130E+01  0.15093500603E+02  0.34295160355E+02  0.51100000000E-03 0.  1.
         12    1    3    3    0    0  0.29207362993E+02  0.14691470700E+02 -0.26411460349E+02  0.42029449224E+02  0.00000000000E+00 0. -1.
</event>
<event>
 7    1  0.2090370E-015  0.9000777E+02  0.7816164E-02  0.1186339E+00
        -11   -1    0    0    0    0  0.00000000000E+00  0.00000000000E+00  0.45593999997E+02  0.45594000000E+02  0.51100000000E-03 0. -1.
         11   -1    0    0    0    0 -0.00000000000E+00 -0.00000000000E+00 -0.45593999997E+02  0.45594000000E+02  0.51100000000E-03 0.  1.
    9900012    2    1    2    0    0  0.40437813333E+00  0.98084447969E+00 -0.51707512741E+00  0.90007769406E+02  0.90000031162E+02 0.  0.
         12    1    1    2    0    0 -0.40437813333E+00 -0.98084447969E+00  0.51707512741E+00  0.11802305942E+01  0.00000000000E+00 0. -1.
         11    1    3    3    0    0 -0.24835505493E+02 -0.21697038315E+02  0.21916532765E+02  0.39596694476E+02  0.51100000000E-03 0. -1.
        -11    1    3    3    0    0  0.55806814661E+01  0.74431874453E+01  0.71707725530E+01  0.11745851363E+02  0.51100000000E-03 0.  1.
        -12    1    3    3    0    0  0.19659202160E+02  0.15234695350E+02 -0.29604380445E+02  0.38665223567E+02  0.00000000000E+00 0.  1.
</event>
<event>
 7    1  0.2090370E-015  0.9000765E+02  0.7816164E-02  0.1186339E+00
        -11   -1    0    0    0    0  0.00000000000E+00  0.00000000000E+00  0.45593999997E+02  0.45594000000E+02  0.51100000000E-03 0. -1.
         11   -1    0    0    0    0 -0.00000000000E+00 -0.00000000000E+00 -0.45593999997E+02  0.45594000000E+02  0.51100000000E-03 0.  1.
    9900012    2    1    2    0    0  0.68884544165E-01 -0.41679154060E+00 -0.11021639856E+01  0.90007650171E+02  0.89999910353E+02 0.  0.
         12    1    1    2    0    0 -0.68884544165E-01  0.41679154060E+00  0.11021639856E+01  0.11803498295E+01  0.00000000000E+00 0. -1.
         11    1    3    3    0    0 -0.77672635381E+01  0.62839411810E+01  0.16201793548E+01  0.10121426828E+02  0.51100000000E-03 0. -1.
        -11    1    3    3    0    0 -0.35249618640E+01 -0.15465250601E+02 -0.38337441011E+02  0.41489260247E+02  0.51100000000E-03 0.  1.
         12    1    3    3    0    0  0.11361109946E+02  0.87645178790E+01  0.35615097671E+02  0.38396963095E+02  0.00000000000E+00 0. -1.
</event>
<event>
 7    1  0.2090370E-015  0.9000779E+02  0.7816164E-02  0.1186339E+00
        -11   -1    0    0    0    0  0.00000000000E+00  0.00000000000E+00  0.45593999997E+02  0.45594000000E+02  0.51100000000E-03 0.  1.
         11   -1    0    0    0    0 -0.00000000000E+00 -0.00000000000E+00 -0.45593999997E+02  0.45594000000E+02  0.51100000000E-03 0. -1.
    9900012    2    1    2    0    0  0.11165257557E+01  0.53303177235E-01 -0.37872906778E+00  0.90007785317E+02  0.90000047283E+02 0.  0.
         12    1    1    2    0    0 -0.11165257557E+01 -0.53303177235E-01  0.37872906778E+00  0.11802146833E+01  0.00000000000E+00 0. -1.
         11    1    3    3    0    0  0.16768399691E+02  0.10163940039E+01 -0.80726466781E+01  0.18638130529E+02  0.51100000000E-03 0. -1.
        -11    1    3    3    0    0  0.75882416444E+01 -0.23135800065E+02  0.24988186511E+02  0.34889197774E+02  0.51100000000E-03 0.  1.
         12    1    3    3    0    0 -0.23240115580E+02  0.22172709238E+02 -0.17294268901E+02  0.36480457014E+02  0.00000000000E+00 0. -1.
</event>
<event>
 7    1  0.2090370E-015  0.9000774E+02  0.7816164E-02  0.1186339E+00
        -11   -1    0    0    0    0  0.00000000000E+00  0.00000000000E+00  0.45593999997E+02  0.45594000000E+02  0.51100000000E-03 0. -1.
         11   -1    0    0    0    0 -0.00000000000E+00 -0.00000000000E+00 -0.45593999997E+02  0.45594000000E+02  0.51100000000E-03 0.  1.
    9900012    2    1    2    0    0  0.11497532769E+01  0.26319018472E+00 -0.42667418036E-01  0.90007736394E+02  0.89999997714E+02 0.  0.
         12    1    1    2    0    0 -0.11497532769E+01 -0.26319018472E+00  0.42667418036E-01  0.11802636060E+01  0.00000000000E+00 0. -1.
         11    1    3    3    0    0  0.13170916251E+02 -0.36285746609E+02 -0.60201268297E+01  0.39068790219E+02  0.51100000000E-03 0. -1.
        -11    1    3    3    0    0  0.10213865004E+01 -0.11588994743E+01 -0.83901687034E+01  0.85311903921E+01  0.51100000000E-03 0.  1.
        -12    1    3    3    0    0 -0.13042549475E+02  0.37707836268E+02  0.14367628115E+02  0.42407755782E+02  0.00000000000E+00 0.  1.
</event>
<event>
 7    1  0.2090370E-015  0.9000782E+02  0.7816164E-02  0.1186339E+00
        -11   -1    0    0    0    0  0.00000000000E+00  0.00000000000E+00  0.45593999997E+02  0.45594000000E+02  0.51100000000E-03 0. -1.
         11   -1    0    0    0    0 -0.00000000000E+00 -0.00000000000E+00 -0.45593999997E+02  0.45594000000E+02  0.51100000000E-03 0.  1.
    9900012    2    1    2    0    0  0.79419688788E-01 -0.57367258777E+00 -0.10283056530E+01  0.90007821945E+02  0.90000084395E+02 0.  0.
         12    1    1    2    0    0 -0.79419688788E-01  0.57367258777E+00  0.10283056530E+01  0.11801780547E+01  0.00000000000E+00 0. -1.
         11    1    3    3    0    0  0.90368882570E+01  0.42479427150E+00 -0.57512029199E+00  0.90651289651E+01  0.51100000000E-03 0. -1.
        -11    1    3    3    0    0 -0.12333954347E+02  0.35123217941E+02  0.16715041285E+02  0.40806365604E+02  0.51100000000E-03 0.  1.
         12    1    3    3    0    0  0.33764857783E+01 -0.36121684801E+02 -0.17168226646E+02  0.40136327376E+02  0.00000000000E+00 0. -1.
</event>
<event>
 7    1  0.2090370E-015  0.9000771E+02  0.7816164E-02  0.1186339E+00
        -11   -1    0    0    0    0  0.00000000000E+00  0.00000000000E+00  0.45593999997E+02  0.45594000000E+02  0.51100000000E-03 0. -1.
         11   -1    0    0    0    0 -0.00000000000E+00 -0.00000000000E+00 -0.45593999997E+02  0.45594000000E+02  0.51100000000E-03 0.  1.
    9900012    2    1    2    0    0 -0.14853256967E+00  0.24971241887E+00 -0.11439644938E+01  0.90007714874E+02  0.89999975910E+02 0.  0.
         12    1    1    2    0    0  0.14853256967E+00 -0.24971241887E+00  0.11439644938E+01  0.11802851263E+01  0.00000000000E+00 0. -1.
         11    1    3    3    0    0 -0.37536750333E+02 -0.24839652955E+01  0.10249210194E+02  0.38990050257E+02  0.51100000000E-03 0. -1.
        -11    1    3    3    0    0 -0.42247680292E+01 -0.21955998892E+01 -0.75658571864E+01  0.89393243034E+01  0.51100000000E-03 0.  1.
        -12    1    3    3    0    0  0.41612985793E+02  0.49292776036E+01 -0.38273175013E+01  0.42078340313E+02  0.00000000000E+00 0.  1.
</event>
<event>
 7    1  0.2090370E-015  0.9000775E+02  0.7816164E-02  0.1186339E+00
        -11   -1    0    0    0    0  0.00000000000E+00  0.00000000000E+00  0.45593999997E+02  0.45594000000E+02  0.51100000000E-03 0.  1.
         11   -1    0    0    0    0 -0.00000000000E+00 -0.00000000000E+00 -0.45593999997E+02  0.45594000000E+02  0.51100000000E-03 0. -1.
    9900012    2    1    2    0    0 -0.51412898279E+00 -0.10311306453E+01 -0.25578186070E+00  0.90007752831E+02  0.90000014369E+02 0.  0.
         12    1    1    2    0    0  0.51412898279E+00  0.10311306453E+01  0.25578186070E+00  0.11802471686E+01  0.00000000000E+00 0. -1.
         11    1    3    3    0    0  0.42568929604E+01  0.11552097532E+01  0.75127937038E+01  0.87119295651E+01  0.51100000000E-03 0. -1.
        -11    1    3    3    0    0  0.73806813099E+01 -0.20673228170E+02  0.30210326806E+02  0.37343281398E+02  0.51100000000E-03 0.  1.
         12    1    3    3    0    0 -0.12151703253E+02  0.18486887772E+02 -0.37978902370E+02  0.43952541868E+02  0.00000000000E+00 0. -1.
</event>
<event>
 7    1  0.2090370E-015  0.9000773E+02  0.7816164E-02  0.1186339E+00
        -11   -1    0    0    0    0  0.00000000000E+00  0.00000000000E+00  0.45593999997E+02  0.45594000000E+02  0.51100000000E-03 0.  1.
         11   -1    0    0    0    0 -0.00000000000E+00 -0.00000000000E+00 -0.45593999997E+02  0.45594000000E+02  0.51100000000E-03 0. -1.
    9900012    2    1    2    0    0 -0.54880019932E+00  0.94995563588E+00  0.43524098253E+00  0.90007732199E+02  0.89999993464E+02 0.  0.
         12    1    1    2    0    0  0.54880019932E+00 -0.94995563588E+00 -0.43524098253E+00  0.11802678009E+01  0.00000000000E+00 0. -1.
         11    1    3    3    0    0 -0.12119392677E+02 -0.40796810542E+01 -0.33957883104E+02  0.36285827833E+02  0.51100000000E-03 0. -1.
        -11    1    3    3    0    0 -0.79128724134E+01 -0.53343905334E+00 -0.50335995516E+01  0.93933610471E+01  0.51100000000E-03 0.  1.
        -12    1    3    3    0    0  0.19483464891E+02  0.55630757434E+01  0.39426723638E+02  0.44328543319E+02  0.00000000000E+00 0.  1.
</event>
<event>
 7    1  0.2090370E-015  0.9000773E+02  0.7816164E-02  0.1186339E+00
        -11   -1    0    0    0    0  0.00000000000E+00  0.00000000000E+00  0.45593999997E+02  0.45594000000E+02  0.51100000000E-03 0. -1.
         11   -1    0    0    0    0 -0.00000000000E+00 -0.00000000000E+00 -0.45593999997E+02  0.45594000000E+02  0.51100000000E-03 0.  1.
    9900012    2    1    2    0    0 -0.13222301045E+00 -0.16891658932E+00 -0.11606160132E+01  0.90007726613E+02  0.89999987804E+02 0.  0.
         12    1    1    2    0    0  0.13222301045E+00  0.16891658932E+00  0.11606160132E+01  0.11802733872E+01  0.00000000000E+00 0. -1.
         11    1    3    3    0    0 -0.63546538820E+01 -0.47987319317E+01 -0.12951191497E+01  0.80676383152E+01  0.51100000000E-03 0. -1.
        -11    1    3    3    0    0 -0.36743125030E+02  0.11075843890E+02 -0.21249346104E+01  0.38434969783E+02  0.51100000000E-03 0.  1.
         12    1    3    3    0    0  0.42965555902E+02 -0.64460285481E+01  0.22594377470E+01  0.43505118514E+02  0.00000000000E+00 0. -1.
</event>
<event>
 7    1  0.2090370E-015  0.9000777E+02  0.7816164E-02  0.1186339E+00
        -11   -1    0    0    0    0  0.00000000000E+00  0.00000000000E+00  0.45593999997E+02  0.45594000000E+02  0.51100000000E-03 0. -1.
         11   -1    0    0    0    0 -0.00000000000E+00 -0.00000000000E+00 -0.45593999997E+02  0.45594000000E+02  0.51100000000E-03 0.  1.
    9900012    2    1    2    0    0 -0.26438059736E-01  0.27847005758E+00 -0.11466061252E+01  0.90007766908E+02  0.90000028632E+02 0.  0.
         12    1    1    2    0    0  0.26438059736E-01 -0.27847005758E+00  0.11466061252E+01  0.11802330915E+01  0.00000000000E+00 0. -1.
         11    1    3    3    0    0  0.33093488235E+02  0.21522408831E+02 -0.60501947561E+00  0.39481123265E+02  0.51100000000E-03 0. -1.
        -11    1    3    3    0    0  0.25518073882E+01 -0.19108854307E+01  0.83952814928E+01  0.89801979755E+01  0.51100000000E-03 0.  1.
        -12    1    3    3    0    0 -0.35671733682E+02 -0.19333053343E+02 -0.89368681424E+01  0.41546445668E+02  0.00000000000E+00 0.  1.
</event>
<event>
 7    1  0.2090370E-015  0.9000776E+02  0.7816164E-02  0.1186339E+00
        -11   -1    0    0    0    0  0.00000000000E+00  0.00000000000E+00  0.45593999997E+02  0.45594000000E+02  0.51100000000E-03 0.  1.
         11   -1    0    0    0    0 -0.00000000000E+00 -0.00000000000E+00 -0.45593999997E+02  0.45594000000E+02  0.51100000000E-03 0. -1.
    9900012    2    1    2    0    0 -0.10448276779E+01  0.24390529752E+00  0.49175216088E+00  0.90007756441E+02  0.90000018026E+02 0.  0.
         12    1    1    2    0    0  0.10448276779E+01 -0.24390529752E+00 -0.49175216088E+00  0.11802435589E+01  0.00000000000E+00 0. -1.
         11    1    3    3    0    0  0.31735074496E+02  0.11538312888E+02  0.24225872472E+02  0.41558880097E+02  0.51100000000E-03 0. -1.
        -11    1    3    3    0    0  0.20419885099E+01 -0.45537238620E+01 -0.84797750499E+01  0.98393446552E+01  0.51100000000E-03 0.  1.
        -12    1    3    3    0    0 -0.34821890684E+02 -0.67406837288E+01 -0.15254345261E+02  0.38609531689E+02  0.00000000000E+00 0.  1.
</event>
<event>
 7    1  0.2090370E-015  0.9000780E+02  0.7816164E-02  0.1186339E+00
        -11   -1    0    0    0    0  0.00000000000E+00  0.00000000000E+00  0.45593999997E+02  0.45594000000E+02  0.51100000000E-03 0.  1.
         11   -1    0    0    0    0 -0.00000000000E+00 -0.00000000000E+00 -0.45593999997E+02  0.45594000000E+02  0.51100000000E-03 0. -1.
    9900012    2    1    2    0    0 -0.10569347844E+01  0.50013453858E+00 -0.16007330090E+00  0.90007801221E+02  0.90000063398E+02 0.  0.
         12    1    1    2    0    0  0.10569347844E+01 -0.50013453858E+00  0.16007330090E+00  0.11801987785E+01  0.00000000000E+00 0. -1.
         11    1    3    3    0    0  0.67994631043E-01  0.11258157979E+02  0.38163574363E+00  0.11264829801E+02  0.51100000000E-03 0. -1.
        -11    1    3    3    0    0  0.10095474194E+02  0.13627256371E+02 -0.32710644909E+02  0.36845718965E+02  0.51100000000E-03 0.  1.
         12    1    3    3    0    0 -0.11220403609E+02 -0.24385279811E+02  0.32168935865E+02  0.41897252455E+02  0.00000000000E+00 0. -1.
</event>
<event>
 7    1  0.2090370E-015  0.9000773E+02  0.7816164E-02  0.1186339E+00
        -11   -1    0    0    0    0  0.00000000000E+00  0.00000000000E+00  0.45593999997E+02  0.45594000000E+02  0.51100000000E-03 0.  1.
         11   -1    0    0    0    0 -0.00000000000E+00 -0.00000000000E+00 -0.45593999997E+02  0.45594000000E+02  0.51100000000E-03 0. -1.
    9900012    2    1    2    0    0  0.11213845372E+01 -0.36752958521E+00  0.21251157684E-01  0.90007731858E+02  0.89999993118E+02 0.  0.
         12    1    1    2    0    0 -0.11213845372E+01  0.36752958521E+00 -0.21251157684E-01  0.11802681424E+01  0.00000000000E+00 0. -1.
         11    1    3    3    0    0 -0.30538810119E+02 -0.81905885728E+01 -0.22815827553E+02  0.38990596967E+02  0.51100000000E-03 0. -1.
        -11    1    3    3    0    0  0.12619822112E+01 -0.94001118362E+01  0.39631325823E+00  0.94927217432E+01  0.51100000000E-03 0.  1.
        -12    1    3    3    0    0  0.30398212445E+02  0.17223170824E+02  0.22440765453E+02  0.41524413147E+02  0.00000000000E+00 0.  1.
</event>
<event>
 7    1  0.2090370E-015  0.9000774E+02  0.7816164E-02  0.1186339E+00
        -11   -1    0    0    0    0  0.00000000000E+00  0.00000000000E+00  0.45593999997E+02  0.45594000000E+02  0.51100000000E-03 0. -1.
         11   -1    0    0    0    0 -0.00000000000E+00 -0.00000000000E+00 -0.45593999997E+02  0.45594000000E+02  0.51100000000E-03 0.  1.
    9900012    2    1    2    0    0 -0.51857737124E+00  0.54251165218E+00 -0.91091398572E+00  0.90007743387E+02  0.90000004800E+02 0.  0.
         12    1    1    2    0    0  0.51857737124E+00 -0.54251165218E+00  0.91091398572E+00  0.11802566128E+01  0.00000000000E+00 0. -1.
         11    1    3    3    0    0 -0.55155143144E+01  0.80892746539E+01 -0.15680082911E+01  0.99154381064E+01  0.51100000000E-03 0. -1.
        -11    1    3    3    0    0  0.22153301953E+02 -0.17943514234E+02 -0.31314761592E+02  0.42347996225E+02  0.51100000000E-03 0.  1.
         12    1    3    3    0    0 -0.17156365010E+02  0.10396751232E+02  0.31971855897E+02  0.37744309055E+02  0.00000000000E+00 0. -1.
</event>
<event>
 7    1  0.2090370E-015  0.9000776E+02  0.7816164E-02  0.1186339E+00
        -11   -1    0    0    0    0  0.00000000000E+00  0.00000000000E+00  0.45593999997E+02  0.45594000000E+02  0.51100000000E-03 0. -1.
         11   -1    0    0    0    0 -0.00000000000E+00 -0.00000000000E+00 -0.45593999997E+02  0.45594000000E+02  0.51100000000E-03 0.  1.
    9900012    2    1    2    0    0 -0.65950255047E-01 -0.11748823904E+01 -0.90945759728E-01  0.90007758839E+02  0.90000020455E+02 0.  0.
         12    1    1    2    0    0  0.65950255047E-01  0.11748823904E+01  0.90945759728E-01  0.11802411612E+01  0.00000000000E+00 0. -1.
         11    1    3    3    0    0  0.89626892993E+01  0.23249278938E+02  0.29985527496E+02  0.38987057213E+02  0.51100000000E-03 0. -1.
        -11    1    3    3    0    0  0.91043789804E+01 -0.54296655407E+01  0.62689978344E+00  0.10619038944E+02  0.51100000000E-03 0.  1.
        -12    1    3    3    0    0 -0.18133018535E+02 -0.18994495788E+02 -0.30703373039E+02  0.40401662681E+02  0.00000000000E+00 0.  1.
</event>
<event>
 7    1  0.2090370E-015  0.9000775E+02  0.7816164E-02  0.1186339E+00
        -11   -1    0    0    0    0  0.00000000000E+00  0.00000000000E+00  0.45593999997E+02  0.45594000000E+02  0.51100000000E-03 0. -1.
         11   -1    0    0    0    0 -0.00000000000E+00 -0.00000000000E+00 -0.45593999997E+02  0.45594000000E+02  0.51100000000E-03 0.  1.
    9900012    2    1    2    0    0  0.29255310009E+00 -0.58586755500E+00 -0.98191656921E+00  0.90007750765E+02  0.90000012275E+02 0.  0.
         12    1    1    2    0    0 -0.29255310009E+00  0.58586755500E+00  0.98191656921E+00  0.11802492352E+01  0.00000000000E+00 0. -1.
         11    1    3    3    0    0  0.13210938567E+01  0.76739464705E+01 -0.51707364309E+01  0.93472594330E+01  0.51100000000E-03 0. -1.
        -11    1    3    3    0    0 -0.13063223360E+02  0.33232023128E+02 -0.61638479665E+01  0.36235454844E+02  0.51100000000E-03 0.  1.
         12    1    3    3    0    0  0.12034682604E+02 -0.41491837154E+02  0.10352667828E+02  0.44425036488E+02  0.00000000000E+00 0. -1.
</event>
<event>
 7    1  0.2090370E-015  0.9000774E+02  0.7816164E-02  0.1186339E+00
        -11   -1    0    0    0    0  0.00000000000E+00  0.00000000000E+00  0.45593999997E+02  0.45594000000E+02  0.51100000000E-03 0.  1.
         11   -1    0    0    0    0 -0.00000000000E+00 -0.00000000000E+00 -0.45593999997E+02  0.45594000000E+02  0.51100000000E-03 0. -1.
    9900012    2    1    2    0    0  0.66639726901E+00 -0.95712188040E+00  0.18122592752E+00  0.90007741363E+02  0.90000002749E+02 0.  0.
         12    1    1    2    0    0 -0.66639726901E+00  0.95712188040E+00 -0.18122592752E+00  0.11802586373E+01  0.00000000000E+00 0. -1.
         11    1    3    3    0    0 -0.23463549181E+02 -0.17967231919E+00 -0.28082950675E+02  0.36595389617E+02  0.51100000000E-03 0. -1.
        -11    1    3    3    0    0 -0.81769169448E+01  0.38688139717E+01  0.16314178558E+02  0.18654278720E+02  0.51100000000E-03 0.  1.
        -12    1    3    3    0    0  0.32306863395E+02 -0.46462635329E+01  0.11949998045E+02  0.34758073026E+02  0.00000000000E+00 0.  1.
</event>
<event>
 7    1  0.2090370E-015  0.9000777E+02  0.7816164E-02  0.1186339E+00
        -11   -1    0    0    0    0  0.00000000000E+00  0.00000000000E+00  0.45593999997E+02  0.45594000000E+02  0.51100000000E-03 0.  1.
         11   -1    0    0    0    0 -0.00000000000E+00 -0.00000000000E+00 -0.45593999997E+02  0.45594000000E+02  0.51100000000E-03 0. -1.
    9900012    2    1    2    0    0  0.70381500522E+00 -0.94105466442E+00 -0.10955585040E+00  0.90007770392E+02  0.90000032161E+02 0.  0.
         12    1    1    2    0    0 -0.70381500522E+00  0.94105466442E+00  0.10955585040E+00  0.11802296079E+01  0.00000000000E+00 0. -1.
         11    1    3    3    0    0 -0.42782237856E+01  0.47982210645E+01 -0.66517215356E+01  0.92504877597E+01  0.51100000000E-03 0. -1.
        -11    1    3    3    0    0 -0.35930243549E+02 -0.12618703490E+02 -0.29593857365E+01  0.38196492555E+02  0.51100000000E-03 0.  1.
         12    1    3    3    0    0  0.40912282340E+02  0.68794277609E+01  0.95015514217E+01  0.42560790078E+02  0.00000000000E+00 0. -1.
</event>
<event>
 7    1  0.2090370E-015  0.9000782E+02  0.7816164E-02  0.1186339E+00
        -11   -1    0    0    0    0  0.00000000000E+00  0.00000000000E+00  0.45593999997E+02  0.45594000000E+02  0.51100000000E-03 0. -1.
         11   -1    0    0    0    0 -0.00000000000E+00 -0.00000000000E+00 -0.45593999997E+02  0.45594000000E+02  0.51100000000E-03 0.  1.
    9900012    2    1    2    0    0 -0.32078330136E+00  0.10225177594E+01 -0.49434315400E+00  0.90007822196E+02  0.90000084649E+02 0.  0.
         12    1    1    2    0    0  0.32078330136E+00 -0.10225177594E+01  0.49434315400E+00  0.11801778038E+01  0.00000000000E+00 0. -1.
         11    1    3    3    0    0  0.35407236646E+01  0.35626097142E+00 -0.92419137610E+01  0.99033638818E+01  0.51100000000E-03 0. -1.
        -11    1    3    3    0    0 -0.16755474160E+02  0.36494523166E+02 -0.29637426708E+01  0.40266361970E+02  0.51100000000E-03 0.  1.
         12    1    3    3    0    0  0.12893967194E+02 -0.35828266378E+02  0.11711313278E+02  0.39838096344E+02  0.00000000000E+00 0. -1.
</event>
<event>
 7    1  0.2090370E-015  0.9000771E+02  0.7816164E-02  0.1186339E+00
        -11   -1    0    0    0    0  0.00000000000E+00  0.00000000000E+00  0.45593999997E+02  0.45594000000E+02  0.51100000000E-03 0.  1.
         11   -1    0    0    0    0 -0.00000000000E+00 -0.00000000000E+00 -0.45593999997E+02  0.45594000000E+02  0.51100000000E-03 0. -1.
    9900012    2    1    2    0    0  0.10786869157E+01  0.43117421089E+00  0.20882816443E+00  0.90007709415E+02  0.89999970380E+02 0.  0.
         12    1    1    2    0    0 -0.10786869157E+01 -0.43117421089E+00 -0.20882816443E+00  0.11802905847E+01  0.00000000000E+00 0. -1.
         11    1    3    3    0    0 -0.96968471383E+01  0.36020715858E+02 -0.22696271311E+02  0.43665106745E+02  0.51100000000E-03 0. -1.
        -11    1    3    3    0    0  0.79093988691E+01 -0.45776720447E+01  0.49317335203E+01  0.10384395389E+02  0.51100000000E-03 0.  1.
        -12    1    3    3    0    0  0.28661351848E+01 -0.31011869602E+02  0.17973365955E+02  0.35958207281E+02  0.00000000000E+00 0.  1.
</event>
<event>
 7    1  0.2090370E-015  0.9000772E+02  0.7816164E-02  0.1186339E+00
        -11   -1    0    0    0    0  0.00000000000E+00  0.00000000000E+00  0.45593999997E+02  0.45594000000E+02  0.51100000000E-03 0.  1.
         11   -1    0    0    0    0 -0.00000000000E+00 -0.00000000000E+00 -0.45593999997E+02  0.45594000000E+02  0.51100000000E-03 0. -1.
    9900012    2    1    2    0    0  0.33589134970E+00  0.65830430814E-01  0.11295569413E+01  0.90007722267E+02  0.89999983401E+02 0.  0.
         12    1    1    2    0    0 -0.33589134970E+00 -0.65830430814E-01 -0.11295569413E+01  0.11802777334E+01  0.00000000000E+00 0. -1.
         11    1    3    3    0    0 -0.33992422475E+02 -0.12455818423E+02 -0.11575497374E+01  0.36221155696E+02  0.51100000000E-03 0. -1.
        -11    1    3    3    0    0 -0.51995034765E+01 -0.53626815848E+01  0.68844790167E+01  0.10158210560E+02  0.51100000000E-03 0.  1.
        -12    1    3    3    0    0  0.39527817301E+02  0.17884330438E+02 -0.45973723381E+01  0.43628356011E+02  0.00000000000E+00 0.  1.
</event>
<event>
 7    1  0.2090370E-015  0.9000773E+02  0.7816164E-02  0.1186339E+00
        -11   -1    0    0    0    0  0.00000000000E+00  0.00000000000E+00  0.45593999997E+02  0.45594000000E+02  0.51100000000E-03 0. -1.
         11   -1    0    0    0    0 -0.00000000000E+00 -0.00000000000E+00 -0.45593999997E+02  0.45594000000E+02  0.51100000000E-03 0.  1.
    9900012    2    1    2    0    0  0.87775424348E+00 -0.97358792783E-01 -0.78300400937E+00  0.90007734553E+02  0.89999995849E+02 0.  0.
         12    1    1    2    0    0 -0.87775424348E+00  0.97358792783E-01  0.78300400937E+00  0.11802654469E+01  0.00000000000E+00 0. -1.
         11    1    3    3    0    0 -0.85602594447E+01 -0.32729090093E+01 -0.10958000230E+02  0.14285228190E+02  0.51100000000E-03 0. -1.
        -11    1    3    3    0    0  0.58625666858E+01  0.34480625727E+02  0.22830443852E+02  0.41767360527E+02  0.51100000000E-03 0.  1.
         12    1    3    3    0    0  0.35754470024E+01 -0.31305075510E+02 -0.12655447632E+02  0.33955145836E+02  0.00000000000E+00 0. -1.
</event>
<event>
 7    1  0.2090370E-015  0.9000776E+02  0.7816164E-02  0.1186339E+00
        -11   -1    0    0    0    0  0.00000000000E+00  0.00000000000E+00  0.45593999997E+02  0.45594000000E+02  0.51100000000E-03 0.  1.
         11   -1    0    0    0    0 -0.00000000000E+00 -0.00000000000E+00 -0.45593999997E+02  0.45594000000E+02  0.51100000000E-03 0. -1.
    9900012    2    1    2    0    0 -0.66229978557E+00 -0.90439542268E+00  0.36932869904E+00  0.90007756053E+02  0.90000017633E+02 0.  0.
         12    1    1    2    0    0  0.66229978557E+00  0.90439542268E+00 -0.36932869904E+00  0.11802439470E+01  0.00000000000E+00 0. -1.
         11    1    3    3    0    0  0.37526446915E+01 -0.12606618841E+01 -0.99064393085E+01  0.10668137166E+02  0.51100000000E-03 0. -1.
        -11    1    3    3    0    0  0.29456033355E+02 -0.71883860079E+01 -0.17395761681E+02  0.34956305857E+02  0.51100000000E-03 0.  1.
         12    1    3    3    0    0 -0.33870977832E+02  0.75446524693E+01  0.27671529689E+02  0.44383313030E+02  0.00000000000E+00 0. -1.
</event>
<event>
 7    1  0.2090370E-015  0.9000772E+02  0.7816164E-02  0.1186339E+00
        -11   -1    0    0    0    0  0.00000000000E+00  0.00000000000E+00  0.45593999997E+02  0.45594000000E+02  0.51100000000E-03 0. -1.
         11   -1    0    0    0    0 -0.00000000000E+00 -0.00000000000E+00 -0.45593999997E+02  0.45594000000E+02  0.51100000000E-03 0.  1.
    9900012    2    1    2    0    0 -0.28458729562E+00  0.52562386096E+00 -0.10177347457E+01  0.90007722751E+02  0.89999983891E+02 0.  0.
         12    1    1    2    0    0  0.28458729562E+00 -0.52562386096E+00  0.10177347457E+01  0.11802772491E+01  0.00000000000E+00 0. -1.
         11    1    3    3    0    0  0.41427837449E+01  0.92114830514E+01 -0.39986852574E+01  0.10862944408E+02  0.51100000000E-03 0. -1.
        -11    1    3    3    0    0  0.29090423712E+02  0.44623190117E+01  0.23537528401E+02  0.37685279436E+02  0.51100000000E-03 0.  1.
         12    1    3    3    0    0 -0.33517794752E+02 -0.13148178202E+02 -0.20556577889E+02  0.41459498907E+02  0.00000000000E+00 0. -1.
</event>
<event>
 7    1  0.2090370E-015  0.9000767E+02  0.7816164E-02  0.1186339E+00
        -11   -1    0    0    0    0  0.00000000000E+00  0.00000000000E+00  0.45593999997E+02  0.45594000000E+02  0.51100000000E-03 0.  1.
         11   -1    0    0    0    0 -0.00000000000E+00 -0.00000000000E+00 -0.45593999997E+02  0.45594000000E+02  0.51100000000E-03 0. -1.
    9900012    2    1    2    0    0  0.54784928954E-01  0.70286554787E+00  0.94665929867E+00  0.90007667337E+02  0.89999927746E+02 0.  0.
         12    1    1    2    0    0 -0.54784928954E-01 -0.70286554787E+00 -0.94665929867E+00  0.11803326627E+01  0.00000000000E+00 0. -1.
         11    1    3    3    0    0 -0.21056200661E+02  0.10464042919E+02 -0.32565625530E+02  0.40166898646E+02  0.51100000000E-03 0. -1.
        -11    1    3    3    0    0  0.10417866742E+02 -0.96275638124E+01 -0.49276970630E+00  0.14193828048E+02  0.51100000000E-03 0.  1.
        -12    1    3    3    0    0  0.10693118847E+02 -0.13361355829E+00  0.34005054535E+02  0.35646940643E+02  0.00000000000E+00 0.  1.
</event>
<event>
 7    1  0.2090370E-015  0.9000772E+02  0.7816164E-02  0.1186339E+00
        -11   -1    0    0    0    0  0.00000000000E+00  0.00000000000E+00  0.45593999997E+02  0.45594000000E+02  0.51100000000E-03 0.  1.
         11   -1    0    0    0    0 -0.00000000000E+00 -0.00000000000E+00 -0.45593999997E+02  0.45594000000E+02  0.51100000000E-03 0. -1.
    9900012    2    1    2    0    0  0.67464114025E+00 -0.56273133755E+00 -0.78819886316E+00  0.90007718392E+02  0.89999979475E+02 0.  0.
         12    1    1    2    0    0 -0.67464114025E+00  0.56273133755E+00  0.78819886316E+00  0.11802816080E+01  0.00000000000E+00 0. -1.
         11    1    3    3    0    0  0.10226478919E+01 -0.38408225565E+01 -0.15413312363E+02  0.15917535138E+02  0.51100000000E-03 0. -1.
        -11    1    3    3    0    0  0.11402165187E+02 -0.31374693755E+02 -0.29212774688E+01  0.33509918554E+02  0.51100000000E-03 0.  1.
         12    1    3    3    0    0 -0.11750171939E+02  0.34652784974E+02  0.17546390969E+02  0.40580264700E+02  0.00000000000E+00 0. -1.
</event>
<event>
 7    1  0.2090370E-015  0.9000780E+02  0.7816164E-02  0.1186339E+00
        -11   -1    0    0    0    0  0.00000000000E+00  0.00000000000E+00  0.45593999997E+02  0.45594000000E+02  0.51100000000E-03 0.  1.
         11   -1    0    0    0    0 -0.00000000000E+00 -0.00000000000E+00 -0.45593999997E+02  0.45594000000E+02  0.51100000000E-03 0. -1.
    9900012    2    1    2    0    0 -0.48284284310E+00  0.83507539972E+00  0.67998739092E+00  0.90007800446E+02  0.90000062612E+02 0.  0.
         12    1    1    2    0    0  0.48284284310E+00 -0.83507539972E+00 -0.67998739092E+00  0.11801995535E+01  0.00000000000E+00 0. -1.
         11    1    3    3    0    0  0.41485169145E+01  0.11162555804E+02 -0.39956211254E+02  0.41693064924E+02  0.51100000000E-03 0. -1.
        -11    1    3    3    0    0  0.41391603844E+01  0.54146801094E+01  0.52459397088E+01  0.86006565485E+01  0.51100000000E-03 0.  1.
        -12    1    3    3    0    0 -0.87705201420E+01 -0.15742160513E+02  0.35390258937E+02  0.39714078974E+02  0.00000000000E+00 0.  1.
</event>
<event>
 7    1  0.2090370E-015  0.9000753E+02  0.7816164E-02  0.1186339E+00
        -11   -1    0    0    0    0  0.00000000000E+00  0.00000000000E+00  0.45593999997E+02  0.45594000000E+02  0.51100000000E-03 0. -1.
         11   -1    0    0    0    0 -0.00000000000E+00 -0.00000000000E+00 -0.45593999997E+02  0.45594000000E+02  0.51100000000E-03 0.  1.
    9900012    2    1    2    0    0  0.20540618506E+00 -0.10497739159E+01 -0.49930355772E+00  0.90007525088E+02  0.89999783619E+02 0.  0.
         12    1    1    2    0    0 -0.20540618506E+00  0.10497739159E+01  0.49930355772E+00  0.11804749121E+01  0.00000000000E+00 0. -1.
         11    1    3    3    0    0 -0.11332206351E+01  0.39982490579E+02  0.12737293670E+02  0.41977641574E+02  0.51100000000E-03 0. -1.
        -11    1    3    3    0    0 -0.30995639891E+01 -0.68059450977E+01  0.49991406184E+01  0.89955318230E+01  0.51100000000E-03 0.  1.
        -12    1    3    3    0    0  0.44381908093E+01 -0.34226319397E+02 -0.18235737846E+02  0.39034351690E+02  0.00000000000E+00 0.  1.
</event>
<event>
 7    1  0.2090370E-015  0.9000770E+02  0.7816164E-02  0.1186339E+00
        -11   -1    0    0    0    0  0.00000000000E+00  0.00000000000E+00  0.45593999997E+02  0.45594000000E+02  0.51100000000E-03 0. -1.
         11   -1    0    0    0    0 -0.00000000000E+00 -0.00000000000E+00 -0.45593999997E+02  0.45594000000E+02  0.51100000000E-03 0.  1.
    9900012    2    1    2    0    0  0.10573843582E+01  0.27016673014E+00 -0.44951241660E+00  0.90007697854E+02  0.89999958666E+02 0.  0.
         12    1    1    2    0    0 -0.10573843582E+01 -0.27016673014E+00  0.44951241660E+00  0.11803021459E+01  0.00000000000E+00 0. -1.
         11    1    3    3    0    0 -0.23610564098E+02  0.17198799722E+02  0.24283532787E+02  0.37986147656E+02  0.51100000000E-03 0. -1.
        -11    1    3    3    0    0  0.24646135805E+01  0.28342237270E+01  0.73690806668E+01  0.82710636783E+01  0.51100000000E-03 0.  1.
        -12    1    3    3    0    0  0.22203334876E+02 -0.19762856719E+02 -0.32102125870E+02  0.43750486519E+02  0.00000000000E+00 0.  1.
</event>
<event>
 7    1  0.2090370E-015  0.9000770E+02  0.7816164E-02  0.1186339E+00
        -11   -1    0    0    0    0  0.00000000000E+00  0.00000000000E+00  0.45593999997E+02  0.45594000000E+02  0.51100000000E-03 0.  1.
         11   -1    0    0    0    0 -0.00000000000E+00 -0.00000000000E+00 -0.45593999997E+02  0.45594000000E+02  0.51100000000E-03 0. -1.
    9900012    2    1    2    0    0 -0.10318949010E+01 -0.56670104619E+00 -0.84605589155E-01  0.90007696959E+02  0.89999957759E+02 0.  0.
         12    1    1    2    0    0  0.10318949010E+01  0.56670104619E+00  0.84605589155E-01  0.11803030408E+01  0.00000000000E+00 0. -1.
         11    1    3    3    0    0  0.18514666520E+02 -0.26073870873E+02 -0.22516711796E+02  0.39110637031E+02  0.51100000000E-03 0. -1.
        -11    1    3    3    0    0 -0.51774162843E+00  0.36164842274E+01 -0.80377915735E+01  0.88291057419E+01  0.51100000000E-03 0.  1.
        -12    1    3    3    0    0 -0.19028819792E+02  0.21890685599E+02  0.30469897780E+02  0.42067954186E+02  0.00000000000E+00 0.  1.
</event>
<event>
 7    1  0.2090370E-015  0.9000753E+02  0.7816164E-02  0.1186339E+00
        -11   -1    0    0    0    0  0.00000000000E+00  0.00000000000E+00  0.45593999997E+02  0.45594000000E+02  0.51100000000E-03 0.  1.
         11   -1    0    0    0    0 -0.00000000000E+00 -0.00000000000E+00 -0.45593999997E+02  0.45594000000E+02  0.51100000000E-03 0. -1.
    9900012    2    1    2    0    0 -0.87074092298E-01  0.11688853055E+01  0.14012149708E+00  0.90007530268E+02  0.89999788867E+02 0.  0.
         12    1    1    2    0    0  0.87074092298E-01 -0.11688853055E+01 -0.14012149708E+00  0.11804697323E+01  0.00000000000E+00 0. -1.
         11    1    3    3    0    0  0.52547240425E+01 -0.26383334186E+02 -0.61100392912E+01  0.27586682075E+02  0.51100000000E-03 0. -1.
        -11    1    3    3    0    0  0.18824940685E+02  0.90275876826E+01  0.20089560719E+02  0.28973542781E+02  0.51100000000E-03 0.  1.
        -12    1    3    3    0    0 -0.24166738820E+02  0.18524631809E+02 -0.13839399931E+02  0.33447305411E+02  0.00000000000E+00 0.  1.
</event>
<event>
 7    1  0.2090370E-015  0.9000776E+02  0.7816164E-02  0.1186339E+00
        -11   -1    0    0    0    0  0.00000000000E+00  0.00000000000E+00  0.45593999997E+02  0.45594000000E+02  0.51100000000E-03 0.  1.
         11   -1    0    0    0    0 -0.00000000000E+00 -0.00000000000E+00 -0.45593999997E+02  0.45594000000E+02  0.51100000000E-03 0. -1.
    9900012    2    1    2    0    0 -0.32499703309E+00 -0.20447057107E+00  0.11160359109E+01  0.90007759584E+02  0.90000021210E+02 0.  0.
         12    1    1    2    0    0  0.32499703309E+00  0.20447057107E+00 -0.11160359109E+01  0.11802404163E+01  0.00000000000E+00 0. -1.
         11    1    3    3    0    0  0.26340053175E+01 -0.33138761067E+01  0.77797342266E+01  0.88568630880E+01  0.51100000000E-03 0. -1.
        -11    1    3    3    0    0  0.15913806666E+02  0.36936926950E+02 -0.12182173311E+02  0.42023697624E+02  0.51100000000E-03 0.  1.
         12    1    3    3    0    0 -0.18872809017E+02 -0.33827521415E+02  0.55184749957E+01  0.39127198872E+02  0.00000000000E+00 0. -1.
</event>
<event>
 7    1  0.2090370E-015  0.9000815E+02  0.7816164E-02  0.1186338E+00
        -11   -1    0    0    0    0  0.00000000000E+00  0.00000000000E+00  0.45593999997E+02  0.45594000000E+02  0.51100000000E-03 0. -1.
         11   -1    0    0    0    0 -0.00000000000E+00 -0.00000000000E+00 -0.45593999997E+02  0.45594000000E+02  0.51100000000E-03 0.  1.
    9900012    2    1    2    0    0 -0.18435674396E-01 -0.98903411140E+00  0.64304942045E+00  0.90008152169E+02  0.90000418976E+02 0.  0.
         12    1    1    2    0    0  0.18435674396E-01  0.98903411140E+00 -0.64304942045E+00  0.11798478312E+01  0.00000000000E+00 0. -1.
         11    1    3    3    0    0  0.38626750955E+02 -0.71804952522E+01  0.10142305399E+02  0.40576492708E+02  0.51100000000E-03 0. -1.
        -11    1    3    3    0    0  0.86947523357E+00  0.15786577281E+01 -0.94788466529E+01  0.96486621629E+01  0.51100000000E-03 0.  1.
        -12    1    3    3    0    0 -0.39514661863E+02  0.46128034127E+01 -0.20409326104E-01  0.39782997298E+02  0.00000000000E+00 0.  1.
</event>
<event>
 7    1  0.2090370E-015  0.9000780E+02  0.7816164E-02  0.1186339E+00
        -11   -1    0    0    0    0  0.00000000000E+00  0.00000000000E+00  0.45593999997E+02  0.45594000000E+02  0.51100000000E-03 0.  1.
         11   -1    0    0    0    0 -0.00000000000E+00 -0.00000000000E+00 -0.45593999997E+02  0.45594000000E+02  0.51100000000E-03 0. -1.
    9900012    2    1    2    0    0 -0.10944594148E+01 -0.39758546624E+00  0.19223629169E+00  0.90007800692E+02  0.90000062862E+02 0.  0.
         12    1    1    2    0    0  0.10944594148E+01  0.39758546624E+00 -0.19223629169E+00  0.11801993075E+01  0.00000000000E+00 0. -1.
         11    1    3    3    0    0  0.11247180503E+01  0.86833284461E+01 -0.34518191638E+02  0.35611384946E+02  0.51100000000E-03 0. -1.
        -11    1    3    3    0    0  0.65283451341E+01  0.47650641390E+01 -0.62928428872E+01  0.10243290404E+02  0.51100000000E-03 0.  1.
        -12    1    3    3    0    0 -0.87475225992E+01 -0.13845978051E+02  0.41003270817E+02  0.44153125342E+02  0.00000000000E+00 0.  1.
</event>
<event>
 7    1  0.2090370E-015  0.9000781E+02  0.7816164E-02  0.1186339E+00
        -11   -1    0    0    0    0  0.00000000000E+00  0.00000000000E+00  0.45593999997E+02  0.45594000000E+02  0.51100000000E-03 0. -1.
         11   -1    0    0    0    0 -0.00000000000E+00 -0.00000000000E+00 -0.45593999997E+02  0.45594000000E+02  0.51100000000E-03 0.  1.
    9900012    2    1    2    0    0 -0.10772590133E+01 -0.44804386103E+00  0.17783732616E+00  0.90007806627E+02  0.90000068874E+02 0.  0.
         12    1    1    2    0    0  0.10772590133E+01  0.44804386103E+00 -0.17783732616E+00  0.11801933730E+01  0.00000000000E+00 0. -1.
         11    1    3    3    0    0  0.20363621401E+02  0.31699218087E+02  0.69406256844E+01  0.38310439687E+02  0.51100000000E-03 0. -1.
        -11    1    3    3    0    0  0.44565736356E+01 -0.76298052734E+01  0.90843452436E+01  0.12672817597E+02  0.51100000000E-03 0.  1.
        -12    1    3    3    0    0 -0.25897454050E+02 -0.24517456674E+02 -0.15847133602E+02  0.39024549343E+02  0.00000000000E+00 0.  1.
</event>
<event>
 7    1  0.2090370E-015  0.9000778E+02  0.7816164E-02  0.1186339E+00
        -11   -1    0    0    0    0  0.00000000000E+00  0.00000000000E+00  0.45593999997E+02  0.45594000000E+02  0.51100000000E-03 0.  1.
         11   -1    0    0    0    0 -0.00000000000E+00 -0.00000000000E+00 -0.45593999997E+02  0.45594000000E+02  0.51100000000E-03 0. -1.
    9900012    2    1    2    0    0  0.95197195501E+00 -0.23444482406E+00 -0.65704043284E+00  0.90007780906E+02  0.90000042814E+02 0.  0.
         12    1    1    2    0    0 -0.95197195501E+00  0.23444482406E+00  0.65704043284E+00  0.11802190937E+01  0.00000000000E+00 0. -1.
         11    1    3    3    0    0 -0.17430583657E+01  0.72914488479E+01 -0.56927062270E+01  0.94133088346E+01  0.51100000000E-03 0. -1.
        -11    1    3    3    0    0  0.36886147070E+02 -0.46733620455E+01  0.21055414874E+02  0.42728897181E+02  0.51100000000E-03 0.  1.
         12    1    3    3    0    0 -0.34191116750E+02 -0.28525316265E+01 -0.16019749079E+02  0.37865574891E+02  0.00000000000E+00 0. -1.
</event>
<event>
 7    1  0.2090370E-015  0.9000771E+02  0.7816164E-02  0.1186339E+00
        -11   -1    0    0    0    0  0.00000000000E+00  0.00000000000E+00  0.45593999997E+02  0.45594000000E+02  0.51100000000E-03 0. -1.
         11   -1    0    0    0    0 -0.00000000000E+00 -0.00000000000E+00 -0.45593999997E+02  0.45594000000E+02  0.51100000000E-03 0.  1.
    9900012    2    1    2    0    0  0.28823435766E+00 -0.11167562740E+01  0.25071047299E+00  0.90007712170E+02  0.89999973171E+02 0.  0.
         12    1    1    2    0    0 -0.28823435766E+00  0.11167562740E+01 -0.25071047299E+00  0.11802878300E+01  0.00000000000E+00 0. -1.
         11    1    3    3    0    0 -0.40688847564E+01  0.16969546494E+02  0.33913211397E+02  0.38139575756E+02  0.51100000000E-03 0. -1.
        -11    1    3    3    0    0  0.79336252044E+01 -0.46507147540E+00  0.48883455999E+01  0.93303067112E+01  0.51100000000E-03 0.  1.
        -12    1    3    3    0    0 -0.35765060903E+01 -0.17621231293E+02 -0.38550846524E+02  0.42537829702E+02  0.00000000000E+00 0.  1.
</event>
<event>
 7    1  0.2090370E-015  0.9000771E+02  0.7816164E-02  0.1186339E+00
        -11   -1    0    0    0    0  0.00000000000E+00  0.00000000000E+00  0.45593999997E+02  0.45594000000E+02  0.51100000000E-03 0.  1.
         11   -1    0    0    0    0 -0.00000000000E+00 -0.00000000000E+00 -0.45593999997E+02  0.45594000000E+02  0.51100000000E-03 0. -1.
    9900012    2    1    2    0    0  0.16085391018E+00  0.11616932090E+00  0.11634903190E+01  0.90007712317E+02  0.89999973320E+02 0.  0.
         12    1    1    2    0    0 -0.16085391018E+00 -0.11616932090E+00 -0.11634903190E+01  0.11802876827E+01  0.00000000000E+00 0. -1.
         11    1    3    3    0    0  0.31303920921E-01 -0.13882375185E+02  0.27042102788E+01  0.14143340277E+02  0.51100000000E-03 0. -1.
        -11    1    3    3    0    0 -0.16755829807E+02 -0.20466388781E+01  0.31323611202E+02  0.35582512309E+02  0.51100000000E-03 0.  1.
         12    1    3    3    0    0  0.16885379796E+02  0.16045183384E+02 -0.32864331162E+02  0.40281859731E+02  0.00000000000E+00 0. -1.
</event>
<event>
 7    1  0.2090370E-015  0.9000771E+02  0.7816164E-02  0.1186339E+00
        -11   -1    0    0    0    0  0.00000000000E+00  0.00000000000E+00  0.45593999997E+02  0.45594000000E+02  0.51100000000E-03 0. -1.
         11   -1    0    0    0    0 -0.00000000000E+00 -0.00000000000E+00 -0.45593999997E+02  0.45594000000E+02  0.51100000000E-03 0.  1.
    9900012    2    1    2    0    0  0.25197386547E+00 -0.57007786382E+00 -0.10023031331E+01  0.90007707168E+02  0.89999968102E+02 0.  0.
         12    1    1    2    0    0 -0.25197386547E+00  0.57007786382E+00  0.10023031331E+01  0.11802928325E+01  0.00000000000E+00 0. -1.
         11    1    3    3    0    0 -0.72090999589E+01 -0.56756075255E+00 -0.64500144932E+01  0.96899914679E+01  0.51100000000E-03 0. -1.
        -11    1    3    3    0    0 -0.14885060709E+02 -0.35206414994E+02 -0.30827273701E+00  0.38225014341E+02  0.51100000000E-03 0.  1.
         12    1    3    3    0    0  0.22346134533E+02  0.35203897883E+02  0.57559840971E+01  0.42092701358E+02  0.00000000000E+00 0. -1.
</event>
<event>
 7    1  0.2090370E-015  0.9000772E+02  0.7816164E-02  0.1186339E+00
        -11   -1    0    0    0    0  0.00000000000E+00  0.00000000000E+00  0.45593999997E+02  0.45594000000E+02  0.51100000000E-03 0. -1.
         11   -1    0    0    0    0 -0.00000000000E+00 -0.00000000000E+00 -0.45593999997E+02  0.45594000000E+02  0.51100000000E-03 0.  1.
    9900012    2    1    2    0    0 -0.72292506777E-01  0.11306709425E+01 -0.33078830739E+00  0.90007718724E+02  0.89999979811E+02 0.  0.
         12    1    1    2    0    0  0.72292506777E-01 -0.11306709425E+01  0.33078830739E+00  0.11802812763E+01  0.00000000000E+00 0. -1.
         11    1    3    3    0    0  0.20093358847E+02 -0.13076494121E+02  0.34677950699E+02  0.42158012681E+02  0.51100000000E-03 0. -1.
        -11    1    3    3    0    0  0.26582714287E+01  0.82601345888E+01 -0.64582479024E+01  0.10816894039E+02  0.51100000000E-03 0.  1.
        -12    1    3    3    0    0 -0.22823922782E+02  0.59470304753E+01 -0.28550491104E+02  0.37032812004E+02  0.00000000000E+00 0.  1.
</event>
<event>
 7    1  0.2090370E-015  0.9000844E+02  0.7816164E-02  0.1186338E+00
        -11   -1    0    0    0    0  0.00000000000E+00  0.00000000000E+00  0.45593999997E+02  0.45594000000E+02  0.51100000000E-03 0.  1.
         11   -1    0    0    0    0 -0.00000000000E+00 -0.00000000000E+00 -0.45593999997E+02  0.45594000000E+02  0.51100000000E-03 0. -1.
    9900012    2    1    2    0    0  0.54371471756E-01 -0.64843159888E+00  0.98384603786E+00  0.90008435325E+02  0.90000705869E+02 0.  0.
         12    1    1    2    0    0 -0.54371471756E-01  0.64843159888E+00 -0.98384603786E+00  0.11795646746E+01  0.00000000000E+00 0. -1.
         11    1    3    3    0    0  0.32139476557E+02  0.24709268926E+02 -0.54908649024E+01  0.40910188485E+02  0.51100000000E-03 0. -1.
        -11    1    3    3    0    0 -0.20440005390E+01 -0.13051365027E+01 -0.77109257206E+01  0.80832972990E+01  0.51100000000E-03 0.  1.
        -12    1    3    3    0    0 -0.30041104546E+02 -0.24052564023E+02  0.14185636661E+02  0.41014949542E+02  0.00000000000E+00 0.  1.
</event>
<event>
 7    1  0.2090370E-015  0.9000755E+02  0.7816164E-02  0.1186339E+00
        -11   -1    0    0    0    0  0.00000000000E+00  0.00000000000E+00  0.45593999997E+02  0.45594000000E+02  0.51100000000E-03 0.  1.
         11   -1    0    0    0    0 -0.00000000000E+00 -0.00000000000E+00 -0.45593999997E+02  0.45594000000E+02  0.51100000000E-03 0. -1.
    9900012    2    1    2    0    0 -0.86923485940E+00 -0.77519739565E+00  0.19226632666E+00  0.90007548144E+02  0.89999806980E+02 0.  0.
         12    1    1    2    0    0  0.86923485940E+00  0.77519739565E+00 -0.19226632666E+00  0.11804518556E+01  0.00000000000E+00 0. -1.
         11    1    3    3    0    0  0.31580779384E+01  0.63295735173E+01  0.21609368882E+01  0.73963913953E+01  0.51100000000E-03 0. -1.
        -11    1    3    3    0    0  0.45587168387E+01 -0.50585648005E+01  0.39566646599E+02  0.40148356135E+02  0.51100000000E-03 0.  1.
         12    1    3    3    0    0 -0.85860296366E+01 -0.20462061124E+01 -0.41535317160E+02  0.42462800614E+02  0.00000000000E+00 0. -1.
</event>
<event>
 7    1  0.2090370E-015  0.9000786E+02  0.7816164E-02  0.1186339E+00
        -11   -1    0    0    0    0  0.00000000000E+00  0.00000000000E+00  0.45593999997E+02  0.45594000000E+02  0.51100000000E-03 0.  1.
         11   -1    0    0    0    0 -0.00000000000E+00 -0.00000000000E+00 -0.45593999997E+02  0.45594000000E+02  0.51100000000E-03 0. -1.
    9900012    2    1    2    0    0 -0.57235656536E+00  0.10203580281E+01  0.15497555846E+00  0.90007855955E+02  0.90000118853E+02 0.  0.
         12    1    1    2    0    0  0.57235656536E+00 -0.10203580281E+01 -0.15497555846E+00  0.11801440451E+01  0.00000000000E+00 0. -1.
         11    1    3    3    0    0 -0.70944151436E+01 -0.54479197391E+01  0.16418107377E-01  0.89448770550E+01  0.51100000000E-03 0. -1.
        -11    1    3    3    0    0 -0.53809052841E+01 -0.36125134085E+02  0.36097940150E+01  0.36701635760E+02  0.51100000000E-03 0.  1.
         12    1    3    3    0    0  0.11902963862E+02  0.42593411852E+02 -0.34712365639E+01  0.44361343140E+02  0.00000000000E+00 0. -1.
</event>
<event>
 7    1  0.2090370E-015  0.9000774E+02  0.7816164E-02  0.1186339E+00
        -11   -1    0    0    0    0  0.00000000000E+00  0.00000000000E+00  0.45593999997E+02  0.45594000000E+02  0.51100000000E-03 0. -1.
         11   -1    0    0    0    0 -0.00000000000E+00 -0.00000000000E+00 -0.45593999997E+02  0.45594000000E+02  0.51100000000E-03 0.  1.
    9900012    2    1    2    0    0  0.69863526613E+00  0.28860589674E+00 -0.90644226633E+00  0.90007736393E+02  0.89999997714E+02 0.  0.
         12    1    1    2    0    0 -0.69863526613E+00 -0.28860589674E+00  0.90644226633E+00  0.11802636065E+01  0.00000000000E+00 0. -1.
         11    1    3    3    0    0  0.50948582282E+00  0.58758654781E+01  0.55759176500E+01  0.81164172404E+01  0.51100000000E-03 0. -1.
        -11    1    3    3    0    0  0.29248649547E+02  0.25606603331E+02 -0.53831085107E+01  0.39244865804E+02  0.51100000000E-03 0.  1.
         12    1    3    3    0    0 -0.29059500104E+02 -0.31193862912E+02 -0.10992514056E+01  0.42646453349E+02  0.00000000000E+00 0. -1.
</event>
<event>
 7    1  0.2090370E-015  0.9000736E+02  0.7816164E-02  0.1186340E+00
        -11   -1    0    0    0    0  0.00000000000E+00  0.00000000000E+00  0.45593999997E+02  0.45594000000E+02  0.51100000000E-03 0.  1.
         11   -1    0    0    0    0 -0.00000000000E+00 -0.00000000000E+00 -0.45593999997E+02  0.45594000000E+02  0.51100000000E-03 0. -1.
    9900012    2    1    2    0    0  0.16128205626E+00 -0.13924302673E+00  0.11612547910E+01  0.90007358983E+02  0.89999615320E+02 0.  0.
         12    1    1    2    0    0 -0.16128205626E+00  0.13924302673E+00 -0.11612547910E+01  0.11806410173E+01  0.00000000000E+00 0. -1.
         11    1    3    3    0    0 -0.74655812060E+01 -0.56780136415E+01  0.10898136403E+02  0.14378599340E+02  0.51100000000E-03 0. -1.
        -11    1    3    3    0    0 -0.23291913444E+02 -0.22730087900E+02  0.31254849827E+00  0.32546394803E+02  0.51100000000E-03 0.  1.
         12    1    3    3    0    0  0.30918776706E+02  0.28268858515E+02 -0.10049430110E+02  0.43082364841E+02  0.00000000000E+00 0. -1.
</event>
<event>
 7    1  0.2090370E-015  0.9000740E+02  0.7816164E-02  0.1186340E+00
        -11   -1    0    0    0    0  0.00000000000E+00  0.00000000000E+00  0.45593999997E+02  0.45594000000E+02  0.51100000000E-03 0.  1.
         11   -1    0    0    0    0 -0.00000000000E+00 -0.00000000000E+00 -0.45593999997E+02  0.45594000000E+02  0.51100000000E-03 0. -1.
    9900012    2    1    2    0    0  0.10055435507E+01 -0.26079909532E+00 -0.56095963546E+00  0.90007402815E+02  0.89999659732E+02 0.  0.
         12    1    1    2    0    0 -0.10055435507E+01  0.26079909532E+00  0.56095963546E+00  0.11805971850E+01  0.00000000000E+00 0. -1.
         11    1    3    3    0    0 -0.21760823429E+01 -0.31360258607E+01  0.43893153531E+01  0.58168790680E+01  0.51100000000E-03 0. -1.
        -11    1    3    3    0    0 -0.16945182486E+02  0.12106579143E+02  0.33718091871E+02  0.39631025570E+02  0.51100000000E-03 0.  1.
         12    1    3    3    0    0  0.20126808379E+02 -0.92313523781E+01 -0.38668366859E+02  0.44559498177E+02  0.00000000000E+00 0. -1.
</event>
<event>
 7    1  0.2090370E-015  0.9000749E+02  0.7816164E-02  0.1186340E+00
        -11   -1    0    0    0    0  0.00000000000E+00  0.00000000000E+00  0.45593999997E+02  0.45594000000E+02  0.51100000000E-03 0. -1.
         11   -1    0    0    0    0 -0.00000000000E+00 -0.00000000000E+00 -0.45593999997E+02  0.45594000000E+02  0.51100000000E-03 0.  1.
    9900012    2    1    2    0    0  0.10377513798E+00 -0.48333937698E+00 -0.10720180609E+01  0.90007487842E+02  0.89999745881E+02 0.  0.
         12    1    1    2    0    0 -0.10377513798E+00  0.48333937698E+00  0.10720180609E+01  0.11805121581E+01  0.00000000000E+00 0. -1.
         11    1    3    3    0    0  0.82896251834E+01 -0.31648944455E+02 -0.20781162329E+02  0.38758615543E+02  0.51100000000E-03 0. -1.
        -11    1    3    3    0    0  0.64626073499E+01 -0.27620780669E+01 -0.32494879093E+01  0.77429671922E+01  0.51100000000E-03 0.  1.
        -12    1    3    3    0    0 -0.14648457395E+02  0.33927683145E+02  0.22958632178E+02  0.43505905106E+02  0.00000000000E+00 0.  1.
</event>
<event>
 7    1  0.2090370E-015  0.9000756E+02  0.7816164E-02  0.1186339E+00
        -11   -1    0    0    0    0  0.00000000000E+00  0.00000000000E+00  0.45593999997E+02  0.45594000000E+02  0.51100000000E-03 0.  1.
         11   -1    0    0    0    0 -0.00000000000E+00 -0.00000000000E+00 -0.45593999997E+02  0.45594000000E+02  0.51100000000E-03 0. -1.
    9900012    2    1    2    0    0 -0.84939687053E+00 -0.49092504357E+00 -0.65647523660E+00  0.90007558482E+02  0.89999817453E+02 0.  0.
         12    1    1    2    0    0  0.84939687053E+00  0.49092504357E+00  0.65647523660E+00  0.11804415184E+01  0.00000000000E+00 0. -1.
         11    1    3    3    0    0  0.31983694666E+01 -0.98109867675E+01 -0.17276888436E+01  0.10462788232E+02  0.51100000000E-03 0. -1.
        -11    1    3    3    0    0  0.30770315904E+02 -0.23898962302E+01  0.21403850917E+02  0.37558604596E+02  0.51100000000E-03 0.  1.
         12    1    3    3    0    0 -0.34818082241E+02  0.11709957954E+02 -0.20332637310E+02  0.41986165653E+02  0.00000000000E+00 0. -1.
</event>
<event>
 7    1  0.2090370E-015  0.9000771E+02  0.7816164E-02  0.1186339E+00
        -11   -1    0    0    0    0  0.00000000000E+00  0.00000000000E+00  0.45593999997E+02  0.45594000000E+02  0.51100000000E-03 0.  1.
         11   -1    0    0    0    0 -0.00000000000E+00 -0.00000000000E+00 -0.45593999997E+02  0.45594000000E+02  0.51100000000E-03 0. -1.
    9900012    2    1    2    0    0 -0.44688335993E+00  0.80265669993E+00  0.74103400696E+00  0.90007706005E+02  0.89999966924E+02 0.  0.
         12    1    1    2    0    0  0.44688335993E+00 -0.80265669993E+00 -0.74103400696E+00  0.11802939951E+01  0.00000000000E+00 0. -1.
         11    1    3    3    0    0  0.30217241210E+01 -0.12704872406E+02 -0.66173310199E+01  0.14640138988E+02  0.51100000000E-03 0. -1.
        -11    1    3    3    0    0 -0.22709288006E+02  0.12484553523E+02  0.33836935901E+02  0.42620582702E+02  0.51100000000E-03 0.  1.
         12    1    3    3    0    0  0.19240680526E+02  0.10229755824E+01 -0.26478570874E+02  0.32746984314E+02  0.00000000000E+00 0. -1.
</event>
<event>
 7    1  0.2090370E-015  0.9000796E+02  0.7816164E-02  0.1186339E+00
        -11   -1    0    0    0    0  0.00000000000E+00  0.00000000000E+00  0.45593999997E+02  0.45594000000E+02  0.51100000000E-03 0. -1.
         11   -1    0    0    0    0 -0.00000000000E+00 -0.00000000000E+00 -0.45593999997E+02  0.45594000000E+02  0.51100000000E-03 0.  1.
    9900012    2    1    2    0    0  0.10027230726E+01  0.56641574197E+00 -0.25730009017E+00  0.90007964539E+02  0.90000228871E+02 0.  0.
         12    1    1    2    0    0 -0.10027230726E+01 -0.56641574197E+00  0.25730009017E+00  0.11800354611E+01  0.00000000000E+00 0. -1.
         11    1    3    3    0    0  0.29028008937E+01 -0.73398801896E+01 -0.23281725779E+01  0.82292455328E+01  0.51100000000E-03 0. -1.
        -11    1    3    3    0    0 -0.12790882678E+02 -0.35075484244E+02  0.27201482814E+01  0.37433881465E+02  0.51100000000E-03 0.  1.
         12    1    3    3    0    0  0.10890804857E+02  0.42981780175E+02 -0.64927579364E+00  0.44344837541E+02  0.00000000000E+00 0. -1.
</event>
<event>
 7    1  0.2090370E-015  0.9000774E+02  0.7816164E-02  0.1186339E+00
        -11   -1    0    0    0    0  0.00000000000E+00  0.00000000000E+00  0.45593999997E+02  0.45594000000E+02  0.51100000000E-03 0. -1.
         11   -1    0    0    0    0 -0.00000000000E+00 -0.00000000000E+00 -0.45593999997E+02  0.45594000000E+02  0.51100000000E-03 0.  1.
    9900012    2    1    2    0    0  0.70501617927E+00  0.44826808615E-01 -0.94549195709E+00  0.90007740581E+02  0.90000001956E+02 0.  0.
         12    1    1    2    0    0 -0.70501617927E+00 -0.44826808615E-01  0.94549195709E+00  0.11802594192E+01  0.00000000000E+00 0. -1.
         11    1    3    3    0    0  0.11410147288E+02  0.34714804218E+02  0.12062165430E+02  0.38481228257E+02  0.51100000000E-03 0. -1.
        -11    1    3    3    0    0  0.81899376559E+01  0.21523869950E+01 -0.20258188849E+01  0.87069966693E+01  0.51100000000E-03 0.  1.
        -12    1    3    3    0    0 -0.18895068765E+02 -0.36822364405E+02 -0.10981838503E+02  0.42819515654E+02  0.00000000000E+00 0.  1.
</event>
<event>
 7    1  0.2090370E-015  0.9000774E+02  0.7816164E-02  0.1186339E+00
        -11   -1    0    0    0    0  0.00000000000E+00  0.00000000000E+00  0.45593999997E+02  0.45594000000E+02  0.51100000000E-03 0.  1.
         11   -1    0    0    0    0 -0.00000000000E+00 -0.00000000000E+00 -0.45593999997E+02  0.45594000000E+02  0.51100000000E-03 0. -1.
    9900012    2    1    2    0    0 -0.65833225594E+00 -0.29846681030E+00 -0.93301961233E+00  0.90007741811E+02  0.90000003203E+02 0.  0.
         12    1    1    2    0    0  0.65833225594E+00  0.29846681030E+00  0.93301961233E+00  0.11802581892E+01  0.00000000000E+00 0. -1.
         11    1    3    3    0    0  0.76710190391E+00 -0.96303189462E+01  0.45839609163E+01  0.10693184104E+02  0.51100000000E-03 0. -1.
        -11    1    3    3    0    0  0.24635104815E+02 -0.23666427467E+02 -0.13102534269E+02  0.36587765480E+02  0.51100000000E-03 0.  1.
         12    1    3    3    0    0 -0.26060538975E+02  0.32998279603E+02  0.75855537401E+01  0.42726792227E+02  0.00000000000E+00 0. -1.
</event>
<event>
 7    1  0.2090370E-015  0.9000757E+02  0.7816164E-02  0.1186339E+00
        -11   -1    0    0    0    0  0.00000000000E+00  0.00000000000E+00  0.45593999997E+02  0.45594000000E+02  0.51100000000E-03 0.  1.
         11   -1    0    0    0    0 -0.00000000000E+00 -0.00000000000E+00 -0.45593999997E+02  0.45594000000E+02  0.51100000000E-03 0. -1.
    9900012    2    1    2    0    0 -0.22813219682E+00 -0.96198370766E+00  0.64494320880E+00  0.90007572664E+02  0.89999831823E+02 0.  0.
         12    1    1    2    0    0  0.22813219682E+00  0.96198370766E+00 -0.64494320880E+00  0.11804273360E+01  0.00000000000E+00 0. -1.
         11    1    3    3    0    0 -0.62553132159E+01 -0.25910435759E+02 -0.26916567714E+02  0.37881146266E+02  0.51100000000E-03 0. -1.
        -11    1    3    3    0    0 -0.64908999452E+01  0.45986765595E+01 -0.66704513253E+01  0.10381451216E+02  0.51100000000E-03 0.  1.
        -12    1    3    3    0    0  0.12518080964E+02  0.20349775492E+02  0.34231962248E+02  0.41744975182E+02  0.00000000000E+00 0.  1.
</event>
<event>
 7    1  0.2090370E-015  0.9000773E+02  0.7816164E-02  0.1186339E+00
        -11   -1    0    0    0    0  0.00000000000E+00  0.00000000000E+00  0.45593999997E+02  0.45594000000E+02  0.51100000000E-03 0. -1.
         11   -1    0    0    0    0 -0.00000000000E+00 -0.00000000000E+00 -0.45593999997E+02  0.45594000000E+02  0.51100000000E-03 0.  1.
    9900012    2    1    2    0    0  0.28488754482E+00 -0.10785047193E+01 -0.38562208414E+00  0.90007729804E+02  0.89999991038E+02 0.  0.
         12    1    1    2    0    0 -0.28488754482E+00  0.10785047193E+01  0.38562208414E+00  0.11802701956E+01  0.00000000000E+00 0. -1.
         11    1    3    3    0    0 -0.32769533724E+02 -0.12688895566E+02  0.15430696732E+02  0.38379119493E+02  0.51100000000E-03 0. -1.
        -11    1    3    3    0    0 -0.69276615150E+01  0.51779704434E+01 -0.29184327276E+01  0.91280404154E+01  0.51100000000E-03 0.  1.
        -12    1    3    3    0    0  0.39982082783E+02  0.64324204038E+01 -0.12897886088E+02  0.42500569896E+02  0.00000000000E+00 0.  1.
</event>
<event>
 7    1  0.2090370E-015  0.9000775E+02  0.7816164E-02  0.1186339E+00
        -11   -1    0    0    0    0  0.00000000000E+00  0.00000000000E+00  0.45593999997E+02  0.45594000000E+02  0.51100000000E-03 0.  1.
         11   -1    0    0    0    0 -0.00000000000E+00 -0.00000000000E+00 -0.45593999997E+02  0.45594000000E+02  0.51100000000E-03 0. -1.
    9900012    2    1    2    0    0  0.68182624646E+00  0.64830193880E+00  0.71260007116E+00  0.90007753714E+02  0.90000015263E+02 0.  0.
         12    1    1    2    0    0 -0.68182624646E+00 -0.64830193880E+00 -0.71260007116E+00  0.11802462860E+01  0.00000000000E+00 0. -1.
         11    1    3    3    0    0  0.66865934750E+01 -0.40120225455E+01 -0.74138872598E+01  0.10759766808E+02  0.51100000000E-03 0. -1.
        -11    1    3    3    0    0  0.80016395787E+01  0.39620355308E+02  0.96482149217E+01  0.41555828017E+02  0.51100000000E-03 0.  1.
         12    1    3    3    0    0 -0.14006406807E+02 -0.34960030824E+02 -0.15217275908E+01  0.37692158889E+02  0.00000000000E+00 0. -1.
</event>
<event>
 7    1  0.2090370E-015  0.9000787E+02  0.7816164E-02  0.1186339E+00
        -11   -1    0    0    0    0  0.00000000000E+00  0.00000000000E+00  0.45593999997E+02  0.45594000000E+02  0.51100000000E-03 0.  1.
         11   -1    0    0    0    0 -0.00000000000E+00 -0.00000000000E+00 -0.45593999997E+02  0.45594000000E+02  0.51100000000E-03 0. -1.
    9900012    2    1    2    0    0 -0.53570256098E+00 -0.13513000987E+00  0.10428197555E+01  0.90007868484E+02  0.90000131548E+02 0.  0.
         12    1    1    2    0    0  0.53570256098E+00  0.13513000987E+00 -0.10428197555E+01  0.11801315163E+01  0.00000000000E+00 0. -1.
         11    1    3    3    0    0  0.12102802037E+02 -0.51473486116E+01 -0.12286734509E+01  0.13209188226E+02  0.51100000000E-03 0. -1.
        -11    1    3    3    0    0 -0.19995422223E+01  0.31829580211E+01  0.38660195206E+02  0.38842503581E+02  0.51100000000E-03 0.  1.
         12    1    3    3    0    0 -0.10638962376E+02  0.18292605806E+01 -0.36388701999E+02  0.37956176676E+02  0.00000000000E+00 0. -1.
</event>
<event>
 7    1  0.2090370E-015  0.9000770E+02  0.7816164E-02  0.1186339E+00
        -11   -1    0    0    0    0  0.00000000000E+00  0.00000000000E+00  0.45593999997E+02  0.45594000000E+02  0.51100000000E-03 0. -1.
         11   -1    0    0    0    0 -0.00000000000E+00 -0.00000000000E+00 -0.45593999997E+02  0.45594000000E+02  0.51100000000E-03 0.  1.
    9900012    2    1    2    0    0 -0.44061692630E+00  0.55905235089E+00  0.94150685268E+00  0.90007695819E+02  0.89999956603E+02 0.  0.
         12    1    1    2    0    0  0.44061692630E+00 -0.55905235089E+00 -0.94150685268E+00  0.11803041813E+01  0.00000000000E+00 0. -1.
         11    1    3    3    0    0 -0.49308676945E+01 -0.21288128595E+01  0.30869120036E+01  0.61947014771E+01  0.51100000000E-03 0. -1.
        -11    1    3    3    0    0 -0.16170570321E+02  0.32559209470E+02  0.19781444482E+02  0.41387135826E+02  0.51100000000E-03 0.  1.
         12    1    3    3    0    0  0.20660821089E+02 -0.29871344259E+02 -0.21926849633E+02  0.42425858516E+02  0.00000000000E+00 0. -1.
</event>
<event>
 7    1  0.2090370E-015  0.9000773E+02  0.7816164E-02  0.1186339E+00
        -11   -1    0    0    0    0  0.00000000000E+00  0.00000000000E+00  0.45593999997E+02  0.45594000000E+02  0.51100000000E-03 0. -1.
         11   -1    0    0    0    0 -0.00000000000E+00 -0.00000000000E+00 -0.45593999997E+02  0.45594000000E+02  0.51100000000E-03 0.  1.
    9900012    2    1    2    0    0 -0.60755054499E+00 -0.94974220657E+00 -0.34917025395E+00  0.90007725545E+02  0.89999986722E+02 0.  0.
         12    1    1    2    0    0  0.60755054499E+00  0.94974220657E+00  0.34917025395E+00  0.11802744553E+01  0.00000000000E+00 0. -1.
         11    1    3    3    0    0  0.85175563534E+01 -0.18518082191E+02  0.30371273701E+02  0.36577074797E+02  0.51100000000E-03 0. -1.
        -11    1    3    3    0    0 -0.58732934140E+01 -0.46023869196E+01  0.65592002136E+01  0.99348200079E+01  0.51100000000E-03 0.  1.
        -12    1    3    3    0    0 -0.32518134844E+01  0.22170726904E+02 -0.37279644168E+02  0.43495830739E+02  0.00000000000E+00 0.  1.
</event>
<event>
 7    1  0.2090370E-015  0.9000779E+02  0.7816164E-02  0.1186339E+00
        -11   -1    0    0    0    0  0.00000000000E+00  0.00000000000E+00  0.45593999997E+02  0.45594000000E+02  0.51100000000E-03 0. -1.
         11   -1    0    0    0    0 -0.00000000000E+00 -0.00000000000E+00 -0.45593999997E+02  0.45594000000E+02  0.51100000000E-03 0.  1.
    9900012    2    1    2    0    0 -0.23269654145E+00 -0.11558311750E+01 -0.52883703231E-01  0.90007792361E+02  0.90000054420E+02 0.  0.
         12    1    1    2    0    0  0.23269654145E+00  0.11558311750E+01  0.52883703231E-01  0.11802076392E+01  0.00000000000E+00 0. -1.
         11    1    3    3    0    0  0.58554001339E+01 -0.17743925992E+01 -0.98578264504E+01  0.11602194724E+02  0.51100000000E-03 0. -1.
        -11    1    3    3    0    0 -0.23031431617E+02  0.23553127935E+02 -0.18871954937E+02  0.37965080815E+02  0.51100000000E-03 0.  1.
         12    1    3    3    0    0  0.16943334942E+02 -0.22934566511E+02  0.28676897684E+02  0.40440516822E+02  0.00000000000E+00 0. -1.
</event>
<event>
 7    1  0.2090370E-015  0.9000766E+02  0.7816164E-02  0.1186339E+00
        -11   -1    0    0    0    0  0.00000000000E+00  0.00000000000E+00  0.45593999997E+02  0.45594000000E+02  0.51100000000E-03 0. -1.
         11   -1    0    0    0    0 -0.00000000000E+00 -0.00000000000E+00 -0.45593999997E+02  0.45594000000E+02  0.51100000000E-03 0.  1.
    9900012    2    1    2    0    0 -0.39321315332E+00  0.39501100073E+00 -0.10404525317E+01  0.90007664562E+02  0.89999924935E+02 0.  0.
         12    1    1    2    0    0  0.39321315332E+00 -0.39501100073E+00  0.10404525317E+01  0.11803354376E+01  0.00000000000E+00 0. -1.
         11    1    3    3    0    0  0.35997965763E+01 -0.35342301897E+01  0.33713032823E+02  0.34088383664E+02  0.51100000000E-03 0. -1.
        -11    1    3    3    0    0  0.70251497104E+01  0.35810300634E+01  0.83168167032E+01  0.11460625860E+02  0.51100000000E-03 0.  1.
        -12    1    3    3    0    0 -0.11018159440E+02  0.34821112707E+00 -0.43070302058E+02  0.44458655038E+02  0.00000000000E+00 0.  1.
</event>
<event>
 7    1  0.2090370E-015  0.9000781E+02  0.7816164E-02  0.1186339E+00
        -11   -1    0    0    0    0  0.00000000000E+00  0.00000000000E+00  0.45593999997E+02  0.45594000000E+02  0.51100000000E-03 0.  1.
         11   -1    0    0    0    0 -0.00000000000E+00 -0.00000000000E+00 -0.45593999997E+02  0.45594000000E+02  0.51100000000E-03 0. -1.
    9900012    2    1    2    0    0  0.10885302554E+01  0.35696189238E+00 -0.28375783048E+00  0.90007814245E+02  0.90000076593E+02 0.  0.
         12    1    1    2    0    0 -0.10885302554E+01 -0.35696189238E+00  0.28375783048E+00  0.11801857548E+01  0.00000000000E+00 0. -1.
         11    1    3    3    0    0  0.95524483933E+00  0.42220039385E+01 -0.41021250180E+02  0.41249009401E+02  0.51100000000E-03 0. -1.
        -11    1    3    3    0    0 -0.93340953671E+01  0.69666495223E-01  0.32332640368E+01  0.98784708501E+01  0.51100000000E-03 0.  1.
        -12    1    3    3    0    0  0.94673807832E+01 -0.39347085414E+01  0.37504228313E+02  0.38880333994E+02  0.00000000000E+00 0.  1.
</event>
<event>
 7    1  0.2090370E-015  0.9000782E+02  0.7816164E-02  0.1186339E+00
        -11   -1    0    0    0    0  0.00000000000E+00  0.00000000000E+00  0.45593999997E+02  0.45594000000E+02  0.51100000000E-03 0.  1.
         11   -1    0    0    0    0 -0.00000000000E+00 -0.00000000000E+00 -0.45593999997E+02  0.45594000000E+02  0.51100000000E-03 0. -1.
    9900012    2    1    2    0    0  0.11719283403E+01  0.13706926080E+00 -0.25142832681E-01  0.90007815193E+02  0.90000077553E+02 0.  0.
         12    1    1    2    0    0 -0.11719283403E+01 -0.13706926080E+00  0.25142832681E-01  0.11801848072E+01  0.00000000000E+00 0. -1.
         11    1    3    3    0    0 -0.39651619813E+01 -0.57264574903E+00 -0.32132144887E+01  0.51356772001E+01  0.51100000000E-03 0. -1.
        -11    1    3    3    0    0 -0.27348095517E+02 -0.29624407843E+02  0.29491337930E+01  0.40425502580E+02  0.51100000000E-03 0.  1.
         12    1    3    3    0    0  0.32485185838E+02  0.30334122853E+02  0.23893786305E+00  0.44446635413E+02  0.00000000000E+00 0. -1.
</event>
<event>
 7    1  0.2090370E-015  0.9000776E+02  0.7816164E-02  0.1186339E+00
        -11   -1    0    0    0    0  0.00000000000E+00  0.00000000000E+00  0.45593999997E+02  0.45594000000E+02  0.51100000000E-03 0. -1.
         11   -1    0    0    0    0 -0.00000000000E+00 -0.00000000000E+00 -0.45593999997E+02  0.45594000000E+02  0.51100000000E-03 0.  1.
    9900012    2    1    2    0    0  0.38414415855E+00  0.93023084758E+00 -0.61650149372E+00  0.90007758391E+02  0.90000020002E+02 0.  0.
         12    1    1    2    0    0 -0.38414415855E+00 -0.93023084758E+00  0.61650149372E+00  0.11802416092E+01  0.00000000000E+00 0. -1.
         11    1    3    3    0    0 -0.12155006214E+02  0.99446588421E+01  0.35083786842E+02  0.38438424981E+02  0.51100000000E-03 0. -1.
        -11    1    3    3    0    0 -0.54423530980E+01  0.69631439678E+01 -0.39261075317E+00  0.88463961376E+01  0.51100000000E-03 0.  1.
        -12    1    3    3    0    0  0.17981503470E+02 -0.15977571962E+02 -0.35307677583E+02  0.42722937272E+02  0.00000000000E+00 0.  1.
</event>
<event>
 7    1  0.2090370E-015  0.9000792E+02  0.7816164E-02  0.1186339E+00
        -11   -1    0    0    0    0  0.00000000000E+00  0.00000000000E+00  0.45593999997E+02  0.45594000000E+02  0.51100000000E-03 0.  1.
         11   -1    0    0    0    0 -0.00000000000E+00 -0.00000000000E+00 -0.45593999997E+02  0.45594000000E+02  0.51100000000E-03 0. -1.
    9900012    2    1    2    0    0  0.23839823583E+00 -0.98913245079E+00  0.59780534520E+00  0.90007920361E+02  0.90000184109E+02 0.  0.
         12    1    1    2    0    0 -0.23839823583E+00  0.98913245079E+00 -0.59780534520E+00  0.11800796392E+01  0.00000000000E+00 0. -1.
         11    1    3    3    0    0 -0.23682593578E+01 -0.15208303148E+02 -0.25560565990E+02  0.29836951437E+02  0.51100000000E-03 0. -1.
        -11    1    3    3    0    0  0.73115950264E+01 -0.14475131576E+02 -0.55578256261E+01  0.17142878461E+02  0.51100000000E-03 0.  1.
        -12    1    3    3    0    0 -0.47049374328E+01  0.28694302273E+02  0.31716196962E+02  0.43028090463E+02  0.00000000000E+00 0.  1.
</event>
<event>
 7    1  0.2090370E-015  0.9000769E+02  0.7816164E-02  0.1186339E+00
        -11   -1    0    0    0    0  0.00000000000E+00  0.00000000000E+00  0.45593999997E+02  0.45594000000E+02  0.51100000000E-03 0.  1.
         11   -1    0    0    0    0 -0.00000000000E+00 -0.00000000000E+00 -0.45593999997E+02  0.45594000000E+02  0.51100000000E-03 0. -1.
    9900012    2    1    2    0    0 -0.53690617609E-01  0.10016723571E+01  0.62202068521E+00  0.90007686514E+02  0.89999947176E+02 0.  0.
         12    1    1    2    0    0  0.53690617609E-01 -0.10016723571E+01 -0.62202068521E+00  0.11803134864E+01  0.00000000000E+00 0. -1.
         11    1    3    3    0    0 -0.18693779139E+02  0.26741276823E+02 -0.24823193705E+02  0.40996880499E+02  0.51100000000E-03 0. -1.
        -11    1    3    3    0    0 -0.11321627714E+01  0.34467935796E+01  0.97848012367E+01  0.10435732558E+02  0.51100000000E-03 0.  1.
        -12    1    3    3    0    0  0.19772251293E+02 -0.29186398046E+02  0.15660413153E+02  0.38575073457E+02  0.00000000000E+00 0.  1.
</event>
<event>
 7    1  0.2090370E-015  0.9000782E+02  0.7816164E-02  0.1186339E+00
        -11   -1    0    0    0    0  0.00000000000E+00  0.00000000000E+00  0.45593999997E+02  0.45594000000E+02  0.51100000000E-03 0. -1.
         11   -1    0    0    0    0 -0.00000000000E+00 -0.00000000000E+00 -0.45593999997E+02  0.45594000000E+02  0.51100000000E-03 0.  1.
    9900012    2    1    2    0    0  0.35362018541E+00  0.11257872038E+01 -0.19249926578E-01  0.90007824325E+02  0.90000086806E+02 0.  0.
         12    1    1    2    0    0 -0.35362018541E+00 -0.11257872038E+01  0.19249926578E-01  0.11801756748E+01  0.00000000000E+00 0. -1.
         11    1    3    3    0    0 -0.10451057496E+02 -0.44623262484E+01 -0.48451262487E+00  0.11374168588E+02  0.51100000000E-03 0. -1.
        -11    1    3    3    0    0 -0.26205125426E+02  0.17336753503E+02 -0.17371300682E+02  0.35903115578E+02  0.51100000000E-03 0.  1.
         12    1    3    3    0    0  0.37009803107E+02 -0.11748640050E+02  0.17836563380E+02  0.42730540159E+02  0.00000000000E+00 0. -1.
</event>
<event>
 7    1  0.2090370E-015  0.9000786E+02  0.7816164E-02  0.1186339E+00
        -11   -1    0    0    0    0  0.00000000000E+00  0.00000000000E+00  0.45593999997E+02  0.45594000000E+02  0.51100000000E-03 0. -1.
         11   -1    0    0    0    0 -0.00000000000E+00 -0.00000000000E+00 -0.45593999997E+02  0.45594000000E+02  0.51100000000E-03 0.  1.
    9900012    2    1    2    0    0 -0.12508731365E+00  0.11593487159E+01 -0.18166994455E+00  0.90007855835E+02  0.90000118732E+02 0.  0.
         12    1    1    2    0    0  0.12508731365E+00 -0.11593487159E+01  0.18166994455E+00  0.11801441649E+01  0.00000000000E+00 0. -1.
         11    1    3    3    0    0 -0.38994625976E+02 -0.17599836227E+02  0.10552394903E+01  0.42795427570E+02  0.51100000000E-03 0. -1.
        -11    1    3    3    0    0  0.18331633279E+01  0.84540488103E+01 -0.14342017314E+01  0.87686010253E+01  0.51100000000E-03 0.  1.
        -12    1    3    3    0    0  0.37036375334E+02  0.10305136133E+02  0.19729229656E+00  0.38443827240E+02  0.00000000000E+00 0.  1.
</event>
<event>
 7    1  0.2090370E-015  0.9000771E+02  0.7816164E-02  0.1186339E+00
        -11   -1    0    0    0    0  0.00000000000E+00  0.00000000000E+00  0.45593999997E+02  0.45594000000E+02  0.51100000000E-03 0.  1.
         11   -1    0    0    0    0 -0.00000000000E+00 -0.00000000000E+00 -0.45593999997E+02  0.45594000000E+02  0.51100000000E-03 0. -1.
    9900012    2    1    2    0    0 -0.63238461936E-01  0.74852981780E+00  0.91037424263E+00  0.90007713063E+02  0.89999974076E+02 0.  0.
         12    1    1    2    0    0  0.63238461936E-01 -0.74852981780E+00 -0.91037424263E+00  0.11802869367E+01  0.00000000000E+00 0. -1.
         11    1    3    3    0    0  0.34166941335E+02  0.16298640311E+02  0.68451175129E+00  0.37861512288E+02  0.51100000000E-03 0. -1.
        -11    1    3    3    0    0  0.47533070908E+01  0.98368203453E-01  0.81146858285E+01  0.94048780406E+01  0.51100000000E-03 0.  1.
        -12    1    3    3    0    0 -0.38983486888E+02 -0.15648478697E+02 -0.78888233371E+01  0.42741322734E+02  0.00000000000E+00 0.  1.
</event>
<event>
 7    1  0.2090370E-015  0.9000771E+02  0.7816164E-02  0.1186339E+00
        -11   -1    0    0    0    0  0.00000000000E+00  0.00000000000E+00  0.45593999997E+02  0.45594000000E+02  0.51100000000E-03 0. -1.
         11   -1    0    0    0    0 -0.00000000000E+00 -0.00000000000E+00 -0.45593999997E+02  0.45594000000E+02  0.51100000000E-03 0.  1.
    9900012    2    1    2    0    0 -0.21010969508E+00 -0.29914530067E+00 -0.11222575394E+01  0.90007705130E+02  0.89999966038E+02 0.  0.
         12    1    1    2    0    0  0.21010969508E+00  0.29914530067E+00  0.11222575394E+01  0.11802948698E+01  0.00000000000E+00 0. -1.
         11    1    3    3    0    0 -0.27626594878E+02 -0.18197018984E+02  0.16622464693E+02  0.37022514464E+02  0.51100000000E-03 0. -1.
        -11    1    3    3    0    0 -0.76523418529E+01  0.94922049427E+00  0.36665755669E+01  0.85383330943E+01  0.51100000000E-03 0.  1.
        -12    1    3    3    0    0  0.35068827036E+02  0.16948653189E+02 -0.21411297799E+02  0.44446857572E+02  0.00000000000E+00 0.  1.
</event>
<event>
 7    1  0.2090370E-015  0.9000772E+02  0.7816164E-02  0.1186339E+00
        -11   -1    0    0    0    0  0.00000000000E+00  0.00000000000E+00  0.45593999997E+02  0.45594000000E+02  0.51100000000E-03 0. -1.
         11   -1    0    0    0    0 -0.00000000000E+00 -0.00000000000E+00 -0.45593999997E+02  0.45594000000E+02  0.51100000000E-03 0.  1.
    9900012    2    1    2    0    0 -0.32523022114E+00 -0.65997729135E+00 -0.92288262980E+00  0.90007721613E+02  0.89999982739E+02 0.  0.
         12    1    1    2    0    0  0.32523022114E+00  0.65997729135E+00  0.92288262980E+00  0.11802783867E+01  0.00000000000E+00 0. -1.
         11    1    3    3    0    0  0.43054185025E+01  0.92535277553E+01  0.10592114650E+01  0.10260912902E+02  0.51100000000E-03 0. -1.
        -11    1    3    3    0    0  0.30602929094E+02 -0.83044208056E+01 -0.22556714848E+02  0.38914111310E+02  0.51100000000E-03 0.  1.
         12    1    3    3    0    0 -0.35233577818E+02 -0.16090842411E+01  0.20574620753E+02  0.40832697401E+02  0.00000000000E+00 0. -1.
</event>
<event>
 7    1  0.2090370E-015  0.9000783E+02  0.7816164E-02  0.1186339E+00
        -11   -1    0    0    0    0  0.00000000000E+00  0.00000000000E+00  0.45593999997E+02  0.45594000000E+02  0.51100000000E-03 0. -1.
         11   -1    0    0    0    0 -0.00000000000E+00 -0.00000000000E+00 -0.45593999997E+02  0.45594000000E+02  0.51100000000E-03 0.  1.
    9900012    2    1    2    0    0 -0.10508658289E+01 -0.34130434973E+00 -0.41471164117E+00  0.90007833319E+02  0.90000095919E+02 0.  0.
         12    1    1    2    0    0  0.10508658289E+01  0.34130434973E+00  0.41471164117E+00  0.11801666809E+01  0.00000000000E+00 0. -1.
         11    1    3    3    0    0 -0.78139739686E+01  0.15794420877E+00  0.16991753840E+01  0.79981455852E+01  0.51100000000E-03 0. -1.
        -11    1    3    3    0    0  0.38351496103E+01 -0.25242799211E+02 -0.33382853118E+02  0.42027635754E+02  0.51100000000E-03 0.  1.
         12    1    3    3    0    0  0.29279585294E+01  0.24743550652E+02  0.31268966093E+02  0.39982051980E+02  0.00000000000E+00 0. -1.
</event>
<event>
 7    1  0.2090370E-015  0.9000778E+02  0.7816164E-02  0.1186339E+00
        -11   -1    0    0    0    0  0.00000000000E+00  0.00000000000E+00  0.45593999997E+02  0.45594000000E+02  0.51100000000E-03 0.  1.
         11   -1    0    0    0    0 -0.00000000000E+00 -0.00000000000E+00 -0.45593999997E+02  0.45594000000E+02  0.51100000000E-03 0. -1.
    9900012    2    1    2    0    0  0.76927822832E+00 -0.41099763889E+00  0.79511905734E+00  0.90007778679E+02  0.90000040557E+02 0.  0.
         12    1    1    2    0    0 -0.76927822832E+00  0.41099763889E+00 -0.79511905734E+00  0.11802213212E+01  0.00000000000E+00 0. -1.
         11    1    3    3    0    0  0.51995912990E+01  0.60988454502E+01  0.47632787889E+01  0.93231159267E+01  0.51100000000E-03 0. -1.
        -11    1    3    3    0    0  0.33747822957E+02  0.82302424848E+00  0.15569556632E+02  0.37175314622E+02  0.51100000000E-03 0.  1.
         12    1    3    3    0    0 -0.38178136028E+02 -0.73328673375E+01 -0.19537716364E+02  0.43509348130E+02  0.00000000000E+00 0. -1.
</event>
<event>
 7    1  0.2090370E-015  0.9000768E+02  0.7816164E-02  0.1186339E+00
        -11   -1    0    0    0    0  0.00000000000E+00  0.00000000000E+00  0.45593999997E+02  0.45594000000E+02  0.51100000000E-03 0.  1.
         11   -1    0    0    0    0 -0.00000000000E+00 -0.00000000000E+00 -0.45593999997E+02  0.45594000000E+02  0.51100000000E-03 0. -1.
    9900012    2    1    2    0    0 -0.36851824290E+00 -0.10584921878E+01  0.37006605769E+00  0.90007677885E+02  0.89999938434E+02 0.  0.
         12    1    1    2    0    0  0.36851824290E+00  0.10584921878E+01 -0.37006605769E+00  0.11803221145E+01  0.00000000000E+00 0. -1.
         11    1    3    3    0    0  0.67697875365E+01 -0.11138938425E+02 -0.25396624203E+01  0.13279904291E+02  0.51100000000E-03 0. -1.
        -11    1    3    3    0    0  0.32459886931E+02 -0.65996323393E+01  0.59430404482E+01  0.33652921665E+02  0.51100000000E-03 0.  1.
         12    1    3    3    0    0 -0.39598192710E+02  0.16680078576E+02 -0.30333119702E+01  0.43074851929E+02  0.00000000000E+00 0. -1.
</event>
<event>
 7    1  0.2090370E-015  0.9000770E+02  0.7816164E-02  0.1186339E+00
        -11   -1    0    0    0    0  0.00000000000E+00  0.00000000000E+00  0.45593999997E+02  0.45594000000E+02  0.51100000000E-03 0.  1.
         11   -1    0    0    0    0 -0.00000000000E+00 -0.00000000000E+00 -0.45593999997E+02  0.45594000000E+02  0.51100000000E-03 0. -1.
    9900012    2    1    2    0    0 -0.99597332131E+00 -0.35650996431E+00 -0.52350511571E+00  0.90007695032E+02  0.89999955806E+02 0.  0.
         12    1    1    2    0    0  0.99597332131E+00  0.35650996431E+00  0.52350511571E+00  0.11803049680E+01  0.00000000000E+00 0. -1.
         11    1    3    3    0    0  0.29294740703E+02  0.21901296027E+02 -0.13767649993E+02  0.39081924046E+02  0.51100000000E-03 0. -1.
        -11    1    3    3    0    0 -0.59306592555E+01  0.19910675115E+01 -0.82748187489E+01  0.10373509273E+02  0.51100000000E-03 0.  1.
        -12    1    3    3    0    0 -0.24360054769E+02 -0.24248873503E+02  0.21518963626E+02  0.40552261713E+02  0.00000000000E+00 0.  1.
</event>
<event>
 7    1  0.2090370E-015  0.9000785E+02  0.7816164E-02  0.1186339E+00
        -11   -1    0    0    0    0  0.00000000000E+00  0.00000000000E+00  0.45593999997E+02  0.45594000000E+02  0.51100000000E-03 0.  1.
         11   -1    0    0    0    0 -0.00000000000E+00 -0.00000000000E+00 -0.45593999997E+02  0.45594000000E+02  0.51100000000E-03 0. -1.
    9900012    2    1    2    0    0 -0.47913238670E-02  0.79482727675E-01  0.11774558184E+01  0.90007854812E+02  0.90000117695E+02 0.  0.
         12    1    1    2    0    0  0.47913238670E-02 -0.79482727675E-01 -0.11774558184E+01  0.11801451881E+01  0.00000000000E+00 0. -1.
         11    1    3    3    0    0  0.27043201045E+02 -0.23511174309E+02 -0.12895354916E+00  0.35834713190E+02  0.51100000000E-03 0. -1.
        -11    1    3    3    0    0 -0.11854442929E+01 -0.98637973059E+01 -0.54807755446E+01  0.11346306725E+02  0.51100000000E-03 0.  1.
        -12    1    3    3    0    0 -0.25862548076E+02  0.33454454342E+02  0.67871849122E+01  0.42826834897E+02  0.00000000000E+00 0.  1.
</event>
<event>
 7    1  0.2090370E-015  0.9000816E+02  0.7816164E-02  0.1186338E+00
        -11   -1    0    0    0    0  0.00000000000E+00  0.00000000000E+00  0.45593999997E+02  0.45594000000E+02  0.51100000000E-03 0.  1.
         11   -1    0    0    0    0 -0.00000000000E+00 -0.00000000000E+00 -0.45593999997E+02  0.45594000000E+02  0.51100000000E-03 0. -1.
    9900012    2    1    2    0    0  0.92323106120E+00 -0.48902347376E+00  0.54819338434E+00  0.90008162919E+02  0.90000429869E+02 0.  0.
         12    1    1    2    0    0 -0.92323106120E+00  0.48902347376E+00 -0.54819338434E+00  0.11798370807E+01  0.00000000000E+00 0. -1.
         11    1    3    3    0    0  0.35012255444E+01 -0.90041497666E+01 -0.34570228742E+02  0.35894762973E+02  0.51100000000E-03 0. -1.
        -11    1    3    3    0    0  0.27097929208E+01 -0.75896962746E+01 -0.57295177591E+01  0.98880655958E+01  0.51100000000E-03 0.  1.
        -12    1    3    3    0    0 -0.52877874040E+01  0.16104822567E+02  0.40847939885E+02  0.44225334351E+02  0.00000000000E+00 0.  1.
</event>
<event>
 7    1  0.2090370E-015  0.9000763E+02  0.7816164E-02  0.1186339E+00
        -11   -1    0    0    0    0  0.00000000000E+00  0.00000000000E+00  0.45593999997E+02  0.45594000000E+02  0.51100000000E-03 0. -1.
         11   -1    0    0    0    0 -0.00000000000E+00 -0.00000000000E+00 -0.45593999997E+02  0.45594000000E+02  0.51100000000E-03 0.  1.
    9900012    2    1    2    0    0  0.10144300510E+01  0.30951990797E+00 -0.51808099829E+00  0.90007627676E+02  0.89999887562E+02 0.  0.
         12    1    1    2    0    0 -0.10144300510E+01 -0.30951990797E+00  0.51808099829E+00  0.11803723237E+01  0.00000000000E+00 0. -1.
         11    1    3    3    0    0  0.41372034685E+01 -0.71195002990E+01  0.61528663476E+01  0.10279178060E+02  0.51100000000E-03 0. -1.
        -11    1    3    3    0    0 -0.24254817578E+02  0.58338053904E+01 -0.35843941380E+02  0.43670557530E+02  0.51100000000E-03 0.  1.
         12    1    3    3    0    0  0.21132044160E+02  0.15952148165E+01  0.29172994035E+02  0.36057892085E+02  0.00000000000E+00 0. -1.
</event>
<event>
 7    1  0.2090370E-015  0.9000775E+02  0.7816164E-02  0.1186339E+00
        -11   -1    0    0    0    0  0.00000000000E+00  0.00000000000E+00  0.45593999997E+02  0.45594000000E+02  0.51100000000E-03 0.  1.
         11   -1    0    0    0    0 -0.00000000000E+00 -0.00000000000E+00 -0.45593999997E+02  0.45594000000E+02  0.51100000000E-03 0. -1.
    9900012    2    1    2    0    0 -0.37703722014E+00  0.45099333995E+00  0.10234416214E+01  0.90007752225E+02  0.90000013754E+02 0.  0.
         12    1    1    2    0    0  0.37703722014E+00 -0.45099333995E+00 -0.10234416214E+01  0.11802477750E+01  0.00000000000E+00 0. -1.
         11    1    3    3    0    0  0.19387965593E+01  0.68840010505E+01 -0.28287515167E-01  0.71518670993E+01  0.51100000000E-03 0. -1.
        -11    1    3    3    0    0  0.98261975242E+01  0.27564647820E+02  0.25860094968E+02  0.39052637289E+02  0.51100000000E-03 0.  1.
         12    1    3    3    0    0 -0.12142031304E+02 -0.33997655531E+02 -0.24808365832E+02  0.43803247836E+02  0.00000000000E+00 0. -1.
</event>
<event>
 7    1  0.2090370E-015  0.9000777E+02  0.7816164E-02  0.1186339E+00
        -11   -1    0    0    0    0  0.00000000000E+00  0.00000000000E+00  0.45593999997E+02  0.45594000000E+02  0.51100000000E-03 0. -1.
         11   -1    0    0    0    0 -0.00000000000E+00 -0.00000000000E+00 -0.45593999997E+02  0.45594000000E+02  0.51100000000E-03 0.  1.
    9900012    2    1    2    0    0  0.74370687579E+00 -0.35376163781E+00 -0.84539944082E+00  0.90007768062E+02  0.90000029800E+02 0.  0.
         12    1    1    2    0    0 -0.74370687579E+00  0.35376163781E+00  0.84539944082E+00  0.11802319382E+01  0.00000000000E+00 0. -1.
         11    1    3    3    0    0  0.10593058869E+02  0.43424267572E+01 -0.59429588893E+01  0.12899159932E+02  0.51100000000E-03 0. -1.
        -11    1    3    3    0    0  0.17171837476E+02  0.59032505352E+01 -0.27820097142E+02  0.33221652193E+02  0.51100000000E-03 0.  1.
         12    1    3    3    0    0 -0.27021189469E+02 -0.10599438930E+02  0.32917656591E+02  0.43886955936E+02  0.00000000000E+00 0. -1.
</event>
<event>
 7    1  0.2090370E-015  0.9000775E+02  0.7816164E-02  0.1186339E+00
        -11   -1    0    0    0    0  0.00000000000E+00  0.00000000000E+00  0.45593999997E+02  0.45594000000E+02  0.51100000000E-03 0.  1.
         11   -1    0    0    0    0 -0.00000000000E+00 -0.00000000000E+00 -0.45593999997E+02  0.45594000000E+02  0.51100000000E-03 0. -1.
    9900012    2    1    2    0    0 -0.14582650090E+00  0.36295373171E+00  0.11135515187E+01  0.90007746737E+02  0.90000008194E+02 0.  0.
         12    1    1    2    0    0  0.14582650090E+00 -0.36295373171E+00 -0.11135515187E+01  0.11802532629E+01  0.00000000000E+00 0. -1.
         11    1    3    3    0    0 -0.77176775104E+01  0.93965919113E+01 -0.36407493521E+02  0.38384424842E+02  0.51100000000E-03 0. -1.
        -11    1    3    3    0    0 -0.11207305469E+01 -0.92926884388E+01 -0.32705909457E+01  0.99149816325E+01  0.51100000000E-03 0.  1.
        -12    1    3    3    0    0  0.86925815564E+01  0.25905025913E+00  0.40791635985E+02  0.41708340263E+02  0.00000000000E+00 0.  1.
</event>
<event>
 7    1  0.2090370E-015  0.9000778E+02  0.7816164E-02  0.1186339E+00
        -11   -1    0    0    0    0  0.00000000000E+00  0.00000000000E+00  0.45593999997E+02  0.45594000000E+02  0.51100000000E-03 0.  1.
         11   -1    0    0    0    0 -0.00000000000E+00 -0.00000000000E+00 -0.45593999997E+02  0.45594000000E+02  0.51100000000E-03 0. -1.
    9900012    2    1    2    0    0 -0.97129393221E+00  0.57330121387E+00  0.34759528632E+00  0.90007784483E+02  0.90000046438E+02 0.  0.
         12    1    1    2    0    0  0.97129393221E+00 -0.57330121387E+00 -0.34759528632E+00  0.11802155175E+01  0.00000000000E+00 0. -1.
         11    1    3    3    0    0  0.19334388024E+01 -0.49706278482E+01  0.62859370575E+01  0.82436843559E+01  0.51100000000E-03 0. -1.
        -11    1    3    3    0    0  0.37074848453E+02  0.22815360867E+01 -0.15944428681E+02  0.40422451694E+02  0.51100000000E-03 0.  1.
         12    1    3    3    0    0 -0.39979581188E+02  0.32623929754E+01  0.10006086910E+02  0.41341648433E+02  0.00000000000E+00 0. -1.
</event>
<event>
 7    1  0.2090370E-015  0.9000797E+02  0.7816164E-02  0.1186339E+00
        -11   -1    0    0    0    0  0.00000000000E+00  0.00000000000E+00  0.45593999997E+02  0.45594000000E+02  0.51100000000E-03 0. -1.
         11   -1    0    0    0    0 -0.00000000000E+00 -0.00000000000E+00 -0.45593999997E+02  0.45594000000E+02  0.51100000000E-03 0.  1.
    9900012    2    1    2    0    0 -0.43531802013E+00  0.60529432841E+00 -0.91465383224E+00  0.90007968375E+02  0.90000232757E+02 0.  0.
         12    1    1    2    0    0  0.43531802013E+00 -0.60529432841E+00  0.91465383224E+00  0.11800316248E+01  0.00000000000E+00 0. -1.
         11    1    3    3    0    0  0.10579673049E+02  0.19581618852E+02  0.25815281077E+02  0.34085158295E+02  0.51100000000E-03 0. -1.
        -11    1    3    3    0    0  0.58674142083E+01  0.33645308166E+01  0.85364587075E+01  0.10891177376E+02  0.51100000000E-03 0.  1.
        -12    1    3    3    0    0 -0.16882405277E+02 -0.22340855340E+02 -0.35266393616E+02  0.45031632704E+02  0.00000000000E+00 0.  1.
</event>
<event>
 7    1  0.2090370E-015  0.9000772E+02  0.7816164E-02  0.1186339E+00
        -11   -1    0    0    0    0  0.00000000000E+00  0.00000000000E+00  0.45593999997E+02  0.45594000000E+02  0.51100000000E-03 0.  1.
         11   -1    0    0    0    0 -0.00000000000E+00 -0.00000000000E+00 -0.45593999997E+02  0.45594000000E+02  0.51100000000E-03 0. -1.
    9900012    2    1    2    0    0 -0.34771839700E-01 -0.69766671689E+00  0.95137082681E+00  0.90007722753E+02  0.89999983894E+02 0.  0.
         12    1    1    2    0    0  0.34771839700E-01  0.69766671689E+00 -0.95137082681E+00  0.11802772466E+01  0.00000000000E+00 0. -1.
         11    1    3    3    0    0  0.59315647089E+01  0.30798719316E+02  0.19648184075E+02  0.37010751264E+02  0.51100000000E-03 0. -1.
        -11    1    3    3    0    0  0.12395131564E+02  0.44936039759E+00 -0.74651834997E+01  0.14476538820E+02  0.51100000000E-03 0.  1.
        -12    1    3    3    0    0 -0.18361468112E+02 -0.31945746431E+02 -0.11231629748E+02  0.38520432670E+02  0.00000000000E+00 0.  1.
</event>
<event>
 7    1  0.2090370E-015  0.9000768E+02  0.7816164E-02  0.1186339E+00
        -11   -1    0    0    0    0  0.00000000000E+00  0.00000000000E+00  0.45593999997E+02  0.45594000000E+02  0.51100000000E-03 0. -1.
         11   -1    0    0    0    0 -0.00000000000E+00 -0.00000000000E+00 -0.45593999997E+02  0.45594000000E+02  0.51100000000E-03 0.  1.
    9900012    2    1    2    0    0  0.82489186140E+00  0.22827948712E+00  0.81276787929E+00  0.90007682359E+02  0.89999942966E+02 0.  0.
         12    1    1    2    0    0 -0.82489186140E+00 -0.22827948712E+00 -0.81276787929E+00  0.11803176407E+01  0.00000000000E+00 0. -1.
         11    1    3    3    0    0  0.18319484499E+02 -0.27478493961E+02 -0.11295218234E+02  0.34903482604E+02  0.51100000000E-03 0. -1.
        -11    1    3    3    0    0  0.10026248451E+02  0.75639111135E+01 -0.85845687755E+01  0.15212929720E+02  0.51100000000E-03 0.  1.
        -12    1    3    3    0    0 -0.27520841089E+02  0.20142862335E+02  0.20692554889E+02  0.39891270036E+02  0.00000000000E+00 0.  1.
</event>
<event>
 7    1  0.2090370E-015  0.9000790E+02  0.7816164E-02  0.1186339E+00
        -11   -1    0    0    0    0  0.00000000000E+00  0.00000000000E+00  0.45593999997E+02  0.45594000000E+02  0.51100000000E-03 0.  1.
         11   -1    0    0    0    0 -0.00000000000E+00 -0.00000000000E+00 -0.45593999997E+02  0.45594000000E+02  0.51100000000E-03 0. -1.
    9900012    2    1    2    0    0  0.49224161331E+00  0.87802828068E+00  0.61595862676E+00  0.90007898099E+02  0.90000161553E+02 0.  0.
         12    1    1    2    0    0 -0.49224161331E+00 -0.87802828068E+00 -0.61595862676E+00  0.11801019013E+01  0.00000000000E+00 0. -1.
         11    1    3    3    0    0  0.17949254255E+02 -0.25559142850E+02  0.13759097480E+02  0.34128555130E+02  0.51100000000E-03 0. -1.
        -11    1    3    3    0    0  0.13377552103E+02  0.25797899472E+00 -0.10333810661E+00  0.13380438426E+02  0.51100000000E-03 0.  1.
        -12    1    3    3    0    0 -0.30834564745E+02  0.26179192135E+02 -0.13039800747E+02  0.42498904543E+02  0.00000000000E+00 0.  1.
</event>
<event>
 7    1  0.2090370E-015  0.9000773E+02  0.7816164E-02  0.1186339E+00
        -11   -1    0    0    0    0  0.00000000000E+00  0.00000000000E+00  0.45593999997E+02  0.45594000000E+02  0.51100000000E-03 0. -1.
         11   -1    0    0    0    0 -0.00000000000E+00 -0.00000000000E+00 -0.45593999997E+02  0.45594000000E+02  0.51100000000E-03 0.  1.
    9900012    2    1    2    0    0 -0.11545550824E+01  0.22235407921E+00  0.10297214426E+00  0.90007727982E+02  0.89999989191E+02 0.  0.
         12    1    1    2    0    0  0.11545550824E+01 -0.22235407921E+00 -0.10297214426E+00  0.11802720184E+01  0.00000000000E+00 0. -1.
         11    1    3    3    0    0 -0.22182168079E+02 -0.24208757857E+01 -0.56290647808E+01  0.23012943984E+02  0.51100000000E-03 0. -1.
        -11    1    3    3    0    0  0.11097601902E+02 -0.14719804341E+02 -0.24551517260E+02  0.30701895834E+02  0.51100000000E-03 0.  1.
         12    1    3    3    0    0  0.99300110944E+01  0.17363034206E+02  0.30283554185E+02  0.36292888163E+02  0.00000000000E+00 0. -1.
</event>
<event>
 7    1  0.2090370E-015  0.9000778E+02  0.7816164E-02  0.1186339E+00
        -11   -1    0    0    0    0  0.00000000000E+00  0.00000000000E+00  0.45593999997E+02  0.45594000000E+02  0.51100000000E-03 0.  1.
         11   -1    0    0    0    0 -0.00000000000E+00 -0.00000000000E+00 -0.45593999997E+02  0.45594000000E+02  0.51100000000E-03 0. -1.
    9900012    2    1    2    0    0  0.75100044433E+00  0.81738373014E+00  0.40101091168E+00  0.90007776470E+02  0.90000038319E+02 0.  0.
         12    1    1    2    0    0 -0.75100044433E+00 -0.81738373014E+00 -0.40101091168E+00  0.11802235301E+01  0.00000000000E+00 0. -1.
         11    1    3    3    0    0 -0.81375108123E+01  0.23098626032E+02 -0.33427515700E+02  0.41438682568E+02  0.51100000000E-03 0. -1.
        -11    1    3    3    0    0  0.53689221302E+01 -0.55251426559E+01 -0.27512255467E+01  0.81805726254E+01  0.51100000000E-03 0.  1.
        -12    1    3    3    0    0  0.35195891264E+01 -0.16756099646E+02  0.36579752158E+02  0.40388521277E+02  0.00000000000E+00 0.  1.
</event>
<event>
 7    1  0.2090370E-015  0.9000774E+02  0.7816164E-02  0.1186339E+00
        -11   -1    0    0    0    0  0.00000000000E+00  0.00000000000E+00  0.45593999997E+02  0.45594000000E+02  0.51100000000E-03 0. -1.
         11   -1    0    0    0    0 -0.00000000000E+00 -0.00000000000E+00 -0.45593999997E+02  0.45594000000E+02  0.51100000000E-03 0.  1.
    9900012    2    1    2    0    0  0.10956369906E+01 -0.42473247015E+00 -0.11047149558E+00  0.90007736454E+02  0.89999997775E+02 0.  0.
         12    1    1    2    0    0 -0.10956369906E+01  0.42473247015E+00  0.11047149558E+00  0.11802635458E+01  0.00000000000E+00 0. -1.
         11    1    3    3    0    0  0.48223967428E+01  0.65782049373E+01 -0.57859442086E+01  0.10000272056E+02  0.51100000000E-03 0. -1.
        -11    1    3    3    0    0 -0.41389200456E+02 -0.12630303780E+01 -0.50805536273E+00  0.41411583894E+02  0.51100000000E-03 0.  1.
         12    1    3    3    0    0  0.37662440703E+02 -0.57399070295E+01  0.61835280757E+01  0.38595880504E+02  0.00000000000E+00 0. -1.
</event>
<event>
 7    1  0.2090370E-015  0.9000772E+02  0.7816164E-02  0.1186339E+00
        -11   -1    0    0    0    0  0.00000000000E+00  0.00000000000E+00  0.45593999997E+02  0.45594000000E+02  0.51100000000E-03 0. -1.
         11   -1    0    0    0    0 -0.00000000000E+00 -0.00000000000E+00 -0.45593999997E+02  0.45594000000E+02  0.51100000000E-03 0.  1.
    9900012    2    1    2    0    0  0.10985790774E+01  0.34794216942E+00  0.25517355634E+00  0.90007723216E+02  0.89999984363E+02 0.  0.
         12    1    1    2    0    0 -0.10985790774E+01 -0.34794216942E+00 -0.25517355634E+00  0.11802767838E+01  0.00000000000E+00 0. -1.
         11    1    3    3    0    0 -0.81990729233E+00 -0.18732148645E+01 -0.82316478597E+01  0.84818163529E+01  0.51100000000E-03 0. -1.
        -11    1    3    3    0    0 -0.20071878872E+02  0.22764147575E+02 -0.22917948733E+02  0.38030502371E+02  0.51100000000E-03 0.  1.
         12    1    3    3    0    0  0.21990365241E+02 -0.20542990541E+02  0.31404770149E+02  0.43495404492E+02  0.00000000000E+00 0. -1.
</event>
<event>
 7    1  0.2090370E-015  0.9000778E+02  0.7816164E-02  0.1186339E+00
        -11   -1    0    0    0    0  0.00000000000E+00  0.00000000000E+00  0.45593999997E+02  0.45594000000E+02  0.51100000000E-03 0. -1.
         11   -1    0    0    0    0 -0.00000000000E+00 -0.00000000000E+00 -0.45593999997E+02  0.45594000000E+02  0.51100000000E-03 0.  1.
    9900012    2    1    2    0    0 -0.69625726528E-01 -0.14560633324E+00 -0.11691366962E+01  0.90007775631E+02  0.90000037470E+02 0.  0.
         12    1    1    2    0    0  0.69625726528E-01  0.14560633324E+00  0.11691366962E+01  0.11802243687E+01  0.00000000000E+00 0. -1.
         11    1    3    3    0    0 -0.73292509208E+01  0.42947633112E+02  0.62341825822E+01  0.44012295347E+02  0.51100000000E-03 0. -1.
        -11    1    3    3    0    0 -0.23992247959E+01 -0.92711151984E+01  0.15461624272E+01  0.97005399415E+01  0.51100000000E-03 0.  1.
        -12    1    3    3    0    0  0.96588499902E+01 -0.33822124247E+02 -0.89494817056E+01  0.36294940343E+02  0.00000000000E+00 0.  1.
</event>
<event>
 7    1  0.2090370E-015  0.9000767E+02  0.7816164E-02  0.1186339E+00
        -11   -1    0    0    0    0  0.00000000000E+00  0.00000000000E+00  0.45593999997E+02  0.45594000000E+02  0.51100000000E-03 0.  1.
         11   -1    0    0    0    0 -0.00000000000E+00 -0.00000000000E+00 -0.45593999997E+02  0.45594000000E+02  0.51100000000E-03 0. -1.
    9900012    2    1    2    0    0  0.11033407087E+01 -0.13244617800E+00 -0.39785154439E+00  0.90007665911E+02  0.89999926301E+02 0.  0.
         12    1    1    2    0    0 -0.11033407087E+01  0.13244617800E+00  0.39785154439E+00  0.11803340887E+01  0.00000000000E+00 0. -1.
         11    1    3    3    0    0 -0.13184219087E+02  0.25392187695E+01 -0.89476379765E+00  0.13456294713E+02  0.51100000000E-03 0. -1.
        -11    1    3    3    0    0 -0.21250103789E+02  0.23479889346E+02  0.55123950242E+01  0.32144340309E+02  0.51100000000E-03 0.  1.
         12    1    3    3    0    0  0.35537663585E+02 -0.26151554293E+02 -0.50154827710E+01  0.44407030889E+02  0.00000000000E+00 0. -1.
</event>
<event>
 7    1  0.2090370E-015  0.9000776E+02  0.7816164E-02  0.1186339E+00
        -11   -1    0    0    0    0  0.00000000000E+00  0.00000000000E+00  0.45593999997E+02  0.45594000000E+02  0.51100000000E-03 0. -1.
         11   -1    0    0    0    0 -0.00000000000E+00 -0.00000000000E+00 -0.45593999997E+02  0.45594000000E+02  0.51100000000E-03 0.  1.
    9900012    2    1    2    0    0 -0.87978460248E+00  0.68204078494E+00 -0.39212736212E+00  0.90007760852E+02  0.90000022495E+02 0.  0.
         12    1    1    2    0    0  0.87978460248E+00 -0.68204078494E+00  0.39212736212E+00  0.11802391483E+01  0.00000000000E+00 0. -1.
         11    1    3    3    0    0 -0.13635595412E+01 -0.85337277546E+01 -0.37065055685E+01  0.94032966455E+01  0.51100000000E-03 0. -1.
        -11    1    3    3    0    0 -0.22058046245E+02 -0.28320528817E+02  0.73230766410E+01  0.36636555629E+02  0.51100000000E-03 0.  1.
         12    1    3    3    0    0  0.22541821183E+02  0.37536297357E+02 -0.40086984346E+01  0.43967908577E+02  0.00000000000E+00 0. -1.
</event>
<event>
 7    1  0.2090370E-015  0.9000770E+02  0.7816164E-02  0.1186339E+00
        -11   -1    0    0    0    0  0.00000000000E+00  0.00000000000E+00  0.45593999997E+02  0.45594000000E+02  0.51100000000E-03 0. -1.
         11   -1    0    0    0    0 -0.00000000000E+00 -0.00000000000E+00 -0.45593999997E+02  0.45594000000E+02  0.51100000000E-03 0.  1.
    9900012    2    1    2    0    0  0.76090160739E-03 -0.11624675306E+01  0.20441907819E+00  0.90007695591E+02  0.89999956373E+02 0.  0.
         12    1    1    2    0    0 -0.76090160739E-03  0.11624675306E+01 -0.20441907819E+00  0.11803044091E+01  0.00000000000E+00 0. -1.
         11    1    3    3    0    0 -0.25550856311E+02  0.22478354734E+02 -0.12576447055E+02  0.36280707140E+02  0.51100000000E-03 0. -1.
        -11    1    3    3    0    0  0.89564401110E+00  0.39457068095E+01 -0.96469286975E+01  0.10461071359E+02  0.51100000000E-03 0.  1.
        -12    1    3    3    0    0  0.24655973202E+02 -0.27586529074E+02  0.22427794830E+02  0.43265917092E+02  0.00000000000E+00 0.  1.
</event>
<event>
 7    1  0.2097127E-015  0.9000794E+02  0.7816164E-02  0.1186339E+00
        -11   -1    0    0    0    0  0.00000000000E+00  0.00000000000E+00  0.45593999997E+02  0.45594000000E+02  0.51100000000E-03 0. -1.
         11   -1    0    0    0    0 -0.00000000000E+00 -0.00000000000E+00 -0.45593999997E+02  0.45594000000E+02  0.51100000000E-03 0.  1.
    9900012    2    1    2    0    0  0.11450489246E+01  0.28523795172E+00 -0.58791768266E-02  0.90007943945E+02  0.90000208005E+02 0.  0.
         12    1    1    2    0    0 -0.11450489246E+01 -0.28523795172E+00  0.58791768266E-02  0.11800560552E+01  0.00000000000E+00 0. -1.
         11    1    3    3    0    0 -0.27571456064E+02 -0.19222755801E+02  0.25557046995E+02  0.42223952698E+02  0.51100000000E-03 0. -1.
        -11    1    3    3    0    0 -0.87881225974E+00  0.86924239892E+01 -0.40429779442E+01  0.96268487427E+01  0.51100000000E-03 0.  1.
        -12    1    3    3    0    0  0.29595317248E+02  0.10815569764E+02 -0.21519948228E+02  0.38157142504E+02  0.00000000000E+00 0.  1.
</event>
<event>
 7    1  0.2090370E-015  0.9000767E+02  0.7816164E-02  0.1186339E+00
        -11   -1    0    0    0    0  0.00000000000E+00  0.00000000000E+00  0.45593999997E+02  0.45594000000E+02  0.51100000000E-03 0. -1.
         11   -1    0    0    0    0 -0.00000000000E+00 -0.00000000000E+00 -0.45593999997E+02  0.45594000000E+02  0.51100000000E-03 0.  1.
    9900012    2    1    2    0    0  0.32117919955E+00  0.86320020560E+00  0.73817232766E+00  0.90007674173E+02  0.89999934672E+02 0.  0.
         12    1    1    2    0    0 -0.32117919955E+00 -0.86320020560E+00 -0.73817232766E+00  0.11803258273E+01  0.00000000000E+00 0. -1.
         11    1    3    3    0    0 -0.16248021882E+02  0.31951808525E+02  0.82368550095E+00  0.35855191272E+02  0.51100000000E-03 0. -1.
        -11    1    3    3    0    0 -0.30787612627E+01  0.71597190861E+01 -0.71497302115E+01  0.10576341081E+02  0.51100000000E-03 0.  1.
        -12    1    3    3    0    0  0.19647962344E+02 -0.38248327405E+02  0.70642170382E+01  0.43576141820E+02  0.00000000000E+00 0.  1.
</event>
<event>
 7    1  0.2090370E-015  0.9000774E+02  0.7816164E-02  0.1186339E+00
        -11   -1    0    0    0    0  0.00000000000E+00  0.00000000000E+00  0.45593999997E+02  0.45594000000E+02  0.51100000000E-03 0. -1.
         11   -1    0    0    0    0 -0.00000000000E+00 -0.00000000000E+00 -0.45593999997E+02  0.45594000000E+02  0.51100000000E-03 0.  1.
    9900012    2    1    2    0    0 -0.11620549644E+01 -0.96613431186E-01  0.18252320285E+00  0.90007737057E+02  0.89999998386E+02 0.  0.
         12    1    1    2    0    0  0.11620549644E+01  0.96613431186E-01 -0.18252320285E+00  0.11802629432E+01  0.00000000000E+00 0. -1.
         11    1    3    3    0    0 -0.46746000086E+01 -0.92919977011E+01  0.21452434754E+01  0.10620507349E+02  0.51100000000E-03 0. -1.
        -11    1    3    3    0    0 -0.28094915464E+02  0.22375890088E+02 -0.19546727604E+02  0.40891066169E+02  0.51100000000E-03 0.  1.
         12    1    3    3    0    0  0.31607460508E+02 -0.13180505818E+02  0.17584007331E+02  0.38496163539E+02  0.00000000000E+00 0. -1.
</event>
<event>
 7    1  0.2090370E-015  0.9000775E+02  0.7816164E-02  0.1186339E+00
        -11   -1    0    0    0    0  0.00000000000E+00  0.00000000000E+00  0.45593999997E+02  0.45594000000E+02  0.51100000000E-03 0.  1.
         11   -1    0    0    0    0 -0.00000000000E+00 -0.00000000000E+00 -0.45593999997E+02  0.45594000000E+02  0.51100000000E-03 0. -1.
    9900012    2    1    2    0    0  0.32421809770E+00 -0.43677590494E+00 -0.10474247527E+01  0.90007750375E+02  0.90000011879E+02 0.  0.
         12    1    1    2    0    0 -0.32421809770E+00  0.43677590494E+00  0.10474247527E+01  0.11802496255E+01  0.00000000000E+00 0. -1.
         11    1    3    3    0    0  0.25746860151E+02  0.65849331079E+00 -0.25372748297E+02  0.36153987020E+02  0.51100000000E-03 0. -1.
        -11    1    3    3    0    0  0.62919722915E+01  0.71549784386E+01 -0.41951734644E+01  0.10410673006E+02  0.51100000000E-03 0.  1.
        -12    1    3    3    0    0 -0.31714614345E+02 -0.82502476543E+01  0.28520497008E+02  0.43443090348E+02  0.00000000000E+00 0.  1.
</event>
<event>
 7    1  0.2090370E-015  0.9000778E+02  0.7816164E-02  0.1186339E+00
        -11   -1    0    0    0    0  0.00000000000E+00  0.00000000000E+00  0.45593999997E+02  0.45594000000E+02  0.51100000000E-03 0.  1.
         11   -1    0    0    0    0 -0.00000000000E+00 -0.00000000000E+00 -0.45593999997E+02  0.45594000000E+02  0.51100000000E-03 0. -1.
    9900012    2    1    2    0    0 -0.29902427378E+00  0.81012308028E+00  0.80449229254E+00  0.90007778508E+02  0.90000040384E+02 0.  0.
         12    1    1    2    0    0  0.29902427378E+00 -0.81012308028E+00 -0.80449229254E+00  0.11802214920E+01  0.00000000000E+00 0. -1.
         11    1    3    3    0    0 -0.76329856578E+01 -0.19066706921E+02 -0.35798036167E+02  0.41271069486E+02  0.51100000000E-03 0. -1.
        -11    1    3    3    0    0 -0.26161747818E+01  0.10886093477E+02  0.16717520011E+01  0.11320165930E+02  0.51100000000E-03 0.  1.
        -12    1    3    3    0    0  0.99501361659E+01  0.89907365244E+01  0.34930776458E+02  0.37416543092E+02  0.00000000000E+00 0.  1.
</event>
<event>
 7    1  0.2090370E-015  0.9000767E+02  0.7816164E-02  0.1186339E+00
        -11   -1    0    0    0    0  0.00000000000E+00  0.00000000000E+00  0.45593999997E+02  0.45594000000E+02  0.51100000000E-03 0. -1.
         11   -1    0    0    0    0 -0.00000000000E+00 -0.00000000000E+00 -0.45593999997E+02  0.45594000000E+02  0.51100000000E-03 0.  1.
    9900012    2    1    2    0    0 -0.68226999982E-01  0.63038263915E+00 -0.99555627370E+00  0.90007673990E+02  0.89999934487E+02 0.  0.
         12    1    1    2    0    0  0.68226999982E-01 -0.63038263915E+00  0.99555627370E+00  0.11803260098E+01  0.00000000000E+00 0. -1.
         11    1    3    3    0    0  0.18905871138E+02  0.36070119294E+02 -0.77578793863E+01  0.41456846988E+02  0.51100000000E-03 0. -1.
        -11    1    3    3    0    0  0.30140788230E+01 -0.73664895301E+01 -0.67311458371E+01  0.10423922663E+02  0.51100000000E-03 0.  1.
        -12    1    3    3    0    0 -0.21988176961E+02 -0.28073247125E+02  0.13493468950E+02  0.38126904339E+02  0.00000000000E+00 0.  1.
</event>
<event>
 7    1  0.2090370E-015  0.9000770E+02  0.7816164E-02  0.1186339E+00
        -11   -1    0    0    0    0  0.00000000000E+00  0.00000000000E+00  0.45593999997E+02  0.45594000000E+02  0.51100000000E-03 0. -1.
         11   -1    0    0    0    0 -0.00000000000E+00 -0.00000000000E+00 -0.45593999997E+02  0.45594000000E+02  0.51100000000E-03 0.  1.
    9900012    2    1    2    0    0 -0.40109412233E+00 -0.10181966148E+01 -0.44215972071E+00  0.90007700860E+02  0.89999961711E+02 0.  0.
         12    1    1    2    0    0  0.40109412233E+00  0.10181966148E+01  0.44215972071E+00  0.11802991401E+01  0.00000000000E+00 0. -1.
         11    1    3    3    0    0  0.31267766490E+02  0.21229951572E+02  0.18382881350E+02  0.42027543255E+02  0.51100000000E-03 0. -1.
        -11    1    3    3    0    0 -0.37618787523E+01  0.27919699981E+01 -0.74464318251E+01  0.87975096138E+01  0.51100000000E-03 0.  1.
        -12    1    3    3    0    0 -0.27906981860E+02 -0.25040118185E+02 -0.11378609246E+02  0.39182647991E+02  0.00000000000E+00 0.  1.
</event>
<event>
 7    1  0.2090370E-015  0.9000771E+02  0.7816164E-02  0.1186339E+00
        -11   -1    0    0    0    0  0.00000000000E+00  0.00000000000E+00  0.45593999997E+02  0.45594000000E+02  0.51100000000E-03 0. -1.
         11   -1    0    0    0    0 -0.00000000000E+00 -0.00000000000E+00 -0.45593999997E+02  0.45594000000E+02  0.51100000000E-03 0.  1.
    9900012    2    1    2    0    0  0.29798614497E-01 -0.83501390351E+00 -0.83363576862E+00  0.90007709878E+02  0.89999970849E+02 0.  0.
         12    1    1    2    0    0 -0.29798614497E-01  0.83501390351E+00  0.83363576862E+00  0.11802901216E+01  0.00000000000E+00 0. -1.
         11    1    3    3    0    0  0.25826416209E+01 -0.53528166717E+01 -0.33368391140E+01  0.68159503810E+01  0.51100000000E-03 0. -1.
        -11    1    3    3    0    0 -0.32531718328E+02 -0.25003348847E+02  0.26742733257E+01  0.41117294282E+02  0.51100000000E-03 0.  1.
         12    1    3    3    0    0  0.29978875322E+02  0.29521151615E+02 -0.17106998035E+00  0.42074465216E+02  0.00000000000E+00 0. -1.
</event>
<event>
 7    1  0.2090370E-015  0.9000772E+02  0.7816164E-02  0.1186339E+00
        -11   -1    0    0    0    0  0.00000000000E+00  0.00000000000E+00  0.45593999997E+02  0.45594000000E+02  0.51100000000E-03 0. -1.
         11   -1    0    0    0    0 -0.00000000000E+00 -0.00000000000E+00 -0.45593999997E+02  0.45594000000E+02  0.51100000000E-03 0.  1.
    9900012    2    1    2    0    0  0.10520116058E+01 -0.51958131275E+00  0.12793602970E+00  0.90007720039E+02  0.89999981143E+02 0.  0.
         12    1    1    2    0    0 -0.10520116058E+01  0.51958131275E+00 -0.12793602970E+00  0.11802799613E+01  0.00000000000E+00 0. -1.
         11    1    3    3    0    0  0.40826022285E+02 -0.37833390826E+01 -0.23888201489E+01  0.41070478597E+02  0.51100000000E-03 0. -1.
        -11    1    3    3    0    0 -0.42854731045E+01 -0.84248449779E+01  0.63350604870E+01  0.11378764620E+02  0.51100000000E-03 0.  1.
        -12    1    3    3    0    0 -0.35488537575E+02  0.11688602748E+02 -0.38183043084E+01  0.37558476822E+02  0.00000000000E+00 0.  1.
</event>
<event>
 7    1  0.2090370E-015  0.9000764E+02  0.7816164E-02  0.1186339E+00
        -11   -1    0    0    0    0  0.00000000000E+00  0.00000000000E+00  0.45593999997E+02  0.45594000000E+02  0.51100000000E-03 0.  1.
         11   -1    0    0    0    0 -0.00000000000E+00 -0.00000000000E+00 -0.45593999997E+02  0.45594000000E+02  0.51100000000E-03 0. -1.
    9900012    2    1    2    0    0  0.50400278962E+00 -0.75245281159E+00  0.75699548539E+00  0.90007641491E+02  0.89999901558E+02 0.  0.
         12    1    1    2    0    0 -0.50400278962E+00  0.75245281159E+00 -0.75699548539E+00  0.11803585093E+01  0.00000000000E+00 0. -1.
         11    1    3    3    0    0 -0.73102361357E+01  0.33388547118E+02  0.17058737720E+02  0.38199936700E+02  0.51100000000E-03 0. -1.
        -11    1    3    3    0    0  0.59629422058E+01  0.46714608300E+01 -0.98393200186E+01  0.12417384778E+02  0.51100000000E-03 0.  1.
        -12    1    3    3    0    0  0.18512967196E+01 -0.38812460760E+02 -0.64624222160E+01  0.39390320012E+02  0.00000000000E+00 0.  1.
</event>
<event>
 7    1  0.2090370E-015  0.9000781E+02  0.7816164E-02  0.1186339E+00
        -11   -1    0    0    0    0  0.00000000000E+00  0.00000000000E+00  0.45593999997E+02  0.45594000000E+02  0.51100000000E-03 0.  1.
         11   -1    0    0    0    0 -0.00000000000E+00 -0.00000000000E+00 -0.45593999997E+02  0.45594000000E+02  0.51100000000E-03 0. -1.
    9900012    2    1    2    0    0 -0.29115098681E+00  0.60214542929E+00  0.97237387590E+00  0.90007805537E+02  0.90000067770E+02 0.  0.
         12    1    1    2    0    0  0.29115098681E+00 -0.60214542929E+00 -0.97237387590E+00  0.11801944627E+01  0.00000000000E+00 0. -1.
         11    1    3    3    0    0  0.22347356044E+01 -0.10644643154E+02 -0.50852812381E+01  0.12006771283E+02  0.51100000000E-03 0. -1.
        -11    1    3    3    0    0  0.50780538270E+01  0.41707025884E+02 -0.93289913711E+01  0.43038270400E+02  0.51100000000E-03 0.  1.
         12    1    3    3    0    0 -0.76039404183E+01 -0.30460237301E+02  0.15386646485E+02  0.34962763854E+02  0.00000000000E+00 0. -1.
</event>
<event>
 7    1  0.2498245E-015  0.9000772E+02  0.7816164E-02  0.1186339E+00
        -11   -1    0    0    0    0  0.00000000000E+00  0.00000000000E+00  0.45593999997E+02  0.45594000000E+02  0.51100000000E-03 0.  1.
         11   -1    0    0    0    0 -0.00000000000E+00 -0.00000000000E+00 -0.45593999997E+02  0.45594000000E+02  0.51100000000E-03 0. -1.
    9900012    2    1    2    0    0 -0.84118127314E+00 -0.81928639958E+00  0.11936040039E+00  0.90007719083E+02  0.89999980174E+02 0.  0.
         12    1    1    2    0    0  0.84118127314E+00  0.81928639958E+00 -0.11936040039E+00  0.11802809174E+01  0.00000000000E+00 0. -1.
         11    1    3    3    0    0 -0.37003109681E+02  0.89218494592E+01  0.13519734465E+02  0.40393226463E+02  0.51100000000E-03 0. -1.
        -11    1    3    3    0    0  0.23202631491E+01  0.88508109462E+01 -0.29318553511E+01  0.96081346549E+01  0.51100000000E-03 0.  1.
        -12    1    3    3    0    0  0.33841665259E+02 -0.18591946805E+02 -0.10468518714E+02  0.40006357964E+02  0.00000000000E+00 0.  1.
</event>
<event>
 7    1  0.2090370E-015  0.9000774E+02  0.7816164E-02  0.1186339E+00
        -11   -1    0    0    0    0  0.00000000000E+00  0.00000000000E+00  0.45593999997E+02  0.45594000000E+02  0.51100000000E-03 0.  1.
         11   -1    0    0    0    0 -0.00000000000E+00 -0.00000000000E+00 -0.45593999997E+02  0.45594000000E+02  0.51100000000E-03 0. -1.
    9900012    2    1    2    0    0  0.11382132375E+01 -0.25966764543E+00  0.17335539114E+00  0.90007742083E+02  0.90000003478E+02 0.  0.
         12    1    1    2    0    0 -0.11382132375E+01  0.25966764543E+00 -0.17335539114E+00  0.11802579175E+01  0.00000000000E+00 0. -1.
         11    1    3    3    0    0 -0.97922409101E+01  0.23052874008E+02  0.20670008680E+02  0.32474178068E+02  0.51100000000E-03 0. -1.
        -11    1    3    3    0    0  0.70259895498E+00  0.88585592207E+01  0.90413724878E+01  0.12677307817E+02  0.51100000000E-03 0.  1.
        -12    1    3    3    0    0  0.10227855193E+02 -0.32171100874E+02 -0.29538025777E+02  0.44856256198E+02  0.00000000000E+00 0.  1.
</event>
<event>
 7    1  0.2090370E-015  0.9000743E+02  0.7816164E-02  0.1186340E+00
        -11   -1    0    0    0    0  0.00000000000E+00  0.00000000000E+00  0.45593999997E+02  0.45594000000E+02  0.51100000000E-03 0.  1.
         11   -1    0    0    0    0 -0.00000000000E+00 -0.00000000000E+00 -0.45593999997E+02  0.45594000000E+02  0.51100000000E-03 0. -1.
    9900012    2    1    2    0    0 -0.28437121927E+00  0.11423570771E+01 -0.88907167251E-01  0.90007427611E+02  0.89999684855E+02 0.  0.
         12    1    1    2    0    0  0.28437121927E+00 -0.11423570771E+01  0.88907167251E-01  0.11805723892E+01  0.00000000000E+00 0. -1.
         11    1    3    3    0    0  0.17748900119E+01  0.99646615596E+01  0.12995266928E+01  0.10204581542E+02  0.51100000000E-03 0. -1.
        -11    1    3    3    0    0 -0.26356707025E+02 -0.25648481592E+02  0.21339671493E+02  0.42519433120E+02  0.51100000000E-03 0.  1.
         12    1    3    3    0    0  0.24297445793E+02  0.16826177109E+02 -0.22728105353E+02  0.37283412949E+02  0.00000000000E+00 0. -1.
</event>
<event>
 7    1  0.2090370E-015  0.9000772E+02  0.7816164E-02  0.1186339E+00
        -11   -1    0    0    0    0  0.00000000000E+00  0.00000000000E+00  0.45593999997E+02  0.45594000000E+02  0.51100000000E-03 0. -1.
         11   -1    0    0    0    0 -0.00000000000E+00 -0.00000000000E+00 -0.45593999997E+02  0.45594000000E+02  0.51100000000E-03 0.  1.
    9900012    2    1    2    0    0  0.49511910713E+00 -0.28957479797E+00 -0.10315303571E+01  0.90007724027E+02  0.89999985185E+02 0.  0.
         12    1    1    2    0    0 -0.49511910713E+00  0.28957479797E+00  0.10315303571E+01  0.11802759726E+01  0.00000000000E+00 0. -1.
         11    1    3    3    0    0 -0.98580082538E+01  0.23031625114E+02  0.28088256712E+02  0.37637564315E+02  0.51100000000E-03 0. -1.
        -11    1    3    3    0    0  0.87526307737E+01 -0.11539454544E+02  0.57088869957E+01  0.15567881925E+02  0.51100000000E-03 0.  1.
        -12    1    3    3    0    0  0.16004965873E+01 -0.11781745368E+02 -0.34828674065E+02  0.36802277788E+02  0.00000000000E+00 0.  1.
</event>
<event>
 7    1  0.2090370E-015  0.9000784E+02  0.7816164E-02  0.1186339E+00
        -11   -1    0    0    0    0  0.00000000000E+00  0.00000000000E+00  0.45593999997E+02  0.45594000000E+02  0.51100000000E-03 0.  1.
         11   -1    0    0    0    0 -0.00000000000E+00 -0.00000000000E+00 -0.45593999997E+02  0.45594000000E+02  0.51100000000E-03 0. -1.
    9900012    2    1    2    0    0  0.33005234961E+00 -0.10717381934E+01  0.36773755585E+00  0.90007835512E+02  0.90000098141E+02 0.  0.
         12    1    1    2    0    0 -0.33005234961E+00  0.10717381934E+01 -0.36773755585E+00  0.11801644880E+01  0.00000000000E+00 0. -1.
         11    1    3    3    0    0 -0.98870222343E+01  0.70347529131E+00  0.41878758722E+01  0.10760408483E+02  0.51100000000E-03 0. -1.
        -11    1    3    3    0    0 -0.34378770890E+02 -0.16979188221E+01  0.66032938984E+00  0.34427007587E+02  0.51100000000E-03 0.  1.
         12    1    3    3    0    0  0.44595845474E+02 -0.77294662668E-01 -0.44804677062E+01  0.44820419441E+02  0.00000000000E+00 0. -1.
</event>
<event>
 7    1  0.2090370E-015  0.9000757E+02  0.7816164E-02  0.1186339E+00
        -11   -1    0    0    0    0  0.00000000000E+00  0.00000000000E+00  0.45593999997E+02  0.45594000000E+02  0.51100000000E-03 0.  1.
         11   -1    0    0    0    0 -0.00000000000E+00 -0.00000000000E+00 -0.45593999997E+02  0.45594000000E+02  0.51100000000E-03 0. -1.
    9900012    2    1    2    0    0  0.55057466998E+00 -0.10224498980E+01  0.21185110968E+00  0.90007569081E+02  0.89999828193E+02 0.  0.
         12    1    1    2    0    0 -0.55057466998E+00  0.10224498980E+01 -0.21185110968E+00  0.11804309187E+01  0.00000000000E+00 0. -1.
         11    1    3    3    0    0  0.90186764550E+01 -0.57650985680E+01  0.52821663893E+01  0.11936254376E+02  0.51100000000E-03 0. -1.
        -11    1    3    3    0    0  0.13688472219E+02 -0.60212075508E+01  0.30984951781E+02  0.34404889902E+02  0.51100000000E-03 0.  1.
         12    1    3    3    0    0 -0.22156574004E+02  0.10763856221E+02 -0.36055267060E+02  0.43666424804E+02  0.00000000000E+00 0. -1.
</event>
<event>
 7    1  0.2090370E-015  0.9000730E+02  0.7816164E-02  0.1186340E+00
        -11   -1    0    0    0    0  0.00000000000E+00  0.00000000000E+00  0.45593999997E+02  0.45594000000E+02  0.51100000000E-03 0. -1.
         11   -1    0    0    0    0 -0.00000000000E+00 -0.00000000000E+00 -0.45593999997E+02  0.45594000000E+02  0.51100000000E-03 0.  1.
    9900012    2    1    2    0    0 -0.40269501255E+00 -0.11056588626E+01  0.96981236444E-01  0.90007300989E+02  0.89999556561E+02 0.  0.
         12    1    1    2    0    0  0.40269501255E+00  0.11056588626E+01 -0.96981236444E-01  0.11806990107E+01  0.00000000000E+00 0. -1.
         11    1    3    3    0    0 -0.10999359132E+01 -0.13147637442E+01 -0.71744839029E+01  0.73764274720E+01  0.51100000000E-03 0. -1.
        -11    1    3    3    0    0  0.98143395860E+01  0.13540076999E+02 -0.34230596257E+02  0.38097095257E+02  0.51100000000E-03 0.  1.
         12    1    3    3    0    0 -0.91170986853E+01 -0.13330972118E+02  0.41502061396E+02  0.44533778260E+02  0.00000000000E+00 0. -1.
</event>
<event>
 7    1  0.2090370E-015  0.9000767E+02  0.7816164E-02  0.1186339E+00
        -11   -1    0    0    0    0  0.00000000000E+00  0.00000000000E+00  0.45593999997E+02  0.45594000000E+02  0.51100000000E-03 0.  1.
         11   -1    0    0    0    0 -0.00000000000E+00 -0.00000000000E+00 -0.45593999997E+02  0.45594000000E+02  0.51100000000E-03 0. -1.
    9900012    2    1    2    0    0 -0.77420457169E-02 -0.92379026543E+00 -0.73466375052E+00  0.90007669868E+02  0.89999930310E+02 0.  0.
         12    1    1    2    0    0  0.77420457169E-02  0.92379026543E+00  0.73466375052E+00  0.11803301318E+01  0.00000000000E+00 0. -1.
         11    1    3    3    0    0  0.86665714496E+01 -0.35968428493E+01  0.28271433221E+01  0.97999734080E+01  0.51100000000E-03 0. -1.
        -11    1    3    3    0    0  0.28265330649E+01 -0.37838581936E+02 -0.33866283984E+01  0.38094839864E+02  0.51100000000E-03 0.  1.
         12    1    3    3    0    0 -0.11500846560E+02  0.40511634520E+02 -0.17517867421E+00  0.42112856596E+02  0.00000000000E+00 0. -1.
</event>
<event>
 7    1  0.2090370E-015  0.9000764E+02  0.7816164E-02  0.1186339E+00
        -11   -1    0    0    0    0  0.00000000000E+00  0.00000000000E+00  0.45593999997E+02  0.45594000000E+02  0.51100000000E-03 0. -1.
         11   -1    0    0    0    0 -0.00000000000E+00 -0.00000000000E+00 -0.45593999997E+02  0.45594000000E+02  0.51100000000E-03 0.  1.
    9900012    2    1    2    0    0  0.22012869349E+00 -0.86156182002E+00 -0.77621304819E+00  0.90007638993E+02  0.89999899027E+02 0.  0.
         12    1    1    2    0    0 -0.22012869349E+00  0.86156182002E+00  0.77621304819E+00  0.11803610073E+01  0.00000000000E+00 0. -1.
         11    1    3    3    0    0 -0.42128214742E+01  0.24417990712E+01  0.78084230155E+01  0.92022669886E+01  0.51100000000E-03 0. -1.
        -11    1    3    3    0    0  0.22298187523E+02 -0.32153718371E+02  0.12230836853E+02  0.40995903969E+02  0.51100000000E-03 0.  1.
         12    1    3    3    0    0 -0.17865237355E+02  0.28850357479E+02 -0.20815472917E+02  0.39809468035E+02  0.00000000000E+00 0. -1.
</event>
<event>
 7    1  0.2805509E-015  0.9000783E+02  0.7816164E-02  0.1186339E+00
        -11   -1    0    0    0    0  0.00000000000E+00  0.00000000000E+00  0.45593999997E+02  0.45594000000E+02  0.51100000000E-03 0. -1.
         11   -1    0    0    0    0 -0.00000000000E+00 -0.00000000000E+00 -0.45593999997E+02  0.45594000000E+02  0.51100000000E-03 0.  1.
    9900012    2    1    2    0    0 -0.55128023751E+00 -0.56515829113E+00 -0.87720893490E+00  0.90007826576E+02  0.90000089087E+02 0.  0.
         12    1    1    2    0    0  0.55128023751E+00  0.56515829113E+00  0.87720893490E+00  0.11801734236E+01  0.00000000000E+00 0. -1.
         11    1    3    3    0    0  0.34890166496E+01  0.17681869235E+02  0.37609563195E+02  0.41704927537E+02  0.51100000000E-03 0. -1.
        -11    1    3    3    0    0 -0.70037047867E+01  0.24140314919E+01 -0.53408399239E+01  0.91325790518E+01  0.51100000000E-03 0.  1.
        -12    1    3    3    0    0  0.29634078996E+01 -0.20661059018E+02 -0.33145932206E+02  0.39170319988E+02  0.00000000000E+00 0.  1.
</event>
<event>
 7    1  0.2090370E-015  0.9000771E+02  0.7816164E-02  0.1186339E+00
        -11   -1    0    0    0    0  0.00000000000E+00  0.00000000000E+00  0.45593999997E+02  0.45594000000E+02  0.51100000000E-03 0.  1.
         11   -1    0    0    0    0 -0.00000000000E+00 -0.00000000000E+00 -0.45593999997E+02  0.45594000000E+02  0.51100000000E-03 0. -1.
    9900012    2    1    2    0    0 -0.10272574341E+01 -0.38401285340E+00  0.43629456728E+00  0.90007713316E+02  0.89999974332E+02 0.  0.
         12    1    1    2    0    0  0.10272574341E+01  0.38401285340E+00 -0.43629456728E+00  0.11802866842E+01  0.00000000000E+00 0. -1.
         11    1    3    3    0    0  0.26860868768E+02  0.58392534718E+01 -0.29662889646E+02  0.40441194029E+02  0.51100000000E-03 0. -1.
        -11    1    3    3    0    0 -0.68730115761E+01 -0.61035698342E+01 -0.35832638339E+01  0.98656795412E+01  0.51100000000E-03 0.  1.
        -12    1    3    3    0    0 -0.21015114626E+02 -0.11969649102E+00  0.33682448048E+02  0.39700839745E+02  0.00000000000E+00 0.  1.
</event>
<event>
 7    1  0.2090370E-015  0.9000784E+02  0.7816164E-02  0.1186339E+00
        -11   -1    0    0    0    0  0.00000000000E+00  0.00000000000E+00  0.45593999997E+02  0.45594000000E+02  0.51100000000E-03 0. -1.
         11   -1    0    0    0    0 -0.00000000000E+00 -0.00000000000E+00 -0.45593999997E+02  0.45594000000E+02  0.51100000000E-03 0.  1.
    9900012    2    1    2    0    0 -0.78052517846E+00 -0.88346532891E+00  0.55146269957E-01  0.90007842531E+02  0.90000105252E+02 0.  0.
         12    1    1    2    0    0  0.78052517846E+00  0.88346532891E+00 -0.55146269957E-01  0.11801574694E+01  0.00000000000E+00 0. -1.
         11    1    3    3    0    0  0.96595488232E+01 -0.15244944214E+01 -0.10836906065E+01  0.98389710997E+01  0.51100000000E-03 0. -1.
        -11    1    3    3    0    0 -0.11769100674E+02  0.39280533621E+02 -0.38494566189E+01  0.41186045801E+02  0.51100000000E-03 0.  1.
         12    1    3    3    0    0  0.13290266719E+01 -0.38639504528E+02  0.49882934953E+01  0.38982825630E+02  0.00000000000E+00 0. -1.
</event>
<event>
 7    1  0.2090370E-015  0.9000767E+02  0.7816164E-02  0.1186339E+00
        -11   -1    0    0    0    0  0.00000000000E+00  0.00000000000E+00  0.45593999997E+02  0.45594000000E+02  0.51100000000E-03 0.  1.
         11   -1    0    0    0    0 -0.00000000000E+00 -0.00000000000E+00 -0.45593999997E+02  0.45594000000E+02  0.51100000000E-03 0. -1.
    9900012    2    1    2    0    0 -0.16989205130E-01  0.10288212419E+01 -0.57828596861E+00  0.90007671045E+02  0.89999931503E+02 0.  0.
         12    1    1    2    0    0  0.16989205130E-01 -0.10288212419E+01  0.57828596861E+00  0.11803289552E+01  0.00000000000E+00 0. -1.
         11    1    3    3    0    0 -0.17454074588E+02  0.32517382594E+02 -0.67842182328E+01  0.37523999091E+02  0.51100000000E-03 0. -1.
        -11    1    3    3    0    0 -0.42370087852E+01  0.59407583088E+01  0.56494306249E+01  0.92282674092E+01  0.51100000000E-03 0.  1.
        -12    1    3    3    0    0  0.21674094169E+02 -0.37429319660E+02  0.55650163923E+00  0.43255404545E+02  0.00000000000E+00 0.  1.
</event>
<event>
 7    1  0.2090370E-015  0.9000777E+02  0.7816164E-02  0.1186339E+00
        -11   -1    0    0    0    0  0.00000000000E+00  0.00000000000E+00  0.45593999997E+02  0.45594000000E+02  0.51100000000E-03 0.  1.
         11   -1    0    0    0    0 -0.00000000000E+00 -0.00000000000E+00 -0.45593999997E+02  0.45594000000E+02  0.51100000000E-03 0. -1.
    9900012    2    1    2    0    0  0.75615039541E+00 -0.39014337668E+00 -0.81790519685E+00  0.90007769435E+02  0.90000031192E+02 0.  0.
         12    1    1    2    0    0 -0.75615039541E+00  0.39014337668E+00  0.81790519685E+00  0.11802305647E+01  0.00000000000E+00 0. -1.
         11    1    3    3    0    0  0.39211406729E+02  0.32998566474E+01  0.33378373972E+00  0.39351427971E+02  0.51100000000E-03 0. -1.
        -11    1    3    3    0    0  0.88489428551E+00 -0.30305123027E+01 -0.98646117093E+01  0.10357490389E+02  0.51100000000E-03 0.  1.
        -12    1    3    3    0    0 -0.39340150619E+02 -0.65948772142E+00  0.87129227728E+01  0.40298851075E+02  0.00000000000E+00 0.  1.
</event>
<event>
 7    1  0.2090370E-015  0.9000772E+02  0.7816164E-02  0.1186339E+00
        -11   -1    0    0    0    0  0.00000000000E+00  0.00000000000E+00  0.45593999997E+02  0.45594000000E+02  0.51100000000E-03 0. -1.
         11   -1    0    0    0    0 -0.00000000000E+00 -0.00000000000E+00 -0.45593999997E+02  0.45594000000E+02  0.51100000000E-03 0.  1.
    9900012    2    1    2    0    0 -0.35600568189E+00 -0.97311442765E+00 -0.56512819736E+00  0.90007719688E+02  0.89999980788E+02 0.  0.
         12    1    1    2    0    0  0.35600568189E+00  0.97311442765E+00  0.56512819736E+00  0.11802803117E+01  0.00000000000E+00 0. -1.
         11    1    3    3    0    0  0.14895120448E+00 -0.71768419625E+01  0.54765200054E+01  0.90289267716E+01  0.51100000000E-03 0. -1.
        -11    1    3    3    0    0  0.43242783776E+01 -0.26610741166E+02 -0.29795612907E+02  0.40182203494E+02  0.51100000000E-03 0.  1.
         12    1    3    3    0    0 -0.48292352639E+01  0.32814468700E+02  0.23753964704E+02  0.40796589422E+02  0.00000000000E+00 0. -1.
</event>
<event>
 7    1  0.2090370E-015  0.9000772E+02  0.7816164E-02  0.1186339E+00
        -11   -1    0    0    0    0  0.00000000000E+00  0.00000000000E+00  0.45593999997E+02  0.45594000000E+02  0.51100000000E-03 0.  1.
         11   -1    0    0    0    0 -0.00000000000E+00 -0.00000000000E+00 -0.45593999997E+02  0.45594000000E+02  0.51100000000E-03 0. -1.
    9900012    2    1    2    0    0  0.10016873456E+01  0.82856734748E-01  0.61871646194E+00  0.90007723407E+02  0.89999984555E+02 0.  0.
         12    1    1    2    0    0 -0.10016873456E+01 -0.82856734748E-01 -0.61871646194E+00  0.11802765935E+01  0.00000000000E+00 0. -1.
         11    1    3    3    0    0 -0.11498407405E+02  0.15468517140E+01  0.68445878167E+01  0.13470505028E+02  0.51100000000E-03 0. -1.
        -11    1    3    3    0    0  0.56883940645E+01 -0.22202348161E+02  0.27850667266E+02  0.36068847478E+02  0.51100000000E-03 0.  1.
         12    1    3    3    0    0  0.68117006863E+01  0.20738353182E+02 -0.34076538621E+02  0.40468370901E+02  0.00000000000E+00 0. -1.
</event>
<event>
 7    1  0.2090370E-015  0.9000770E+02  0.7816164E-02  0.1186339E+00
        -11   -1    0    0    0    0  0.00000000000E+00  0.00000000000E+00  0.45593999997E+02  0.45594000000E+02  0.51100000000E-03 0.  1.
         11   -1    0    0    0    0 -0.00000000000E+00 -0.00000000000E+00 -0.45593999997E+02  0.45594000000E+02  0.51100000000E-03 0. -1.
    9900012    2    1    2    0    0 -0.25761619018E+00 -0.10304320748E+01  0.51473222556E+00  0.90007701044E+02  0.89999961897E+02 0.  0.
         12    1    1    2    0    0  0.25761619018E+00  0.10304320748E+01 -0.51473222556E+00  0.11802989563E+01  0.00000000000E+00 0. -1.
         11    1    3    3    0    0  0.30478747653E+02  0.18535105764E+01 -0.20247532451E+02  0.36638124005E+02  0.51100000000E-03 0. -1.
        -11    1    3    3    0    0  0.75202002388E+01 -0.38461041814E+01 -0.22156706064E+01  0.87324180788E+01  0.51100000000E-03 0.  1.
        -12    1    3    3    0    0 -0.38256564082E+02  0.96216153018E+00  0.22977935282E+02  0.44637158960E+02  0.00000000000E+00 0.  1.
</event>
<event>
 7    1  0.2090370E-015  0.9000779E+02  0.7816164E-02  0.1186339E+00
        -11   -1    0    0    0    0  0.00000000000E+00  0.00000000000E+00  0.45593999997E+02  0.45594000000E+02  0.51100000000E-03 0. -1.
         11   -1    0    0    0    0 -0.00000000000E+00 -0.00000000000E+00 -0.45593999997E+02  0.45594000000E+02  0.51100000000E-03 0.  1.
    9900012    2    1    2    0    0  0.29715239718E+00  0.50797459672E+00  0.10230104890E+01  0.90007793154E+02  0.90000055224E+02 0.  0.
         12    1    1    2    0    0 -0.29715239718E+00 -0.50797459672E+00 -0.10230104890E+01  0.11802068457E+01  0.00000000000E+00 0. -1.
         11    1    3    3    0    0 -0.68530675959E+01 -0.66937084309E+01  0.30088519129E+01  0.10041088493E+02  0.51100000000E-03 0. -1.
        -11    1    3    3    0    0 -0.13750018494E+01 -0.23443066987E+02  0.27798904598E+02  0.36390206333E+02  0.51100000000E-03 0.  1.
         12    1    3    3    0    0  0.85252218424E+01  0.30644750015E+02 -0.29784746022E+02  0.43576498328E+02  0.00000000000E+00 0. -1.
</event>
<event>
 7    1  0.2090370E-015  0.9000773E+02  0.7816164E-02  0.1186339E+00
        -11   -1    0    0    0    0  0.00000000000E+00  0.00000000000E+00  0.45593999997E+02  0.45594000000E+02  0.51100000000E-03 0.  1.
         11   -1    0    0    0    0 -0.00000000000E+00 -0.00000000000E+00 -0.45593999997E+02  0.45594000000E+02  0.51100000000E-03 0. -1.
    9900012    2    1    2    0    0 -0.82235429753E+00 -0.54519722064E+00 -0.64770626969E+00  0.90007733076E+02  0.89999994353E+02 0.  0.
         12    1    1    2    0    0  0.82235429753E+00  0.54519722064E+00  0.64770626969E+00  0.11802669240E+01  0.00000000000E+00 0. -1.
         11    1    3    3    0    0 -0.50409725484E+00 -0.82919496927E+00 -0.88866549743E+01  0.89394807026E+01  0.51100000000E-03 0. -1.
        -11    1    3    3    0    0 -0.31997458480E+02 -0.16058623277E+01  0.28943745041E+02  0.43175878917E+02  0.51100000000E-03 0.  1.
         12    1    3    3    0    0  0.31679201437E+02  0.18898600764E+01 -0.20704796337E+02  0.37892373456E+02  0.00000000000E+00 0. -1.
</event>
<event>
 7    1  0.2090370E-015  0.9000777E+02  0.7816164E-02  0.1186339E+00
        -11   -1    0    0    0    0  0.00000000000E+00  0.00000000000E+00  0.45593999997E+02  0.45594000000E+02  0.51100000000E-03 0. -1.
         11   -1    0    0    0    0 -0.00000000000E+00 -0.00000000000E+00 -0.45593999997E+02  0.45594000000E+02  0.51100000000E-03 0.  1.
    9900012    2    1    2    0    0 -0.82262485713E-01 -0.11654320141E+01 -0.16715574596E+00  0.90007771234E+02  0.90000033015E+02 0.  0.
         12    1    1    2    0    0  0.82262485713E-01  0.11654320141E+01  0.16715574596E+00  0.11802287658E+01  0.00000000000E+00 0. -1.
         11    1    3    3    0    0  0.36695483378E+01 -0.37102954730E+02 -0.22470751882E+02  0.43531936840E+02  0.51100000000E-03 0. -1.
        -11    1    3    3    0    0 -0.29268409289E+01  0.73419133175E+00  0.78534854383E+01  0.84132436388E+01  0.51100000000E-03 0.  1.
        -12    1    3    3    0    0 -0.82496989467E+00  0.35203331384E+02  0.14450110697E+02  0.38062590755E+02  0.00000000000E+00 0.  1.
</event>
<event>
 7    1  0.2090370E-015  0.9000773E+02  0.7816164E-02  0.1186339E+00
        -11   -1    0    0    0    0  0.00000000000E+00  0.00000000000E+00  0.45593999997E+02  0.45594000000E+02  0.51100000000E-03 0. -1.
         11   -1    0    0    0    0 -0.00000000000E+00 -0.00000000000E+00 -0.45593999997E+02  0.45594000000E+02  0.51100000000E-03 0.  1.
    9900012    2    1    2    0    0  0.19820434726E+00  0.11610052311E+01 -0.76224127406E-01  0.90007733832E+02  0.89999995119E+02 0.  0.
         12    1    1    2    0    0 -0.19820434726E+00 -0.11610052311E+01  0.76224127406E-01  0.11802661681E+01  0.00000000000E+00 0. -1.
         11    1    3    3    0    0  0.11577955329E+02  0.18687255843E+02  0.29685236380E+02  0.36938812106E+02  0.51100000000E-03 0. -1.
        -11    1    3    3    0    0 -0.12670782841E+01  0.11280341475E+01  0.88499738317E+01  0.90111034562E+01  0.51100000000E-03 0.  1.
        -12    1    3    3    0    0 -0.10112672698E+02 -0.18654284759E+02 -0.38611434340E+02  0.44057818270E+02  0.00000000000E+00 0.  1.
</event>
<event>
 7    1  0.2090370E-015  0.9000772E+02  0.7816164E-02  0.1186339E+00
        -11   -1    0    0    0    0  0.00000000000E+00  0.00000000000E+00  0.45593999997E+02  0.45594000000E+02  0.51100000000E-03 0. -1.
         11   -1    0    0    0    0 -0.00000000000E+00 -0.00000000000E+00 -0.45593999997E+02  0.45594000000E+02  0.51100000000E-03 0.  1.
    9900012    2    1    2    0    0 -0.41175241544E+00 -0.10250760042E+01 -0.41561197758E+00  0.90007722837E+02  0.89999983978E+02 0.  0.
         12    1    1    2    0    0  0.41175241544E+00  0.10250760042E+01  0.41561197758E+00  0.11802771632E+01  0.00000000000E+00 0. -1.
         11    1    3    3    0    0 -0.18282245428E+00 -0.95335872337E+01 -0.35912451620E+01  0.10189197793E+02  0.51100000000E-03 0. -1.
        -11    1    3    3    0    0  0.35412765082E+02 -0.11326763132E+02 -0.68721778101E+01  0.37809870694E+02  0.51100000000E-03 0.  1.
         12    1    3    3    0    0 -0.35641695043E+02  0.19835274361E+02  0.10047810995E+02  0.42008654350E+02  0.00000000000E+00 0. -1.
</event>
<event>
 7    1  0.2090370E-015  0.9000785E+02  0.7816164E-02  0.1186339E+00
        -11   -1    0    0    0    0  0.00000000000E+00  0.00000000000E+00  0.45593999997E+02  0.45594000000E+02  0.51100000000E-03 0.  1.
         11   -1    0    0    0    0 -0.00000000000E+00 -0.00000000000E+00 -0.45593999997E+02  0.45594000000E+02  0.51100000000E-03 0. -1.
    9900012    2    1    2    0    0 -0.21508164962E+00 -0.27449592890E+00  0.11274514683E+01  0.90007849609E+02  0.90000112424E+02 0.  0.
         12    1    1    2    0    0  0.21508164962E+00  0.27449592890E+00 -0.11274514683E+01  0.11801503906E+01  0.00000000000E+00 0. -1.
         11    1    3    3    0    0  0.95804543463E+01  0.58383697441E+01 -0.12862507798E+01  0.11292745817E+02  0.51100000000E-03 0. -1.
        -11    1    3    3    0    0  0.21010589379E+02 -0.15834744802E+02 -0.25040496883E+02  0.36320937397E+02  0.51100000000E-03 0.  1.
         12    1    3    3    0    0 -0.30806125375E+02  0.97218791288E+01  0.27454199131E+02  0.42394166395E+02  0.00000000000E+00 0. -1.
</event>
<event>
 7    1  0.2090370E-015  0.9000771E+02  0.7816164E-02  0.1186339E+00
        -11   -1    0    0    0    0  0.00000000000E+00  0.00000000000E+00  0.45593999997E+02  0.45594000000E+02  0.51100000000E-03 0.  1.
         11   -1    0    0    0    0 -0.00000000000E+00 -0.00000000000E+00 -0.45593999997E+02  0.45594000000E+02  0.51100000000E-03 0. -1.
    9900012    2    1    2    0    0 -0.23349558669E+00 -0.86559141295E-01  0.11537183079E+01  0.90007712489E+02  0.89999973494E+02 0.  0.
         12    1    1    2    0    0  0.23349558669E+00  0.86559141295E-01 -0.11537183079E+01  0.11802875107E+01  0.00000000000E+00 0. -1.
         11    1    3    3    0    0 -0.61163049360E+01 -0.93788179242E+01  0.12414239689E+02  0.16717797673E+02  0.51100000000E-03 0. -1.
        -11    1    3    3    0    0  0.16009758390E+02  0.76714745460E+01  0.27756088534E+02  0.32947903368E+02  0.51100000000E-03 0.  1.
         12    1    3    3    0    0 -0.10126949041E+02  0.16207842369E+01 -0.39016609915E+02  0.40342011448E+02  0.00000000000E+00 0. -1.
</event>
<event>
 7    1  0.2090370E-015  0.9000775E+02  0.7816164E-02  0.1186339E+00
        -11   -1    0    0    0    0  0.00000000000E+00  0.00000000000E+00  0.45593999997E+02  0.45594000000E+02  0.51100000000E-03 0.  1.
         11   -1    0    0    0    0 -0.00000000000E+00 -0.00000000000E+00 -0.45593999997E+02  0.45594000000E+02  0.51100000000E-03 0. -1.
    9900012    2    1    2    0    0  0.15828885662E+00 -0.94195169981E+00  0.69330542460E+00  0.90007745460E+02  0.90000006900E+02 0.  0.
         12    1    1    2    0    0 -0.15828885662E+00  0.94195169981E+00 -0.69330542460E+00  0.11802545398E+01  0.00000000000E+00 0. -1.
         11    1    3    3    0    0  0.13738004497E+02 -0.78071775720E+01 -0.20437809630E+02  0.25833870247E+02  0.51100000000E-03 0. -1.
        -11    1    3    3    0    0 -0.95455371562E+01  0.11037900631E+02 -0.18813577282E+02  0.23809729531E+02  0.51100000000E-03 0.  1.
        -12    1    3    3    0    0 -0.40341784845E+01 -0.41726747590E+01  0.39944692337E+02  0.40364145681E+02  0.00000000000E+00 0.  1.
</event>
<event>
 7    1  0.2090370E-015  0.9000766E+02  0.7816164E-02  0.1186339E+00
        -11   -1    0    0    0    0  0.00000000000E+00  0.00000000000E+00  0.45593999997E+02  0.45594000000E+02  0.51100000000E-03 0. -1.
         11   -1    0    0    0    0 -0.00000000000E+00 -0.00000000000E+00 -0.45593999997E+02  0.45594000000E+02  0.51100000000E-03 0.  1.
    9900012    2    1    2    0    0 -0.26287942998E+00 -0.11506852298E+01  0.54204070511E-02  0.90007656205E+02  0.89999916467E+02 0.  0.
         12    1    1    2    0    0  0.26287942998E+00  0.11506852298E+01 -0.54204070511E-02  0.11803437946E+01  0.00000000000E+00 0. -1.
         11    1    3    3    0    0 -0.24509777839E+01  0.33862457151E+01 -0.14429716584E+01  0.44222301623E+01  0.51100000000E-03 0. -1.
        -11    1    3    3    0    0 -0.31530900217E+02  0.10593241718E+02  0.25132275923E+02  0.41689875653E+02  0.51100000000E-03 0.  1.
         12    1    3    3    0    0  0.33718998571E+02 -0.15130172663E+02 -0.23683883858E+02  0.43895550390E+02  0.00000000000E+00 0. -1.
</event>
<event>
 7    1  0.2090370E-015  0.9000715E+02  0.7816164E-02  0.1186340E+00
        -11   -1    0    0    0    0  0.00000000000E+00  0.00000000000E+00  0.45593999997E+02  0.45594000000E+02  0.51100000000E-03 0.  1.
         11   -1    0    0    0    0 -0.00000000000E+00 -0.00000000000E+00 -0.45593999997E+02  0.45594000000E+02  0.51100000000E-03 0. -1.
    9900012    2    1    2    0    0 -0.12362912061E+00  0.66744627797E+00  0.96625346037E+00  0.90007146731E+02  0.89999400266E+02 0.  0.
         12    1    1    2    0    0  0.12362912061E+00 -0.66744627797E+00 -0.96625346037E+00  0.11808532691E+01  0.00000000000E+00 0. -1.
         11    1    3    3    0    0 -0.14242788512E+02  0.24828746868E+02 -0.20918252038E+02  0.35452742689E+02  0.51100000000E-03 0. -1.
        -11    1    3    3    0    0 -0.14299778927E+02 -0.56376901892E+01  0.27751777573E+01  0.15619501909E+02  0.51100000000E-03 0.  1.
        -12    1    3    3    0    0  0.28418938318E+02 -0.18523610401E+02  0.19109327741E+02  0.38934902133E+02  0.00000000000E+00 0.  1.
</event>
<event>
 7    1  0.2090370E-015  0.9000729E+02  0.7816164E-02  0.1186340E+00
        -11   -1    0    0    0    0  0.00000000000E+00  0.00000000000E+00  0.45593999997E+02  0.45594000000E+02  0.51100000000E-03 0.  1.
         11   -1    0    0    0    0 -0.00000000000E+00 -0.00000000000E+00 -0.45593999997E+02  0.45594000000E+02  0.51100000000E-03 0. -1.
    9900012    2    1    2    0    0 -0.41525785177E+00  0.71965273187E+00  0.83888662321E+00  0.90007292625E+02  0.89999548087E+02 0.  0.
         12    1    1    2    0    0  0.41525785177E+00 -0.71965273187E+00 -0.83888662321E+00  0.11807073746E+01  0.00000000000E+00 0. -1.
         11    1    3    3    0    0  0.51633933901E+00  0.37619536344E+02 -0.13454503981E+02  0.39956473802E+02  0.51100000000E-03 0. -1.
        -11    1    3    3    0    0  0.91223163015E+01  0.30501902758E+00  0.58560221493E+00  0.91461807071E+01  0.51100000000E-03 0.  1.
        -12    1    3    3    0    0 -0.10053913492E+02 -0.37204902640E+02  0.13707788389E+02  0.40904638117E+02  0.00000000000E+00 0.  1.
</event>
<event>
 7    1  0.2090370E-015  0.9000800E+02  0.7816164E-02  0.1186339E+00
        -11   -1    0    0    0    0  0.00000000000E+00  0.00000000000E+00  0.45593999997E+02  0.45594000000E+02  0.51100000000E-03 0.  1.
         11   -1    0    0    0    0 -0.00000000000E+00 -0.00000000000E+00 -0.45593999997E+02  0.45594000000E+02  0.51100000000E-03 0. -1.
    9900012    2    1    2    0    0 -0.40371296033E+00 -0.92195170399E+00 -0.61597901788E+00  0.90007996081E+02  0.90000260829E+02 0.  0.
         12    1    1    2    0    0  0.40371296033E+00  0.92195170399E+00  0.61597901788E+00  0.11800039192E+01  0.00000000000E+00 0. -1.
         11    1    3    3    0    0  0.23356526343E+02  0.21813253117E+02 -0.13498818353E+02  0.34692411729E+02  0.51100000000E-03 0. -1.
        -11    1    3    3    0    0  0.58477093228E+01  0.62437500850E+01 -0.53088339225E+01  0.10067960932E+02  0.51100000000E-03 0.  1.
        -12    1    3    3    0    0 -0.29607948626E+02 -0.28978954906E+02  0.18191673257E+02  0.45247623420E+02  0.00000000000E+00 0.  1.
</event>
<event>
 7    1  0.2090370E-015  0.9000781E+02  0.7816164E-02  0.1186339E+00
        -11   -1    0    0    0    0  0.00000000000E+00  0.00000000000E+00  0.45593999997E+02  0.45594000000E+02  0.51100000000E-03 0. -1.
         11   -1    0    0    0    0 -0.00000000000E+00 -0.00000000000E+00 -0.45593999997E+02  0.45594000000E+02  0.51100000000E-03 0.  1.
    9900012    2    1    2    0    0 -0.65017758693E+00  0.88717111402E+00 -0.42783827577E+00  0.90007809731E+02  0.90000072020E+02 0.  0.
         12    1    1    2    0    0  0.65017758693E+00 -0.88717111402E+00  0.42783827577E+00  0.11801902687E+01  0.00000000000E+00 0. -1.
         11    1    3    3    0    0 -0.28976123052E-01 -0.96404751044E+01 -0.47219582142E+01  0.10734826011E+02  0.51100000000E-03 0. -1.
        -11    1    3    3    0    0 -0.24931637673E+02 -0.22689405794E+02 -0.10848904031E+02  0.35413195440E+02  0.51100000000E-03 0.  1.
         12    1    3    3    0    0  0.24310436209E+02  0.33217052012E+02  0.15143023969E+02  0.43859788280E+02  0.00000000000E+00 0. -1.
</event>
<event>
 7    1  0.2090370E-015  0.9000777E+02  0.7816164E-02  0.1186339E+00
        -11   -1    0    0    0    0  0.00000000000E+00  0.00000000000E+00  0.45593999997E+02  0.45594000000E+02  0.51100000000E-03 0.  1.
         11   -1    0    0    0    0 -0.00000000000E+00 -0.00000000000E+00 -0.45593999997E+02  0.45594000000E+02  0.51100000000E-03 0. -1.
    9900012    2    1    2    0    0  0.97344485395E+00 -0.58395315571E+00  0.32304324346E+00  0.90007765655E+02  0.90000027362E+02 0.  0.
         12    1    1    2    0    0 -0.97344485395E+00  0.58395315571E+00 -0.32304324346E+00  0.11802343449E+01  0.00000000000E+00 0. -1.
         11    1    3    3    0    0 -0.83090103130E+01 -0.31397096745E+01  0.13406888097E+01  0.89830326709E+01  0.51100000000E-03 0. -1.
        -11    1    3    3    0    0 -0.18789565760E+02 -0.30929286422E+02  0.62619665911E+01  0.36727112136E+02  0.51100000000E-03 0.  1.
         12    1    3    3    0    0  0.28072020927E+02  0.33485042940E+02 -0.72796121573E+01  0.44297620848E+02  0.00000000000E+00 0. -1.
</event>
<event>
 7    1  0.2090370E-015  0.9000703E+02  0.7816164E-02  0.1186340E+00
        -11   -1    0    0    0    0  0.00000000000E+00  0.00000000000E+00  0.45593999997E+02  0.45594000000E+02  0.51100000000E-03 0.  1.
         11   -1    0    0    0    0 -0.00000000000E+00 -0.00000000000E+00 -0.45593999997E+02  0.45594000000E+02  0.51100000000E-03 0. -1.
    9900012    2    1    2    0    0  0.11636588252E+01  0.12646303069E+00 -0.15680243961E+00  0.90007033546E+02  0.89999285586E+02 0.  0.
         12    1    1    2    0    0 -0.11636588252E+01 -0.12646303069E+00  0.15680243961E+00  0.11809664537E+01  0.00000000000E+00 0. -1.
         11    1    3    3    0    0 -0.28157161479E+00 -0.18161656426E+02 -0.32933042554E+02  0.37609976587E+02  0.51100000000E-03 0. -1.
        -11    1    3    3    0    0  0.33371816200E+01 -0.66455728773E+01 -0.35946496458E+01  0.82596565528E+01  0.51100000000E-03 0.  1.
        -12    1    3    3    0    0 -0.18919511800E+01  0.24933692334E+02  0.36370889761E+02  0.44137400407E+02  0.00000000000E+00 0.  1.
</event>
<event>
 7    1  0.2090370E-015  0.9000757E+02  0.7816164E-02  0.1186339E+00
        -11   -1    0    0    0    0  0.00000000000E+00  0.00000000000E+00  0.45593999997E+02  0.45594000000E+02  0.51100000000E-03 0.  1.
         11   -1    0    0    0    0 -0.00000000000E+00 -0.00000000000E+00 -0.45593999997E+02  0.45594000000E+02  0.51100000000E-03 0. -1.
    9900012    2    1    2    0    0  0.72572517841E+00 -0.92332677750E+00  0.11916413158E+00  0.90007572339E+02  0.89999831494E+02 0.  0.
         12    1    1    2    0    0 -0.72572517841E+00  0.92332677750E+00 -0.11916413158E+00  0.11804276610E+01  0.00000000000E+00 0. -1.
         11    1    3    3    0    0  0.92493517936E+01  0.20137166845E+02 -0.34287890870E+02  0.40825426608E+02  0.51100000000E-03 0. -1.
        -11    1    3    3    0    0 -0.12312771315E+02 -0.11308228255E+02  0.42323864910E+01  0.17245099576E+02  0.51100000000E-03 0.  1.
        -12    1    3    3    0    0  0.37891447003E+01 -0.97522653677E+01  0.30174668511E+02  0.31937046155E+02  0.00000000000E+00 0.  1.
</event>
<event>
 7    1  0.2090370E-015  0.9000772E+02  0.7816164E-02  0.1186339E+00
        -11   -1    0    0    0    0  0.00000000000E+00  0.00000000000E+00  0.45593999997E+02  0.45594000000E+02  0.51100000000E-03 0.  1.
         11   -1    0    0    0    0 -0.00000000000E+00 -0.00000000000E+00 -0.45593999997E+02  0.45594000000E+02  0.51100000000E-03 0. -1.
    9900012    2    1    2    0    0  0.26712741093E+00  0.84893142879E+00  0.77525758741E+00  0.90007717851E+02  0.89999978927E+02 0.  0.
         12    1    1    2    0    0 -0.26712741093E+00 -0.84893142879E+00 -0.77525758741E+00  0.11802821490E+01  0.00000000000E+00 0. -1.
         11    1    3    3    0    0 -0.39426031429E+01 -0.46181146474E+01 -0.44027450136E+01  0.75003510821E+01  0.51100000000E-03 0. -1.
        -11    1    3    3    0    0 -0.17694388230E+02 -0.33266955716E+02  0.49863394416E+01  0.38008489825E+02  0.51100000000E-03 0.  1.
         12    1    3    3    0    0  0.21904118783E+02  0.38734001793E+02  0.19166315940E+00  0.44498876944E+02  0.00000000000E+00 0. -1.
</event>
<event>
 7    1  0.2090370E-015  0.9000777E+02  0.7816164E-02  0.1186339E+00
        -11   -1    0    0    0    0  0.00000000000E+00  0.00000000000E+00  0.45593999997E+02  0.45594000000E+02  0.51100000000E-03 0.  1.
         11   -1    0    0    0    0 -0.00000000000E+00 -0.00000000000E+00 -0.45593999997E+02  0.45594000000E+02  0.51100000000E-03 0. -1.
    9900012    2    1    2    0    0 -0.93568145539E+00 -0.58824333194E+00  0.41403194777E+00  0.90007765931E+02  0.90000027641E+02 0.  0.
         12    1    1    2    0    0  0.93568145539E+00  0.58824333194E+00 -0.41403194777E+00  0.11802340689E+01  0.00000000000E+00 0. -1.
         11    1    3    3    0    0  0.18186501361E+02  0.67134735838E+01  0.32617260183E+02  0.37943447674E+02  0.51100000000E-03 0. -1.
        -11    1    3    3    0    0  0.91559867739E+01  0.34110358875E+01 -0.35206123059E+01  0.10385661794E+02  0.51100000000E-03 0.  1.
        -12    1    3    3    0    0 -0.28278169590E+02 -0.10712752803E+02 -0.28682615929E+02  0.41678656463E+02  0.00000000000E+00 0.  1.
</event>
<event>
 7    1  0.2090370E-015  0.9000775E+02  0.7816164E-02  0.1186339E+00
        -11   -1    0    0    0    0  0.00000000000E+00  0.00000000000E+00  0.45593999997E+02  0.45594000000E+02  0.51100000000E-03 0.  1.
         11   -1    0    0    0    0 -0.00000000000E+00 -0.00000000000E+00 -0.45593999997E+02  0.45594000000E+02  0.51100000000E-03 0. -1.
    9900012    2    1    2    0    0  0.93642927243E+00  0.37933673404E+00  0.61008235913E+00  0.90007747220E+02  0.90000008683E+02 0.  0.
         12    1    1    2    0    0 -0.93642927243E+00 -0.37933673404E+00 -0.61008235913E+00  0.11802527801E+01  0.00000000000E+00 0. -1.
         11    1    3    3    0    0 -0.10189526055E+02  0.27527681240E+02 -0.26639080951E+02  0.39638873721E+02  0.51100000000E-03 0. -1.
        -11    1    3    3    0    0  0.64132540649E+01  0.60528214349E+01  0.61015367871E+01  0.10723582724E+02  0.51100000000E-03 0.  1.
        -12    1    3    3    0    0  0.47127012622E+01 -0.33201165941E+02  0.21147626523E+02  0.39645290775E+02  0.00000000000E+00 0.  1.
</event>
<event>
 7    1  0.2090370E-015  0.9000771E+02  0.7816164E-02  0.1186339E+00
        -11   -1    0    0    0    0  0.00000000000E+00  0.00000000000E+00  0.45593999997E+02  0.45594000000E+02  0.51100000000E-03 0. -1.
         11   -1    0    0    0    0 -0.00000000000E+00 -0.00000000000E+00 -0.45593999997E+02  0.45594000000E+02  0.51100000000E-03 0.  1.
    9900012    2    1    2    0    0  0.13799623632E+00 -0.86188746000E-01 -0.11690193171E+01  0.90007712906E+02  0.89999973916E+02 0.  0.
         12    1    1    2    0    0 -0.13799623632E+00  0.86188746000E-01  0.11690193171E+01  0.11802870942E+01  0.00000000000E+00 0. -1.
         11    1    3    3    0    0 -0.13903091118E+02 -0.26012539397E+02  0.21661903215E+02  0.36594893082E+02  0.51100000000E-03 0. -1.
        -11    1    3    3    0    0  0.15019878120E+01  0.41460439279E+01  0.10662827897E+02  0.11538697789E+02  0.51100000000E-03 0.  1.
        -12    1    3    3    0    0  0.12539099543E+02  0.21780306723E+02 -0.33493750430E+02  0.41874122034E+02  0.00000000000E+00 0.  1.
</event>
<event>
 7    1  0.2090370E-015  0.9000767E+02  0.7816164E-02  0.1186339E+00
        -11   -1    0    0    0    0  0.00000000000E+00  0.00000000000E+00  0.45593999997E+02  0.45594000000E+02  0.51100000000E-03 0. -1.
         11   -1    0    0    0    0 -0.00000000000E+00 -0.00000000000E+00 -0.45593999997E+02  0.45594000000E+02  0.51100000000E-03 0.  1.
    9900012    2    1    2    0    0  0.21366318054E+00 -0.11559274832E+01  0.10656879564E+00  0.90007670720E+02  0.89999931173E+02 0.  0.
         12    1    1    2    0    0 -0.21366318054E+00  0.11559274832E+01 -0.10656879564E+00  0.11803292800E+01  0.00000000000E+00 0. -1.
         11    1    3    3    0    0 -0.41535023866E+01 -0.15763914965E+02  0.35666627978E+02  0.39215570233E+02  0.51100000000E-03 0. -1.
        -11    1    3    3    0    0 -0.97784060558E+01  0.58394735593E+00  0.26763768835E+00  0.97994821139E+01  0.51100000000E-03 0.  1.
        -12    1    3    3    0    0  0.14145571623E+02  0.14024040126E+02 -0.35827696871E+02  0.40992618373E+02  0.00000000000E+00 0.  1.
</event>
<event>
 7    1  0.2090370E-015  0.9000776E+02  0.7816164E-02  0.1186339E+00
        -11   -1    0    0    0    0  0.00000000000E+00  0.00000000000E+00  0.45593999997E+02  0.45594000000E+02  0.51100000000E-03 0. -1.
         11   -1    0    0    0    0 -0.00000000000E+00 -0.00000000000E+00 -0.45593999997E+02  0.45594000000E+02  0.51100000000E-03 0.  1.
    9900012    2    1    2    0    0  0.84686738262E-01  0.11681584753E+01 -0.14560782048E+00  0.90007759472E+02  0.90000021097E+02 0.  0.
         12    1    1    2    0    0 -0.84686738262E-01 -0.11681584753E+01  0.14560782048E+00  0.11802405282E+01  0.00000000000E+00 0. -1.
         11    1    3    3    0    0 -0.55645867076E+01 -0.55089590557E+01 -0.39882701099E+01  0.87874657231E+01  0.51100000000E-03 0. -1.
        -11    1    3    3    0    0 -0.20687674645E+02 -0.20419801926E+02 -0.21121461742E+02  0.35931383766E+02  0.51100000000E-03 0.  1.
         12    1    3    3    0    0  0.26336948091E+02  0.27096919457E+02  0.24964124031E+02  0.45288909983E+02  0.00000000000E+00 0. -1.
</event>
<event>
 7    1  0.2090370E-015  0.9000761E+02  0.7816164E-02  0.1186339E+00
        -11   -1    0    0    0    0  0.00000000000E+00  0.00000000000E+00  0.45593999997E+02  0.45594000000E+02  0.51100000000E-03 0.  1.
         11   -1    0    0    0    0 -0.00000000000E+00 -0.00000000000E+00 -0.45593999997E+02  0.45594000000E+02  0.51100000000E-03 0. -1.
    9900012    2    1    2    0    0  0.41244919757E+00  0.10062571926E+01  0.45895813618E+00  0.90007614280E+02  0.89999873988E+02 0.  0.
         12    1    1    2    0    0 -0.41244919757E+00 -0.10062571926E+01 -0.45895813618E+00  0.11803857205E+01  0.00000000000E+00 0. -1.
         11    1    3    3    0    0  0.15378649187E+01 -0.12352042429E+02  0.29193713819E+01  0.12785175408E+02  0.51100000000E-03 0. -1.
        -11    1    3    3    0    0  0.16972539369E+02  0.16180957135E+01  0.32177967431E+02  0.36415750913E+02  0.51100000000E-03 0.  1.
         12    1    3    3    0    0 -0.18097955090E+02  0.11740203908E+02 -0.34638380676E+02  0.40806687958E+02  0.00000000000E+00 0. -1.
</event>
<event>
 7    1  0.2586490E-015  0.9000778E+02  0.7816164E-02  0.1186339E+00
        -11   -1    0    0    0    0  0.00000000000E+00  0.00000000000E+00  0.45593999997E+02  0.45594000000E+02  0.51100000000E-03 0. -1.
         11   -1    0    0    0    0 -0.00000000000E+00 -0.00000000000E+00 -0.45593999997E+02  0.45594000000E+02  0.51100000000E-03 0.  1.
    9900012    2    1    2    0    0  0.37488194758E+00  0.84263925110E+00 -0.73643180012E+00  0.90007784266E+02  0.90000046218E+02 0.  0.
         12    1    1    2    0    0 -0.37488194758E+00 -0.84263925110E+00  0.73643180012E+00  0.11802157338E+01  0.00000000000E+00 0. -1.
         11    1    3    3    0    0 -0.31859937648E+02 -0.26672827324E+01  0.16402898161E+02  0.35933620642E+02  0.51100000000E-03 0. -1.
        -11    1    3    3    0    0 -0.58286452286E+01  0.41229502996E+01  0.61702399694E+01  0.94362961969E+01  0.51100000000E-03 0.  1.
        -12    1    3    3    0    0  0.38063464824E+02 -0.61302831608E+00 -0.23309569931E+02  0.44637867427E+02  0.00000000000E+00 0.  1.
</event>
<event>
 7    1  0.2090370E-015  0.9000873E+02  0.7816164E-02  0.1186337E+00
        -11   -1    0    0    0    0  0.00000000000E+00  0.00000000000E+00  0.45593999997E+02  0.45594000000E+02  0.51100000000E-03 0. -1.
         11   -1    0    0    0    0 -0.00000000000E+00 -0.00000000000E+00 -0.45593999997E+02  0.45594000000E+02  0.51100000000E-03 0.  1.
    9900012    2    1    2    0    0  0.70291145698E+00  0.12867804649E+00  0.93809678127E+00  0.90008734073E+02  0.90001008557E+02 0.  0.
         12    1    1    2    0    0 -0.70291145698E+00 -0.12867804649E+00 -0.93809678127E+00  0.11792659272E+01  0.00000000000E+00 0. -1.
         11    1    3    3    0    0  0.46603952069E+00 -0.10479719392E+02 -0.12531334073E+01  0.10564660665E+02  0.51100000000E-03 0. -1.
        -11    1    3    3    0    0 -0.23932704759E+02  0.11993606685E+02 -0.29322899529E+02  0.39704576505E+02  0.51100000000E-03 0.  1.
         12    1    3    3    0    0  0.24169576695E+02 -0.13852092458E+01  0.31514129717E+02  0.39739496903E+02  0.00000000000E+00 0. -1.
</event>
<event>
 7    1  0.2090370E-015  0.9000779E+02  0.7816164E-02  0.1186339E+00
        -11   -1    0    0    0    0  0.00000000000E+00  0.00000000000E+00  0.45593999997E+02  0.45594000000E+02  0.51100000000E-03 0.  1.
         11   -1    0    0    0    0 -0.00000000000E+00 -0.00000000000E+00 -0.45593999997E+02  0.45594000000E+02  0.51100000000E-03 0. -1.
    9900012    2    1    2    0    0 -0.10908649303E+01 -0.16122136240E+00 -0.42061391442E+00  0.90007790405E+02  0.90000052438E+02 0.  0.
         12    1    1    2    0    0  0.10908649303E+01  0.16122136240E+00  0.42061391442E+00  0.11802095953E+01  0.00000000000E+00 0. -1.
         11    1    3    3    0    0 -0.28046535486E+02  0.10227333487E+02 -0.13455153385E+02  0.32745192867E+02  0.51100000000E-03 0. -1.
        -11    1    3    3    0    0 -0.22390196384E+01 -0.16017342284E+01 -0.15357030685E+02  0.15601831725E+02  0.51100000000E-03 0.  1.
        -12    1    3    3    0    0  0.29194690194E+02 -0.87868206208E+01  0.28391570155E+02  0.41660765812E+02  0.00000000000E+00 0.  1.
</event>
<event>
 7    1  0.2090370E-015  0.9000775E+02  0.7816164E-02  0.1186339E+00
        -11   -1    0    0    0    0  0.00000000000E+00  0.00000000000E+00  0.45593999997E+02  0.45594000000E+02  0.51100000000E-03 0.  1.
         11   -1    0    0    0    0 -0.00000000000E+00 -0.00000000000E+00 -0.45593999997E+02  0.45594000000E+02  0.51100000000E-03 0. -1.
    9900012    2    1    2    0    0  0.61218970327E+00 -0.70818594680E+00 -0.71880284251E+00  0.90007753799E+02  0.90000015349E+02 0.  0.
         12    1    1    2    0    0 -0.61218970327E+00  0.70818594680E+00  0.71880284251E+00  0.11802462008E+01  0.00000000000E+00 0. -1.
         11    1    3    3    0    0  0.19493898744E+01  0.72056435845E+01 -0.61989743915E+01  0.97030255135E+01  0.51100000000E-03 0. -1.
        -11    1    3    3    0    0 -0.14951407319E+02  0.26292272257E+02  0.24446776274E+02  0.38890526246E+02  0.51100000000E-03 0.  1.
         12    1    3    3    0    0  0.13614207147E+02 -0.34206101788E+02 -0.18966604725E+02  0.41414202040E+02  0.00000000000E+00 0. -1.
</event>
<event>
 7    1  0.2090370E-015  0.9000775E+02  0.7816164E-02  0.1186339E+00
        -11   -1    0    0    0    0  0.00000000000E+00  0.00000000000E+00  0.45593999997E+02  0.45594000000E+02  0.51100000000E-03 0.  1.
         11   -1    0    0    0    0 -0.00000000000E+00 -0.00000000000E+00 -0.45593999997E+02  0.45594000000E+02  0.51100000000E-03 0. -1.
    9900012    2    1    2    0    0 -0.71884817655E+00 -0.63094039045E+00  0.69149413802E+00  0.90007748916E+02  0.90000010402E+02 0.  0.
         12    1    1    2    0    0  0.71884817655E+00  0.63094039045E+00 -0.69149413802E+00  0.11802510835E+01  0.00000000000E+00 0. -1.
         11    1    3    3    0    0  0.59635366586E+01 -0.59629697289E+01  0.23953745500E+01  0.87669034991E+01  0.51100000000E-03 0. -1.
        -11    1    3    3    0    0 -0.20531751313E+01 -0.16138594237E+02  0.34926820978E+02  0.38529891980E+02  0.51100000000E-03 0.  1.
         12    1    3    3    0    0 -0.46292097039E+01  0.21470623576E+02 -0.36630701390E+02  0.42710953438E+02  0.00000000000E+00 0. -1.
</event>
<event>
 7    1  0.2090370E-015  0.9000705E+02  0.7816164E-02  0.1186340E+00
        -11   -1    0    0    0    0  0.00000000000E+00  0.00000000000E+00  0.45593999997E+02  0.45594000000E+02  0.51100000000E-03 0.  1.
         11   -1    0    0    0    0 -0.00000000000E+00 -0.00000000000E+00 -0.45593999997E+02  0.45594000000E+02  0.51100000000E-03 0. -1.
    9900012    2    1    2    0    0  0.11677269443E+01  0.35542526911E-01  0.17258907063E+00  0.90007052721E+02  0.89999305015E+02 0.  0.
         12    1    1    2    0    0 -0.11677269443E+01 -0.35542526911E-01 -0.17258907063E+00  0.11809472786E+01  0.00000000000E+00 0. -1.
         11    1    3    3    0    0  0.50188458302E+01  0.67112469600E+01  0.56276922265E+01  0.10094581184E+02  0.51100000000E-03 0. -1.
        -11    1    3    3    0    0 -0.88098571471E+01 -0.20138699588E+02  0.32557057184E+02  0.39282856016E+02  0.51100000000E-03 0.  1.
         12    1    3    3    0    0  0.49587382611E+01  0.13462995155E+02 -0.38012160340E+02  0.40629615521E+02  0.00000000000E+00 0. -1.
</event>
<event>
 7    1  0.2090370E-015  0.9000776E+02  0.7816164E-02  0.1186339E+00
        -11   -1    0    0    0    0  0.00000000000E+00  0.00000000000E+00  0.45593999997E+02  0.45594000000E+02  0.51100000000E-03 0. -1.
         11   -1    0    0    0    0 -0.00000000000E+00 -0.00000000000E+00 -0.45593999997E+02  0.45594000000E+02  0.51100000000E-03 0.  1.
    9900012    2    1    2    0    0 -0.10356812698E+01  0.53746752889E+00  0.17738747531E+00  0.90007757079E+02  0.90000018672E+02 0.  0.
         12    1    1    2    0    0  0.10356812698E+01 -0.53746752889E+00 -0.17738747531E+00  0.11802429214E+01  0.00000000000E+00 0. -1.
         11    1    3    3    0    0  0.17362949479E+02 -0.13672417355E+01  0.36733086496E+01  0.17799847226E+02  0.51100000000E-03 0. -1.
        -11    1    3    3    0    0 -0.23903284891E+01  0.21893502593E+02 -0.28766983511E+02  0.36229524792E+02  0.51100000000E-03 0.  1.
         12    1    3    3    0    0 -0.16008302260E+02 -0.19988793328E+02  0.25271062336E+02  0.35978385061E+02  0.00000000000E+00 0. -1.
</event>
<event>
 7    1  0.2090370E-015  0.9000780E+02  0.7816164E-02  0.1186339E+00
        -11   -1    0    0    0    0  0.00000000000E+00  0.00000000000E+00  0.45593999997E+02  0.45594000000E+02  0.51100000000E-03 0. -1.
         11   -1    0    0    0    0 -0.00000000000E+00 -0.00000000000E+00 -0.45593999997E+02  0.45594000000E+02  0.51100000000E-03 0.  1.
    9900012    2    1    2    0    0 -0.53087303011E+00 -0.10283648009E+01 -0.23132112736E+00  0.90007800948E+02  0.90000063121E+02 0.  0.
         12    1    1    2    0    0  0.53087303011E+00  0.10283648009E+01  0.23132112736E+00  0.11801990518E+01  0.00000000000E+00 0. -1.
         11    1    3    3    0    0  0.13873375340E+02 -0.54650758429E+01  0.39415720689E+02  0.42141863212E+02  0.51100000000E-03 0. -1.
        -11    1    3    3    0    0  0.59571753036E+01  0.56173268722E+00 -0.71730439036E+01  0.93410941712E+01  0.51100000000E-03 0.  1.
        -12    1    3    3    0    0 -0.20361423674E+02  0.38749783548E+01 -0.32473997913E+02  0.38524843565E+02  0.00000000000E+00 0.  1.
</event>
<event>
 7    1  0.2090370E-015  0.9000805E+02  0.7816164E-02  0.1186338E+00
        -11   -1    0    0    0    0  0.00000000000E+00  0.00000000000E+00  0.45593999997E+02  0.45594000000E+02  0.51100000000E-03 0.  1.
         11   -1    0    0    0    0 -0.00000000000E+00 -0.00000000000E+00 -0.45593999997E+02  0.45594000000E+02  0.51100000000E-03 0. -1.
    9900012    2    1    2    0    0 -0.91789453708E+00 -0.73944468562E+00  0.54571843017E-01  0.90008047920E+02  0.90000313352E+02 0.  0.
         12    1    1    2    0    0  0.91789453708E+00  0.73944468562E+00 -0.54571843017E-01  0.11799520797E+01  0.00000000000E+00 0. -1.
         11    1    3    3    0    0  0.25969023325E+02 -0.22777736730E+02 -0.53464341256E+01  0.34954253262E+02  0.51100000000E-03 0. -1.
        -11    1    3    3    0    0  0.77950672110E+01 -0.61897280637E+01 -0.39885554788E+00  0.99616711618E+01  0.51100000000E-03 0.  1.
        -12    1    3    3    0    0 -0.34681985073E+02  0.28228020108E+02  0.57998615165E+01  0.45092123497E+02  0.00000000000E+00 0.  1.
</event>
<event>
 7    1  0.2090370E-015  0.9000771E+02  0.7816164E-02  0.1186339E+00
        -11   -1    0    0    0    0  0.00000000000E+00  0.00000000000E+00  0.45593999997E+02  0.45594000000E+02  0.51100000000E-03 0. -1.
         11   -1    0    0    0    0 -0.00000000000E+00 -0.00000000000E+00 -0.45593999997E+02  0.45594000000E+02  0.51100000000E-03 0.  1.
    9900012    2    1    2    0    0 -0.12508669880E+00  0.59690358493E+00 -0.10105221989E+01  0.90007705254E+02  0.89999966164E+02 0.  0.
         12    1    1    2    0    0  0.12508669880E+00 -0.59690358493E+00  0.10105221989E+01  0.11802947455E+01  0.00000000000E+00 0. -1.
         11    1    3    3    0    0 -0.69986474349E+01  0.33381488978E+01 -0.67558946586E+01  0.10284280086E+02  0.51100000000E-03 0. -1.
        -11    1    3    3    0    0 -0.60623609956E+01  0.33759144441E+02 -0.13025270097E+02  0.36689095323E+02  0.51100000000E-03 0.  1.
         12    1    3    3    0    0  0.12935921732E+02 -0.36500389754E+02  0.18770642557E+02  0.43034329846E+02  0.00000000000E+00 0. -1.
</event>
<event>
 7    1  0.2090370E-015  0.9000755E+02  0.7816164E-02  0.1186339E+00
        -11   -1    0    0    0    0  0.00000000000E+00  0.00000000000E+00  0.45593999997E+02  0.45594000000E+02  0.51100000000E-03 0.  1.
         11   -1    0    0    0    0 -0.00000000000E+00 -0.00000000000E+00 -0.45593999997E+02  0.45594000000E+02  0.51100000000E-03 0. -1.
    9900012    2    1    2    0    0 -0.64570878685E+00  0.93786421453E+00  0.31132645110E+00  0.90007553779E+02  0.89999812688E+02 0.  0.
         12    1    1    2    0    0  0.64570878685E+00 -0.93786421453E+00 -0.31132645110E+00  0.11804462213E+01  0.00000000000E+00 0. -1.
         11    1    3    3    0    0  0.14210214105E+02 -0.16942867045E+01  0.12358272238E+02  0.18908402506E+02  0.51100000000E-03 0. -1.
        -11    1    3    3    0    0 -0.22828313203E+02  0.95046806891E+01  0.23447319085E+02  0.34077083374E+02  0.51100000000E-03 0.  1.
         12    1    3    3    0    0  0.79723903114E+01 -0.68725297701E+01 -0.35494264872E+02  0.37022067899E+02  0.00000000000E+00 0. -1.
</event>
<event>
 7    1  0.2090370E-015  0.9000729E+02  0.7816164E-02  0.1186340E+00
        -11   -1    0    0    0    0  0.00000000000E+00  0.00000000000E+00  0.45593999997E+02  0.45594000000E+02  0.51100000000E-03 0. -1.
         11   -1    0    0    0    0 -0.00000000000E+00 -0.00000000000E+00 -0.45593999997E+02  0.45594000000E+02  0.51100000000E-03 0.  1.
    9900012    2    1    2    0    0  0.64341846034E+00  0.14158206593E+00 -0.97982194783E+00  0.90007286722E+02  0.89999542105E+02 0.  0.
         12    1    1    2    0    0 -0.64341846034E+00 -0.14158206593E+00  0.97982194783E+00  0.11807132785E+01  0.00000000000E+00 0. -1.
         11    1    3    3    0    0 -0.31092901316E+02 -0.23837177736E+02  0.11699772331E+02  0.40888436355E+02  0.51100000000E-03 0. -1.
        -11    1    3    3    0    0  0.88379396818E+01 -0.39817044524E+01 -0.82102762164E+01  0.12703219434E+02  0.51100000000E-03 0.  1.
        -12    1    3    3    0    0  0.22898380095E+02  0.27960464255E+02 -0.44693180623E+01  0.36415630933E+02  0.00000000000E+00 0.  1.
</event>
<event>
 7    1  0.2090370E-015  0.9000773E+02  0.7816164E-02  0.1186339E+00
        -11   -1    0    0    0    0  0.00000000000E+00  0.00000000000E+00  0.45593999997E+02  0.45594000000E+02  0.51100000000E-03 0. -1.
         11   -1    0    0    0    0 -0.00000000000E+00 -0.00000000000E+00 -0.45593999997E+02  0.45594000000E+02  0.51100000000E-03 0.  1.
    9900012    2    1    2    0    0 -0.83070651499E-01  0.65606165676E+00 -0.97761140694E+00  0.90007728127E+02  0.89999989339E+02 0.  0.
         12    1    1    2    0    0  0.83070651499E-01 -0.65606165676E+00  0.97761140694E+00  0.11802718727E+01  0.00000000000E+00 0. -1.
         11    1    3    3    0    0 -0.13452775878E+01  0.73226039712E+01 -0.93688248254E+01  0.11966836657E+02  0.51100000000E-03 0. -1.
        -11    1    3    3    0    0 -0.19981003236E+02  0.16096344401E+02 -0.22540328408E+02  0.34152586994E+02  0.51100000000E-03 0.  1.
         12    1    3    3    0    0  0.21243210172E+02 -0.22762886715E+02  0.30931541827E+02  0.43888304476E+02  0.00000000000E+00 0. -1.
</event>
<event>
 7    1  0.2090370E-015  0.9000775E+02  0.7816164E-02  0.1186339E+00
        -11   -1    0    0    0    0  0.00000000000E+00  0.00000000000E+00  0.45593999997E+02  0.45594000000E+02  0.51100000000E-03 0.  1.
         11   -1    0    0    0    0 -0.00000000000E+00 -0.00000000000E+00 -0.45593999997E+02  0.45594000000E+02  0.51100000000E-03 0. -1.
    9900012    2    1    2    0    0  0.11468413534E+01  0.27207133473E+00 -0.60945754307E-01  0.90007753294E+02  0.90000014838E+02 0.  0.
         12    1    1    2    0    0 -0.11468413534E+01 -0.27207133473E+00  0.60945754307E-01  0.11802467056E+01  0.00000000000E+00 0. -1.
         11    1    3    3    0    0 -0.97507509908E+01 -0.21194261163E+00 -0.10666212019E+01  0.98112051046E+01  0.51100000000E-03 0. -1.
        -11    1    3    3    0    0  0.27653124067E+02  0.16612037766E+02  0.29294346499E+02  0.43575380738E+02  0.51100000000E-03 0.  1.
         12    1    3    3    0    0 -0.16755531723E+02 -0.16128023820E+02 -0.28288671051E+02  0.36621167451E+02  0.00000000000E+00 0. -1.
</event>
<event>
 7    1  0.2090370E-015  0.9000776E+02  0.7816164E-02  0.1186339E+00
        -11   -1    0    0    0    0  0.00000000000E+00  0.00000000000E+00  0.45593999997E+02  0.45594000000E+02  0.51100000000E-03 0.  1.
         11   -1    0    0    0    0 -0.00000000000E+00 -0.00000000000E+00 -0.45593999997E+02  0.45594000000E+02  0.51100000000E-03 0. -1.
    9900012    2    1    2    0    0 -0.95033547805E-01  0.11498889598E+01 -0.24837232832E+00  0.90007760699E+02  0.90000022340E+02 0.  0.
         12    1    1    2    0    0  0.95033547805E-01 -0.11498889598E+01  0.24837232832E+00  0.11802393014E+01  0.00000000000E+00 0. -1.
         11    1    3    3    0    0 -0.17473382810E+01 -0.69773062921E+01 -0.45137288290E+01  0.84917455429E+01  0.51100000000E-03 0. -1.
        -11    1    3    3    0    0 -0.37457661364E+02  0.12210926325E+02  0.12514296135E+02  0.41337521994E+02  0.51100000000E-03 0.  1.
         12    1    3    3    0    0  0.39109966097E+02 -0.40837310735E+01 -0.82489396345E+01  0.40178493161E+02  0.00000000000E+00 0. -1.
</event>
<event>
 7    1  0.2090370E-015  0.9000784E+02  0.7816164E-02  0.1186339E+00
        -11   -1    0    0    0    0  0.00000000000E+00  0.00000000000E+00  0.45593999997E+02  0.45594000000E+02  0.51100000000E-03 0. -1.
         11   -1    0    0    0    0 -0.00000000000E+00 -0.00000000000E+00 -0.45593999997E+02  0.45594000000E+02  0.51100000000E-03 0.  1.
    9900012    2    1    2    0    0 -0.36784508690E+00 -0.34930092217E+00 -0.10655731252E+01  0.90007844405E+02  0.90000107152E+02 0.  0.
         12    1    1    2    0    0  0.36784508690E+00  0.34930092217E+00  0.10655731252E+01  0.11801555945E+01  0.00000000000E+00 0. -1.
         11    1    3    3    0    0 -0.56480561797E+01  0.63135547715E+01  0.38688955794E+01  0.93128870780E+01  0.51100000000E-03 0. -1.
        -11    1    3    3    0    0 -0.23768911412E+02 -0.16355347078E+02 -0.29628254862E+02  0.41355676928E+02  0.51100000000E-03 0.  1.
         12    1    3    3    0    0  0.29049122505E+02  0.96924913844E+01  0.24693786158E+02  0.39339280399E+02  0.00000000000E+00 0. -1.
</event>
<event>
 7    1  0.2090370E-015  0.9000803E+02  0.7816164E-02  0.1186338E+00
        -11   -1    0    0    0    0  0.00000000000E+00  0.00000000000E+00  0.45593999997E+02  0.45594000000E+02  0.51100000000E-03 0.  1.
         11   -1    0    0    0    0 -0.00000000000E+00 -0.00000000000E+00 -0.45593999997E+02  0.45594000000E+02  0.51100000000E-03 0. -1.
    9900012    2    1    2    0    0  0.41960776455E-01 -0.10053708672E+01 -0.61627938836E+00  0.90008028995E+02  0.90000294178E+02 0.  0.
         12    1    1    2    0    0 -0.41960776455E-01  0.10053708672E+01  0.61627938836E+00  0.11799710047E+01  0.00000000000E+00 0. -1.
         11    1    3    3    0    0  0.48863374748E+01  0.69620229674E+01  0.34137254388E+01  0.91651284415E+01  0.51100000000E-03 0. -1.
        -11    1    3    3    0    0  0.30765374120E+02  0.10188130234E+02  0.15990143400E+02  0.36138496491E+02  0.51100000000E-03 0.  1.
         12    1    3    3    0    0 -0.35609750819E+02 -0.18155524068E+02 -0.20020148227E+02  0.44704404063E+02  0.00000000000E+00 0. -1.
</event>
<event>
 7    1  0.2090370E-015  0.9000772E+02  0.7816164E-02  0.1186339E+00
        -11   -1    0    0    0    0  0.00000000000E+00  0.00000000000E+00  0.45593999997E+02  0.45594000000E+02  0.51100000000E-03 0.  1.
         11   -1    0    0    0    0 -0.00000000000E+00 -0.00000000000E+00 -0.45593999997E+02  0.45594000000E+02  0.51100000000E-03 0. -1.
    9900012    2    1    2    0    0  0.97793946226E+00  0.41222578083E+00  0.51649311491E+00  0.90007720023E+02  0.89999981127E+02 0.  0.
         12    1    1    2    0    0 -0.97793946226E+00 -0.41222578083E+00 -0.51649311491E+00  0.11802799769E+01  0.00000000000E+00 0. -1.
         11    1    3    3    0    0 -0.98619207504E+01 -0.77062506812E+00 -0.45335568092E+01  0.10881382333E+02  0.51100000000E-03 0. -1.
        -11    1    3    3    0    0  0.15026568613E+02 -0.18655510265E+02  0.35329874630E+02  0.42685194964E+02  0.51100000000E-03 0.  1.
         12    1    3    3    0    0 -0.41867084003E+01  0.19838361114E+02 -0.30279824706E+02  0.36441142725E+02  0.00000000000E+00 0. -1.
</event>
<event>
 7    1  0.2090370E-015  0.9000771E+02  0.7816164E-02  0.1186339E+00
        -11   -1    0    0    0    0  0.00000000000E+00  0.00000000000E+00  0.45593999997E+02  0.45594000000E+02  0.51100000000E-03 0. -1.
         11   -1    0    0    0    0 -0.00000000000E+00 -0.00000000000E+00 -0.45593999997E+02  0.45594000000E+02  0.51100000000E-03 0.  1.
    9900012    2    1    2    0    0  0.60702296352E+00 -0.92526271328E+00 -0.41047209204E+00  0.90007713888E+02  0.89999974912E+02 0.  0.
         12    1    1    2    0    0 -0.60702296352E+00  0.92526271328E+00  0.41047209204E+00  0.11802861116E+01  0.00000000000E+00 0. -1.
         11    1    3    3    0    0 -0.62335071205E+01  0.46741003364E+01  0.38627072895E+01  0.86962252065E+01  0.51100000000E-03 0. -1.
        -11    1    3    3    0    0 -0.19615770351E+02  0.17009158661E+02  0.24845215789E+02  0.35935701923E+02  0.51100000000E-03 0.  1.
         12    1    3    3    0    0  0.26456300435E+02 -0.22608521711E+02 -0.29118395170E+02  0.45375786759E+02  0.00000000000E+00 0. -1.
</event>
<event>
 7    1  0.2090370E-015  0.9000779E+02  0.7816164E-02  0.1186339E+00
        -11   -1    0    0    0    0  0.00000000000E+00  0.00000000000E+00  0.45593999997E+02  0.45594000000E+02  0.51100000000E-03 0.  1.
         11   -1    0    0    0    0 -0.00000000000E+00 -0.00000000000E+00 -0.45593999997E+02  0.45594000000E+02  0.51100000000E-03 0. -1.
    9900012    2    1    2    0    0  0.86831905208E-01  0.11523675100E+01 -0.23961304482E+00  0.90007786007E+02  0.90000047982E+02 0.  0.
         12    1    1    2    0    0 -0.86831905208E-01 -0.11523675100E+01  0.23961304482E+00  0.11802139929E+01  0.00000000000E+00 0. -1.
         11    1    3    3    0    0  0.55853703920E+01 -0.47100393205E+01 -0.59223632515E+01  0.94050635064E+01  0.51100000000E-03 0. -1.
        -11    1    3    3    0    0 -0.29528153495E+02 -0.26697202571E+02  0.54685959072E+00  0.39811449730E+02  0.51100000000E-03 0.  1.
         12    1    3    3    0    0  0.24029615008E+02  0.32559609402E+02  0.51358906159E+01  0.40791272771E+02  0.00000000000E+00 0. -1.
</event>
<event>
 7    1  0.2090370E-015  0.9000769E+02  0.7816164E-02  0.1186339E+00
        -11   -1    0    0    0    0  0.00000000000E+00  0.00000000000E+00  0.45593999997E+02  0.45594000000E+02  0.51100000000E-03 0. -1.
         11   -1    0    0    0    0 -0.00000000000E+00 -0.00000000000E+00 -0.45593999997E+02  0.45594000000E+02  0.51100000000E-03 0.  1.
    9900012    2    1    2    0    0  0.10331518359E+01  0.52634847523E+00 -0.22064726585E+00  0.90007690443E+02  0.89999951157E+02 0.  0.
         12    1    1    2    0    0 -0.10331518359E+01 -0.52634847523E+00  0.22064726585E+00  0.11803095566E+01  0.00000000000E+00 0. -1.
         11    1    3    3    0    0 -0.31460096270E+02 -0.17473343886E+02 -0.56683958624E+00  0.35991342171E+02  0.51100000000E-03 0. -1.
        -11    1    3    3    0    0 -0.55628539988E+01  0.51529260220E+01  0.10151479168E+02  0.12670853197E+02  0.51100000000E-03 0.  1.
        -12    1    3    3    0    0  0.38056102105E+02  0.12846766340E+02 -0.98052868472E+01  0.41345495075E+02  0.00000000000E+00 0.  1.
</event>
<event>
 7    1  0.2090370E-015  0.9000770E+02  0.7816164E-02  0.1186339E+00
        -11   -1    0    0    0    0  0.00000000000E+00  0.00000000000E+00  0.45593999997E+02  0.45594000000E+02  0.51100000000E-03 0.  1.
         11   -1    0    0    0    0 -0.00000000000E+00 -0.00000000000E+00 -0.45593999997E+02  0.45594000000E+02  0.51100000000E-03 0. -1.
    9900012    2    1    2    0    0  0.96859621975E+00 -0.58786899065E+00  0.33065568292E+00  0.90007702678E+02  0.89999963554E+02 0.  0.
         12    1    1    2    0    0 -0.96859621975E+00  0.58786899065E+00 -0.33065568292E+00  0.11802973217E+01  0.00000000000E+00 0. -1.
         11    1    3    3    0    0 -0.27976008254E+02 -0.28914411351E+02  0.69956318290E+01  0.40836736972E+02  0.51100000000E-03 0. -1.
        -11    1    3    3    0    0  0.13971228954E+02  0.40350352727E+01 -0.13484300519E+02  0.19831871038E+02  0.51100000000E-03 0.  1.
        -12    1    3    3    0    0  0.14973375520E+02  0.24291507087E+02  0.68193243725E+01  0.29339094668E+02  0.00000000000E+00 0.  1.
</event>
<event>
 7    1  0.2090370E-015  0.9000777E+02  0.7816164E-02  0.1186339E+00
        -11   -1    0    0    0    0  0.00000000000E+00  0.00000000000E+00  0.45593999997E+02  0.45594000000E+02  0.51100000000E-03 0. -1.
         11   -1    0    0    0    0 -0.00000000000E+00 -0.00000000000E+00 -0.45593999997E+02  0.45594000000E+02  0.51100000000E-03 0.  1.
    9900012    2    1    2    0    0 -0.81474360289E+00 -0.25548752881E+00 -0.81477101998E+00  0.90007774246E+02  0.90000036066E+02 0.  0.
         12    1    1    2    0    0  0.81474360289E+00  0.25548752881E+00  0.81477101998E+00  0.11802257542E+01  0.00000000000E+00 0. -1.
         11    1    3    3    0    0 -0.34378990924E+01  0.69977091817E+01 -0.46174146970E+01  0.90613245559E+01  0.51100000000E-03 0. -1.
        -11    1    3    3    0    0  0.12515407860E+02  0.28382520844E+02 -0.20052981669E+02  0.36936770263E+02  0.51100000000E-03 0.  1.
         12    1    3    3    0    0 -0.98922523709E+01 -0.35635717555E+02  0.23855625346E+02  0.44009679427E+02  0.00000000000E+00 0. -1.
</event>
<event>
 7    1  0.2090370E-015  0.9000769E+02  0.7816164E-02  0.1186339E+00
        -11   -1    0    0    0    0  0.00000000000E+00  0.00000000000E+00  0.45593999997E+02  0.45594000000E+02  0.51100000000E-03 0. -1.
         11   -1    0    0    0    0 -0.00000000000E+00 -0.00000000000E+00 -0.45593999997E+02  0.45594000000E+02  0.51100000000E-03 0.  1.
    9900012    2    1    2    0    0  0.86664915539E+00 -0.53884483254E+00 -0.59304158957E+00  0.90007689516E+02  0.89999950217E+02 0.  0.
         12    1    1    2    0    0 -0.86664915539E+00  0.53884483254E+00  0.59304158957E+00  0.11803104842E+01  0.00000000000E+00 0. -1.
         11    1    3    3    0    0  0.93117278925E+01  0.16798830850E+01  0.29803234712E+01  0.99203130887E+01  0.51100000000E-03 0. -1.
        -11    1    3    3    0    0  0.20561050437E+02  0.93033804185E+01 -0.31131678796E+02  0.38451152222E+02  0.51100000000E-03 0.  1.
         12    1    3    3    0    0 -0.29006129174E+02 -0.11522108336E+02  0.27558313735E+02  0.41636224205E+02  0.00000000000E+00 0. -1.
</event>
<event>
 7    1  0.2090370E-015  0.9000750E+02  0.7816164E-02  0.1186340E+00
        -11   -1    0    0    0    0  0.00000000000E+00  0.00000000000E+00  0.45593999997E+02  0.45594000000E+02  0.51100000000E-03 0. -1.
         11   -1    0    0    0    0 -0.00000000000E+00 -0.00000000000E+00 -0.45593999997E+02  0.45594000000E+02  0.51100000000E-03 0.  1.
    9900012    2    1    2    0    0  0.94368917420E+00 -0.42352530185E+00  0.56890244300E+00  0.90007503101E+02  0.89999761342E+02 0.  0.
         12    1    1    2    0    0 -0.94368917420E+00  0.42352530185E+00 -0.56890244300E+00  0.11804968990E+01  0.00000000000E+00 0. -1.
         11    1    3    3    0    0  0.69844222092E+01  0.92254089834E+01 -0.19015346836E+02  0.22259239431E+02  0.51100000000E-03 0. -1.
        -11    1    3    3    0    0  0.25743040529E+02  0.52727770527E+01  0.19353491736E+02  0.32635317620E+02  0.51100000000E-03 0.  1.
         12    1    3    3    0    0 -0.31783773564E+02 -0.14921711338E+02  0.23075754316E+00  0.35112946050E+02  0.00000000000E+00 0. -1.
</event>
<event>
 7    1  0.2090370E-015  0.9000780E+02  0.7816164E-02  0.1186339E+00
        -11   -1    0    0    0    0  0.00000000000E+00  0.00000000000E+00  0.45593999997E+02  0.45594000000E+02  0.51100000000E-03 0.  1.
         11   -1    0    0    0    0 -0.00000000000E+00 -0.00000000000E+00 -0.45593999997E+02  0.45594000000E+02  0.51100000000E-03 0. -1.
    9900012    2    1    2    0    0 -0.92588488121E+00  0.51922880700E+00  0.51576149033E+00  0.90007800321E+02  0.90000062485E+02 0.  0.
         12    1    1    2    0    0  0.92588488121E+00 -0.51922880700E+00 -0.51576149033E+00  0.11801996789E+01  0.00000000000E+00 0. -1.
         11    1    3    3    0    0  0.85735589380E+01  0.15497297417E+01  0.22450622053E+01  0.89971039619E+01  0.51100000000E-03 0. -1.
        -11    1    3    3    0    0 -0.61953803789E+01 -0.36597666658E+02  0.16831181501E+02  0.40756111367E+02  0.51100000000E-03 0.  1.
         12    1    3    3    0    0 -0.33040634403E+01  0.35567165723E+02 -0.18560482216E+02  0.40254584992E+02  0.00000000000E+00 0. -1.
</event>
<event>
 7    1  0.2090370E-015  0.9000770E+02  0.7816164E-02  0.1186339E+00
        -11   -1    0    0    0    0  0.00000000000E+00  0.00000000000E+00  0.45593999997E+02  0.45594000000E+02  0.51100000000E-03 0.  1.
         11   -1    0    0    0    0 -0.00000000000E+00 -0.00000000000E+00 -0.45593999997E+02  0.45594000000E+02  0.51100000000E-03 0. -1.
    9900012    2    1    2    0    0  0.11649287582E+01 -0.13295112541E+00 -0.13551448070E+00  0.90007703771E+02  0.89999964661E+02 0.  0.
         12    1    1    2    0    0 -0.11649287582E+01  0.13295112541E+00  0.13551448070E+00  0.11802962288E+01  0.00000000000E+00 0. -1.
         11    1    3    3    0    0  0.72917962710E+00  0.58456885704E+01 -0.66103286175E+01  0.88543900119E+01  0.51100000000E-03 0. -1.
        -11    1    3    3    0    0  0.12417981175E+02  0.27628035220E+02  0.26493539774E+02  0.40242045632E+02  0.51100000000E-03 0.  1.
         12    1    3    3    0    0 -0.11982232044E+02 -0.33606674916E+02 -0.20018725637E+02  0.40911268128E+02  0.00000000000E+00 0. -1.
</event>
<event>
 7    1  0.2217819E-015  0.9000814E+02  0.7816164E-02  0.1186338E+00
        -11   -1    0    0    0    0  0.00000000000E+00  0.00000000000E+00  0.45593999997E+02  0.45594000000E+02  0.51100000000E-03 0. -1.
         11   -1    0    0    0    0 -0.00000000000E+00 -0.00000000000E+00 -0.45593999997E+02  0.45594000000E+02  0.51100000000E-03 0.  1.
    9900012    2    1    2    0    0  0.11224069178E+01  0.12988149095E+00 -0.33969586660E+00  0.90008144173E+02  0.90000410875E+02 0.  0.
         12    1    1    2    0    0 -0.11224069178E+01 -0.12988149095E+00  0.33969586660E+00  0.11798558270E+01  0.00000000000E+00 0. -1.
         11    1    3    3    0    0 -0.32993419035E+02 -0.22912752604E+02 -0.81402545154E+00  0.40177388780E+02  0.51100000000E-03 0. -1.
        -11    1    3    3    0    0  0.72428443377E+01 -0.66103880012E+01 -0.16837074168E+00  0.98073631826E+01  0.51100000000E-03 0.  1.
        -12    1    3    3    0    0  0.26872981615E+02  0.29653022096E+02  0.64270032662E+00  0.40023392210E+02  0.00000000000E+00 0.  1.
</event>
<event>
 7    1  0.2090370E-015  0.9000771E+02  0.7816164E-02  0.1186339E+00
        -11   -1    0    0    0    0  0.00000000000E+00  0.00000000000E+00  0.45593999997E+02  0.45594000000E+02  0.51100000000E-03 0.  1.
         11   -1    0    0    0    0 -0.00000000000E+00 -0.00000000000E+00 -0.45593999997E+02  0.45594000000E+02  0.51100000000E-03 0. -1.
    9900012    2    1    2    0    0  0.11303003407E+01  0.24639404305E+00  0.23409403475E+00  0.90007708129E+02  0.89999969076E+02 0.  0.
         12    1    1    2    0    0 -0.11303003407E+01 -0.24639404305E+00 -0.23409403475E+00  0.11802918714E+01  0.00000000000E+00 0. -1.
         11    1    3    3    0    0  0.18766240093E+02  0.27505648310E+02 -0.14721092176E+02  0.36406634166E+02  0.51100000000E-03 0. -1.
        -11    1    3    3    0    0 -0.36503261422E+01  0.98459415928E+01 -0.16158525931E+01  0.10624425945E+02  0.51100000000E-03 0.  1.
        -12    1    3    3    0    0 -0.13985613610E+02 -0.37105195860E+02  0.16571038803E+02  0.42976648018E+02  0.00000000000E+00 0.  1.
</event>
<event>
 7    1  0.2090370E-015  0.9000779E+02  0.7816164E-02  0.1186339E+00
        -11   -1    0    0    0    0  0.00000000000E+00  0.00000000000E+00  0.45593999997E+02  0.45594000000E+02  0.51100000000E-03 0. -1.
         11   -1    0    0    0    0 -0.00000000000E+00 -0.00000000000E+00 -0.45593999997E+02  0.45594000000E+02  0.51100000000E-03 0.  1.
    9900012    2    1    2    0    0  0.92471546911E+00 -0.62159374130E+00 -0.38913765981E+00  0.90007785784E+02  0.90000047756E+02 0.  0.
         12    1    1    2    0    0 -0.92471546911E+00  0.62159374130E+00  0.38913765981E+00  0.11802142163E+01  0.00000000000E+00 0. -1.
         11    1    3    3    0    0  0.59481929795E+01 -0.72080474320E+01  0.37030771568E+01  0.10052349387E+02  0.51100000000E-03 0. -1.
        -11    1    3    3    0    0  0.39668942594E+01 -0.35190032331E+02 -0.10044740951E+02  0.36809936791E+02  0.51100000000E-03 0.  1.
         12    1    3    3    0    0 -0.89903717698E+01  0.41776486022E+02  0.59525261343E+01  0.43145499606E+02  0.00000000000E+00 0. -1.
</event>
<event>
 7    1  0.2090370E-015  0.9000762E+02  0.7816164E-02  0.1186339E+00
        -11   -1    0    0    0    0  0.00000000000E+00  0.00000000000E+00  0.45593999997E+02  0.45594000000E+02  0.51100000000E-03 0. -1.
         11   -1    0    0    0    0 -0.00000000000E+00 -0.00000000000E+00 -0.45593999997E+02  0.45594000000E+02  0.51100000000E-03 0.  1.
    9900012    2    1    2    0    0  0.40277482807E+00  0.67414604753E+00  0.88125021713E+00  0.90007617689E+02  0.89999877442E+02 0.  0.
         12    1    1    2    0    0 -0.40277482807E+00 -0.67414604753E+00 -0.88125021713E+00  0.11803823113E+01  0.00000000000E+00 0. -1.
         11    1    3    3    0    0 -0.29054028797E+02 -0.30486845863E+01  0.22139705775E+02  0.36655117502E+02  0.51100000000E-03 0. -1.
        -11    1    3    3    0    0 -0.85883912885E+01  0.21455951833E+01  0.15194718520E+01  0.89818059757E+01  0.51100000000E-03 0.  1.
        -12    1    3    3    0    0  0.38045194913E+02  0.15772354506E+01 -0.22777927410E+02  0.44370694211E+02  0.00000000000E+00 0.  1.
</event>
<event>
 7    1  0.2090370E-015  0.9000776E+02  0.7816164E-02  0.1186339E+00
        -11   -1    0    0    0    0  0.00000000000E+00  0.00000000000E+00  0.45593999997E+02  0.45594000000E+02  0.51100000000E-03 0. -1.
         11   -1    0    0    0    0 -0.00000000000E+00 -0.00000000000E+00 -0.45593999997E+02  0.45594000000E+02  0.51100000000E-03 0.  1.
    9900012    2    1    2    0    0 -0.63897634668E+00 -0.80926952827E+00 -0.57424981363E+00  0.90007758165E+02  0.90000019773E+02 0.  0.
         12    1    1    2    0    0  0.63897634668E+00  0.80926952827E+00  0.57424981363E+00  0.11802418352E+01  0.00000000000E+00 0. -1.
         11    1    3    3    0    0  0.67103926210E+01 -0.20396422776E+02  0.34977327201E+02  0.41042135051E+02  0.51100000000E-03 0. -1.
        -11    1    3    3    0    0 -0.28512800846E+01  0.75751526032E+01  0.27696646311E+01  0.85547517505E+01  0.51100000000E-03 0.  1.
        -12    1    3    3    0    0 -0.44980888832E+01  0.12012000645E+02 -0.38321241645E+02  0.40410871363E+02  0.00000000000E+00 0.  1.
</event>
<event>
 7    1  0.2090370E-015  0.9000793E+02  0.7816164E-02  0.1186339E+00
        -11   -1    0    0    0    0  0.00000000000E+00  0.00000000000E+00  0.45593999997E+02  0.45594000000E+02  0.51100000000E-03 0. -1.
         11   -1    0    0    0    0 -0.00000000000E+00 -0.00000000000E+00 -0.45593999997E+02  0.45594000000E+02  0.51100000000E-03 0.  1.
    9900012    2    1    2    0    0 -0.33834941958E+00  0.10710993791E+01 -0.36170608300E+00  0.90007929875E+02  0.90000193749E+02 0.  0.
         12    1    1    2    0    0  0.33834941958E+00 -0.10710993791E+01  0.36170608300E+00  0.11800701251E+01  0.00000000000E+00 0. -1.
         11    1    3    3    0    0 -0.12330225023E+02  0.88135068677E+00  0.65055024231E+00  0.12378790087E+02  0.51100000000E-03 0. -1.
        -11    1    3    3    0    0 -0.21966623641E+02 -0.54253130455E+01  0.25567121722E+02  0.34141533200E+02  0.51100000000E-03 0.  1.
         12    1    3    3    0    0  0.33958499245E+02  0.56150617378E+01 -0.26579378048E+02  0.43487606587E+02  0.00000000000E+00 0. -1.
</event>
<event>
 7    1  0.2090370E-015  0.9000775E+02  0.7816164E-02  0.1186339E+00
        -11   -1    0    0    0    0  0.00000000000E+00  0.00000000000E+00  0.45593999997E+02  0.45594000000E+02  0.51100000000E-03 0.  1.
         11   -1    0    0    0    0 -0.00000000000E+00 -0.00000000000E+00 -0.45593999997E+02  0.45594000000E+02  0.51100000000E-03 0. -1.
    9900012    2    1    2    0    0  0.36128585163E-01  0.33637542281E+00  0.11307286914E+01  0.90007745335E+02  0.90000006774E+02 0.  0.
         12    1    1    2    0    0 -0.36128585163E-01 -0.33637542281E+00 -0.11307286914E+01  0.11802546646E+01  0.00000000000E+00 0. -1.
         11    1    3    3    0    0  0.11173225998E+02  0.37589350632E+01 -0.34319547516E+02  0.36287765348E+02  0.51100000000E-03 0. -1.
        -11    1    3    3    0    0 -0.27143064617E+01  0.72494265704E+00 -0.84096174283E+01  0.88664912437E+01  0.51100000000E-03 0.  1.
        -12    1    3    3    0    0 -0.84227909514E+01 -0.41475022975E+01  0.43859893636E+02  0.44853488743E+02  0.00000000000E+00 0.  1.
</event>
<event>
 7    1  0.2090370E-015  0.9000770E+02  0.7816164E-02  0.1186339E+00
        -11   -1    0    0    0    0  0.00000000000E+00  0.00000000000E+00  0.45593999997E+02  0.45594000000E+02  0.51100000000E-03 0. -1.
         11   -1    0    0    0    0 -0.00000000000E+00 -0.00000000000E+00 -0.45593999997E+02  0.45594000000E+02  0.51100000000E-03 0.  1.
    9900012    2    1    2    0    0 -0.35822811364E+00 -0.89933675278E+00 -0.67525421833E+00  0.90007702480E+02  0.89999963353E+02 0.  0.
         12    1    1    2    0    0  0.35822811364E+00  0.89933675278E+00  0.67525421833E+00  0.11802975200E+01  0.00000000000E+00 0. -1.
         11    1    3    3    0    0  0.21964114948E+02 -0.42080628272E+01  0.30888541623E+02  0.38134395788E+02  0.51100000000E-03 0. -1.
        -11    1    3    3    0    0 -0.24117107698E+01 -0.49220770197E+01  0.62743581277E+01  0.83313120936E+01  0.51100000000E-03 0.  1.
        -12    1    3    3    0    0 -0.19910632292E+02  0.82308030942E+01 -0.37838153969E+02  0.43541994599E+02  0.00000000000E+00 0.  1.
</event>
<event>
 7    1  0.2090370E-015  0.9000776E+02  0.7816164E-02  0.1186339E+00
        -11   -1    0    0    0    0  0.00000000000E+00  0.00000000000E+00  0.45593999997E+02  0.45594000000E+02  0.51100000000E-03 0.  1.
         11   -1    0    0    0    0 -0.00000000000E+00 -0.00000000000E+00 -0.45593999997E+02  0.45594000000E+02  0.51100000000E-03 0. -1.
    9900012    2    1    2    0    0  0.80926452887E-01  0.99114025461E+00  0.63566396222E+00  0.90007755632E+02  0.90000017206E+02 0.  0.
         12    1    1    2    0    0 -0.80926452887E-01 -0.99114025461E+00 -0.63566396222E+00  0.11802443679E+01  0.00000000000E+00 0. -1.
         11    1    3    3    0    0  0.92975039730E+01 -0.19636270127E+01 -0.77818634288E-01  0.95029188765E+01  0.51100000000E-03 0. -1.
        -11    1    3    3    0    0  0.22291396650E+02 -0.11302090972E+02 -0.26553207153E+02  0.36465277118E+02  0.51100000000E-03 0.  1.
         12    1    3    3    0    0 -0.31507974170E+02  0.14256858240E+02  0.27266689749E+02  0.44039559637E+02  0.00000000000E+00 0. -1.
</event>
<event>
 7    1  0.2090370E-015  0.9000811E+02  0.7816164E-02  0.1186338E+00
        -11   -1    0    0    0    0  0.00000000000E+00  0.00000000000E+00  0.45593999997E+02  0.45594000000E+02  0.51100000000E-03 0.  1.
         11   -1    0    0    0    0 -0.00000000000E+00 -0.00000000000E+00 -0.45593999997E+02  0.45594000000E+02  0.51100000000E-03 0. -1.
    9900012    2    1    2    0    0  0.37783486121E+00 -0.11098071455E+01 -0.13303566099E+00  0.90008114595E+02  0.90000380907E+02 0.  0.
         12    1    1    2    0    0 -0.37783486121E+00  0.11098071455E+01  0.13303566099E+00  0.11798854053E+01  0.00000000000E+00 0. -1.
         11    1    3    3    0    0  0.62903661385E+01 -0.22470301916E+01  0.72613776784E+01  0.98663801310E+01  0.51100000000E-03 0. -1.
        -11    1    3    3    0    0  0.93058374088E+01  0.76847909303E+01  0.33720128281E+02  0.35814824767E+02  0.51100000000E-03 0.  1.
         12    1    3    3    0    0 -0.15218368686E+02 -0.65475678842E+01 -0.41114541620E+02  0.44326909697E+02  0.00000000000E+00 0. -1.
</event>
<event>
 7    1  0.2090370E-015  0.9000774E+02  0.7816164E-02  0.1186339E+00
        -11   -1    0    0    0    0  0.00000000000E+00  0.00000000000E+00  0.45593999997E+02  0.45594000000E+02  0.51100000000E-03 0.  1.
         11   -1    0    0    0    0 -0.00000000000E+00 -0.00000000000E+00 -0.45593999997E+02  0.45594000000E+02  0.51100000000E-03 0. -1.
    9900012    2    1    2    0    0 -0.68323684857E+00  0.65575164538E+00  0.70440902679E+00  0.90007739483E+02  0.90000000844E+02 0.  0.
         12    1    1    2    0    0  0.68323684857E+00 -0.65575164538E+00 -0.70440902679E+00  0.11802605173E+01  0.00000000000E+00 0. -1.
         11    1    3    3    0    0  0.23062582154E+01 -0.20276940189E+02 -0.30719474810E+02  0.36880337082E+02  0.51100000000E-03 0. -1.
        -11    1    3    3    0    0  0.64436264876E+01 -0.53803886875E+01 -0.28817285262E+01  0.88754303726E+01  0.51100000000E-03 0.  1.
        -12    1    3    3    0    0 -0.94331215515E+01  0.26313080522E+02  0.34305612363E+02  0.44251972028E+02  0.00000000000E+00 0.  1.
</event>
<event>
 7    1  0.2090370E-015  0.9000773E+02  0.7816164E-02  0.1186339E+00
        -11   -1    0    0    0    0  0.00000000000E+00  0.00000000000E+00  0.45593999997E+02  0.45594000000E+02  0.51100000000E-03 0.  1.
         11   -1    0    0    0    0 -0.00000000000E+00 -0.00000000000E+00 -0.45593999997E+02  0.45594000000E+02  0.51100000000E-03 0. -1.
    9900012    2    1    2    0    0  0.57206407395E+00  0.88120463523E+00  0.53781692350E+00  0.90007734794E+02  0.89999996093E+02 0.  0.
         12    1    1    2    0    0 -0.57206407395E+00 -0.88120463523E+00 -0.53781692350E+00  0.11802652062E+01  0.00000000000E+00 0. -1.
         11    1    3    3    0    0 -0.19207824668E+01 -0.86899549593E+01 -0.10367209694E+01  0.89598835433E+01  0.51100000000E-03 0. -1.
        -11    1    3    3    0    0 -0.21501034733E+02  0.21869282427E+02 -0.27645099303E+02  0.41289363331E+02  0.51100000000E-03 0.  1.
         12    1    3    3    0    0  0.23993881274E+02 -0.12298122833E+02  0.29219637196E+02  0.39758487920E+02  0.00000000000E+00 0. -1.
</event>
<event>
 7    1  0.2090370E-015  0.9000777E+02  0.7816164E-02  0.1186339E+00
        -11   -1    0    0    0    0  0.00000000000E+00  0.00000000000E+00  0.45593999997E+02  0.45594000000E+02  0.51100000000E-03 0. -1.
         11   -1    0    0    0    0 -0.00000000000E+00 -0.00000000000E+00 -0.45593999997E+02  0.45594000000E+02  0.51100000000E-03 0.  1.
    9900012    2    1    2    0    0  0.75001474765E+00 -0.58896161446E+00 -0.69537028125E+00  0.90007772169E+02  0.90000033962E+02 0.  0.
         12    1    1    2    0    0 -0.75001474765E+00  0.58896161446E+00  0.69537028125E+00  0.11802278310E+01  0.00000000000E+00 0. -1.
         11    1    3    3    0    0  0.21796071033E+02  0.60542268276E+01  0.44419363059E+01  0.23053268171E+02  0.51100000000E-03 0. -1.
        -11    1    3    3    0    0 -0.59713664688E+01  0.15645111426E+02  0.22719706528E+02  0.28224312109E+02  0.51100000000E-03 0.  1.
        -12    1    3    3    0    0 -0.15074689817E+02 -0.22288299868E+02 -0.27857013115E+02  0.38730191889E+02  0.00000000000E+00 0.  1.
</event>
<event>
 7    1  0.2090370E-015  0.9000775E+02  0.7816164E-02  0.1186339E+00
        -11   -1    0    0    0    0  0.00000000000E+00  0.00000000000E+00  0.45593999997E+02  0.45594000000E+02  0.51100000000E-03 0.  1.
         11   -1    0    0    0    0 -0.00000000000E+00 -0.00000000000E+00 -0.45593999997E+02  0.45594000000E+02  0.51100000000E-03 0. -1.
    9900012    2    1    2    0    0 -0.68816516340E+00 -0.24323507393E+00  0.92750370543E+00  0.90007746757E+02  0.90000008215E+02 0.  0.
         12    1    1    2    0    0  0.68816516340E+00  0.24323507393E+00 -0.92750370543E+00  0.11802532427E+01  0.00000000000E+00 0. -1.
         11    1    3    3    0    0 -0.88620207499E+01  0.30707148266E+01 -0.50211323460E+00  0.93923809165E+01  0.51100000000E-03 0. -1.
        -11    1    3    3    0    0 -0.32913913999E+02 -0.11394922722E+02 -0.11679254288E+02  0.36736561891E+02  0.51100000000E-03 0.  1.
         12    1    3    3    0    0  0.41087769585E+02  0.80809728218E+01  0.13108871228E+02  0.43878803950E+02  0.00000000000E+00 0. -1.
</event>
<event>
 7    1  0.2090370E-015  0.9000781E+02  0.7816164E-02  0.1186339E+00
        -11   -1    0    0    0    0  0.00000000000E+00  0.00000000000E+00  0.45593999997E+02  0.45594000000E+02  0.51100000000E-03 0.  1.
         11   -1    0    0    0    0 -0.00000000000E+00 -0.00000000000E+00 -0.45593999997E+02  0.45594000000E+02  0.51100000000E-03 0. -1.
    9900012    2    1    2    0    0 -0.35827240840E+00  0.93321892077E+00  0.62736099711E+00  0.90007814212E+02  0.90000076560E+02 0.  0.
         12    1    1    2    0    0  0.35827240840E+00 -0.93321892077E+00 -0.62736099711E+00  0.11801857877E+01  0.00000000000E+00 0. -1.
         11    1    3    3    0    0 -0.20523088343E+02  0.26543087394E+02  0.18604049760E+02  0.38364610141E+02  0.51100000000E-03 0. -1.
        -11    1    3    3    0    0  0.54765271195E+01  0.47929966853E+01  0.66444857419E+01  0.98546617168E+01  0.51100000000E-03 0.  1.
        -12    1    3    3    0    0  0.14688288815E+02 -0.30402865158E+02 -0.24621174505E+02  0.41788542355E+02  0.00000000000E+00 0.  1.
</event>
<event>
 7    1  0.2090370E-015  0.9000779E+02  0.7816164E-02  0.1186339E+00
        -11   -1    0    0    0    0  0.00000000000E+00  0.00000000000E+00  0.45593999997E+02  0.45594000000E+02  0.51100000000E-03 0. -1.
         11   -1    0    0    0    0 -0.00000000000E+00 -0.00000000000E+00 -0.45593999997E+02  0.45594000000E+02  0.51100000000E-03 0.  1.
    9900012    2    1    2    0    0  0.44137280745E-01 -0.70443080868E+00 -0.94590410942E+00  0.90007785847E+02  0.90000047820E+02 0.  0.
         12    1    1    2    0    0 -0.44137280745E-01  0.70443080868E+00  0.94590410942E+00  0.11802141534E+01  0.00000000000E+00 0. -1.
         11    1    3    3    0    0 -0.98688051333E+01  0.43879083084E+01  0.27451671592E+01  0.11143742508E+02  0.51100000000E-03 0. -1.
        -11    1    3    3    0    0 -0.31987483560E+02 -0.10803742126E+02 -0.11877600082E+02  0.35791023070E+02  0.51100000000E-03 0.  1.
         12    1    3    3    0    0  0.41900425974E+02  0.57114030084E+01  0.81865288138E+01  0.43073020269E+02  0.00000000000E+00 0. -1.
</event>
<event>
 7    1  0.2090370E-015  0.9000775E+02  0.7816164E-02  0.1186339E+00
        -11   -1    0    0    0    0  0.00000000000E+00  0.00000000000E+00  0.45593999997E+02  0.45594000000E+02  0.51100000000E-03 0.  1.
         11   -1    0    0    0    0 -0.00000000000E+00 -0.00000000000E+00 -0.45593999997E+02  0.45594000000E+02  0.51100000000E-03 0. -1.
    9900012    2    1    2    0    0  0.63966861020E+00 -0.26042782029E+00 -0.95707246023E+00  0.90007751605E+02  0.90000013126E+02 0.  0.
         12    1    1    2    0    0 -0.63966861020E+00  0.26042782029E+00  0.95707246023E+00  0.11802483953E+01  0.00000000000E+00 0. -1.
         11    1    3    3    0    0  0.20183900589E+01 -0.17412957664E+02 -0.22966151011E+01  0.17679350503E+02  0.51100000000E-03 0. -1.
        -11    1    3    3    0    0  0.27836287344E+02  0.99134083766E+01  0.21112271339E+02  0.36316147374E+02  0.51100000000E-03 0.  1.
         12    1    3    3    0    0 -0.29215008792E+02  0.72391214671E+01 -0.19772728698E+02  0.36012253727E+02  0.00000000000E+00 0. -1.
</event>
<event>
 7    1  0.2090370E-015  0.9000782E+02  0.7816164E-02  0.1186339E+00
        -11   -1    0    0    0    0  0.00000000000E+00  0.00000000000E+00  0.45593999997E+02  0.45594000000E+02  0.51100000000E-03 0. -1.
         11   -1    0    0    0    0 -0.00000000000E+00 -0.00000000000E+00 -0.45593999997E+02  0.45594000000E+02  0.51100000000E-03 0.  1.
    9900012    2    1    2    0    0 -0.33919639798E+00  0.39355844615E+00  0.10596634688E+01  0.90007818186E+02  0.90000080586E+02 0.  0.
         12    1    1    2    0    0  0.33919639798E+00 -0.39355844615E+00 -0.10596634688E+01  0.11801818140E+01  0.00000000000E+00 0. -1.
         11    1    3    3    0    0 -0.79551872542E+00 -0.95447764439E+00 -0.16506674339E+02  0.16553373542E+02  0.51100000000E-03 0. -1.
        -11    1    3    3    0    0  0.11938970812E+01  0.18956320456E+02 -0.22641726889E+02  0.29553599988E+02  0.51100000000E-03 0.  1.
         12    1    3    3    0    0 -0.73757475374E+00 -0.17608284365E+02  0.40208064697E+02  0.43900844656E+02  0.00000000000E+00 0. -1.
</event>
<event>
 7    1  0.2090370E-015  0.9000763E+02  0.7816164E-02  0.1186339E+00
        -11   -1    0    0    0    0  0.00000000000E+00  0.00000000000E+00  0.45593999997E+02  0.45594000000E+02  0.51100000000E-03 0.  1.
         11   -1    0    0    0    0 -0.00000000000E+00 -0.00000000000E+00 -0.45593999997E+02  0.45594000000E+02  0.51100000000E-03 0. -1.
    9900012    2    1    2    0    0 -0.27595551847E+00  0.11329539833E+01 -0.18310234028E+00  0.90007634530E+02  0.89999894505E+02 0.  0.
         12    1    1    2    0    0  0.27595551847E+00 -0.11329539833E+01  0.18310234028E+00  0.11803654703E+01  0.00000000000E+00 0. -1.
         11    1    3    3    0    0  0.27198184894E+02  0.28446098519E+02 -0.69445879877E+01  0.39964347674E+02  0.51100000000E-03 0. -1.
        -11    1    3    3    0    0 -0.39212557754E+01  0.45025847681E+01 -0.59875918721E+01  0.84558129791E+01  0.51100000000E-03 0.  1.
        -12    1    3    3    0    0 -0.23552884637E+02 -0.31815729303E+02  0.12749077520E+02  0.41587473876E+02  0.00000000000E+00 0.  1.
</event>
<event>
 7    1  0.2111874E-015  0.9000772E+02  0.7816164E-02  0.1186339E+00
        -11   -1    0    0    0    0  0.00000000000E+00  0.00000000000E+00  0.45593999997E+02  0.45594000000E+02  0.51100000000E-03 0.  1.
         11   -1    0    0    0    0 -0.00000000000E+00 -0.00000000000E+00 -0.45593999997E+02  0.45594000000E+02  0.51100000000E-03 0. -1.
    9900012    2    1    2    0    0 -0.10261239142E+01 -0.27515491150E+00  0.51420865163E+00  0.90007724164E+02  0.89999985323E+02 0.  0.
         12    1    1    2    0    0  0.10261239142E+01  0.27515491150E+00 -0.51420865163E+00  0.11802758364E+01  0.00000000000E+00 0. -1.
         11    1    3    3    0    0 -0.13568238394E+02 -0.36961336508E+02  0.67285450177E+01  0.39943845682E+02  0.51100000000E-03 0. -1.
        -11    1    3    3    0    0  0.49891717857E+01 -0.28269563068E+01 -0.79448135722E+01  0.97981416618E+01  0.51100000000E-03 0.  1.
        -12    1    3    3    0    0  0.75529426942E+01  0.39513137903E+02  0.17304772061E+01  0.40265736820E+02  0.00000000000E+00 0.  1.
</event>
<event>
 7    1  0.2090370E-015  0.9000838E+02  0.7816164E-02  0.1186338E+00
        -11   -1    0    0    0    0  0.00000000000E+00  0.00000000000E+00  0.45593999997E+02  0.45594000000E+02  0.51100000000E-03 0.  1.
         11   -1    0    0    0    0 -0.00000000000E+00 -0.00000000000E+00 -0.45593999997E+02  0.45594000000E+02  0.51100000000E-03 0. -1.
    9900012    2    1    2    0    0  0.64049326356E+00 -0.71826073316E+00  0.68219055266E+00  0.90008375462E+02  0.90000645215E+02 0.  0.
         12    1    1    2    0    0 -0.64049326356E+00  0.71826073316E+00 -0.68219055266E+00  0.11796245384E+01  0.00000000000E+00 0. -1.
         11    1    3    3    0    0 -0.76966094931E+01 -0.15529604654E+01 -0.59691315092E+00  0.78743754970E+01  0.51100000000E-03 0. -1.
        -11    1    3    3    0    0 -0.30382091015E+02 -0.23878703590E+00  0.22649012183E+02  0.37895992227E+02  0.51100000000E-03 0.  1.
         12    1    3    3    0    0  0.38719193772E+02  0.10734867682E+01 -0.21369908479E+02  0.44238007738E+02  0.00000000000E+00 0. -1.
</event>
<event>
 7    1  0.2090370E-015  0.9000781E+02  0.7816164E-02  0.1186339E+00
        -11   -1    0    0    0    0  0.00000000000E+00  0.00000000000E+00  0.45593999997E+02  0.45594000000E+02  0.51100000000E-03 0.  1.
         11   -1    0    0    0    0 -0.00000000000E+00 -0.00000000000E+00 -0.45593999997E+02  0.45594000000E+02  0.51100000000E-03 0. -1.
    9900012    2    1    2    0    0 -0.53049538306E-01  0.34580708061E+00  0.11271381156E+01  0.90007814793E+02  0.90000077149E+02 0.  0.
         12    1    1    2    0    0  0.53049538306E-01 -0.34580708061E+00 -0.11271381156E+01  0.11801852067E+01  0.00000000000E+00 0. -1.
         11    1    3    3    0    0  0.12001929352E+01  0.13812508246E+02 -0.15342724838E+01  0.13949187770E+02  0.51100000000E-03 0. -1.
        -11    1    3    3    0    0  0.20321554801E+02  0.20559855706E+02  0.16709487324E+02  0.33389822147E+02  0.51100000000E-03 0.  1.
         12    1    3    3    0    0 -0.21574797274E+02 -0.34026556871E+02 -0.14048076724E+02  0.42668804876E+02  0.00000000000E+00 0. -1.
</event>
<event>
 7    1  0.2090370E-015  0.9000774E+02  0.7816164E-02  0.1186339E+00
        -11   -1    0    0    0    0  0.00000000000E+00  0.00000000000E+00  0.45593999997E+02  0.45594000000E+02  0.51100000000E-03 0. -1.
         11   -1    0    0    0    0 -0.00000000000E+00 -0.00000000000E+00 -0.45593999997E+02  0.45594000000E+02  0.51100000000E-03 0.  1.
    9900012    2    1    2    0    0 -0.95039611576E+00 -0.63997632672E+00 -0.28316075826E+00  0.90007744735E+02  0.90000006165E+02 0.  0.
         12    1    1    2    0    0  0.95039611576E+00  0.63997632672E+00  0.28316075826E+00  0.11802552650E+01  0.00000000000E+00 0. -1.
         11    1    3    3    0    0  0.20558721348E+00 -0.47728396782E+01 -0.77952768996E+01  0.91426805095E+01  0.51100000000E-03 0. -1.
        -11    1    3    3    0    0  0.30726947342E+02  0.17802881932E+02 -0.16008322081E+02  0.38953231883E+02  0.51100000000E-03 0.  1.
         12    1    3    3    0    0 -0.31882930671E+02 -0.13670018580E+02  0.23520438222E+02  0.41911832343E+02  0.00000000000E+00 0. -1.
</event>
<event>
 7    1  0.2090370E-015  0.9000771E+02  0.7816164E-02  0.1186339E+00
        -11   -1    0    0    0    0  0.00000000000E+00  0.00000000000E+00  0.45593999997E+02  0.45594000000E+02  0.51100000000E-03 0. -1.
         11   -1    0    0    0    0 -0.00000000000E+00 -0.00000000000E+00 -0.45593999997E+02  0.45594000000E+02  0.51100000000E-03 0.  1.
    9900012    2    1    2    0    0 -0.61521340705E+00 -0.80102785676E+00 -0.61070149180E+00  0.90007707885E+02  0.89999968830E+02 0.  0.
         12    1    1    2    0    0  0.61521340705E+00  0.80102785676E+00  0.61070149180E+00  0.11802921145E+01  0.00000000000E+00 0. -1.
         11    1    3    3    0    0 -0.31711317222E+02 -0.12396668014E+02  0.12478420432E+02  0.36262873502E+02  0.51100000000E-03 0. -1.
        -11    1    3    3    0    0 -0.24036783932E+01 -0.99027294148E+01  0.32808702434E+01  0.10705411225E+02  0.51100000000E-03 0.  1.
        -12    1    3    3    0    0  0.33499782209E+02  0.21498369572E+02 -0.16369992167E+02  0.43039423159E+02  0.00000000000E+00 0.  1.
</event>
<event>
 7    1  0.2090370E-015  0.9000782E+02  0.7816164E-02  0.1186339E+00
        -11   -1    0    0    0    0  0.00000000000E+00  0.00000000000E+00  0.45593999997E+02  0.45594000000E+02  0.51100000000E-03 0. -1.
         11   -1    0    0    0    0 -0.00000000000E+00 -0.00000000000E+00 -0.45593999997E+02  0.45594000000E+02  0.51100000000E-03 0.  1.
    9900012    2    1    2    0    0  0.40235120343E+00 -0.15792935232E+00 -0.10981760444E+01  0.90007822558E+02  0.90000085015E+02 0.  0.
         12    1    1    2    0    0 -0.40235120343E+00  0.15792935232E+00  0.10981760444E+01  0.11801774424E+01  0.00000000000E+00 0. -1.
         11    1    3    3    0    0 -0.10696316680E+01 -0.25045851195E+01  0.46604174047E+01  0.53978281904E+01  0.51100000000E-03 0. -1.
        -11    1    3    3    0    0 -0.16076092901E+02 -0.36047143332E+02 -0.13455703127E+02  0.41700038996E+02  0.51100000000E-03 0.  1.
         12    1    3    3    0    0  0.17548075773E+02  0.38393799099E+02  0.76971096782E+01  0.42909955371E+02  0.00000000000E+00 0. -1.
</event>
<event>
 7    1  0.2090370E-015  0.9000767E+02  0.7816164E-02  0.1186339E+00
        -11   -1    0    0    0    0  0.00000000000E+00  0.00000000000E+00  0.45593999997E+02  0.45594000000E+02  0.51100000000E-03 0. -1.
         11   -1    0    0    0    0 -0.00000000000E+00 -0.00000000000E+00 -0.45593999997E+02  0.45594000000E+02  0.51100000000E-03 0.  1.
    9900012    2    1    2    0    0  0.28536082186E+00 -0.42826905264E-01 -0.11445171159E+01  0.90007667686E+02  0.89999928100E+02 0.  0.
         12    1    1    2    0    0 -0.28536082186E+00  0.42826905264E-01  0.11445171159E+01  0.11803323138E+01  0.00000000000E+00 0. -1.
         11    1    3    3    0    0  0.28841409748E+02  0.20940940156E+02  0.15504174262E+02  0.38868101454E+02  0.51100000000E-03 0. -1.
        -11    1    3    3    0    0 -0.46480996747E+01  0.86895684785E+01 -0.86096865593E+00  0.98921533660E+01  0.51100000000E-03 0.  1.
        -12    1    3    3    0    0 -0.23907949251E+02 -0.29673335539E+02 -0.15787722722E+02  0.41247412866E+02  0.00000000000E+00 0.  1.
</event>
<event>
 7    1  0.2090370E-015  0.9000788E+02  0.7816164E-02  0.1186339E+00
        -11   -1    0    0    0    0  0.00000000000E+00  0.00000000000E+00  0.45593999997E+02  0.45594000000E+02  0.51100000000E-03 0.  1.
         11   -1    0    0    0    0 -0.00000000000E+00 -0.00000000000E+00 -0.45593999997E+02  0.45594000000E+02  0.51100000000E-03 0. -1.
    9900012    2    1    2    0    0 -0.31664357323E+00 -0.10520783661E+01 -0.43075871110E+00  0.90007879198E+02  0.90000142403E+02 0.  0.
         12    1    1    2    0    0  0.31664357323E+00  0.10520783661E+01  0.43075871110E+00  0.11801208023E+01  0.00000000000E+00 0. -1.
         11    1    3    3    0    0 -0.20790705977E+02 -0.19283755120E+02 -0.24257391518E+02  0.37316721588E+02  0.51100000000E-03 0. -1.
        -11    1    3    3    0    0 -0.13977846957E+01 -0.91528156560E+01 -0.15947380523E+01  0.93952661593E+01  0.51100000000E-03 0.  1.
        -12    1    3    3    0    0  0.21871847100E+02  0.27384492410E+02  0.25421370859E+02  0.43295891450E+02  0.00000000000E+00 0.  1.
</event>
<event>
 7    1  0.2090370E-015  0.9000777E+02  0.7816164E-02  0.1186339E+00
        -11   -1    0    0    0    0  0.00000000000E+00  0.00000000000E+00  0.45593999997E+02  0.45594000000E+02  0.51100000000E-03 0. -1.
         11   -1    0    0    0    0 -0.00000000000E+00 -0.00000000000E+00 -0.45593999997E+02  0.45594000000E+02  0.51100000000E-03 0.  1.
    9900012    2    1    2    0    0 -0.10767498419E+01 -0.51888746467E-01 -0.48047447896E+00  0.90007771891E+02  0.90000033680E+02 0.  0.
         12    1    1    2    0    0  0.10767498419E+01  0.51888746467E-01  0.48047447896E+00  0.11802281089E+01  0.00000000000E+00 0. -1.
         11    1    3    3    0    0  0.91178405443E+00  0.21598794632E+02  0.33695315978E+02  0.40033905616E+02  0.51100000000E-03 0. -1.
        -11    1    3    3    0    0  0.86406573384E+01 -0.99224803126E+01 -0.97539587561E+00  0.13193482185E+02  0.51100000000E-03 0.  1.
        -12    1    3    3    0    0 -0.10629191235E+02 -0.11728203066E+02 -0.33200394581E+02  0.36780384090E+02  0.00000000000E+00 0.  1.
</event>
<event>
 7    1  0.2090370E-015  0.9000770E+02  0.7816164E-02  0.1186339E+00
        -11   -1    0    0    0    0  0.00000000000E+00  0.00000000000E+00  0.45593999997E+02  0.45594000000E+02  0.51100000000E-03 0.  1.
         11   -1    0    0    0    0 -0.00000000000E+00 -0.00000000000E+00 -0.45593999997E+02  0.45594000000E+02  0.51100000000E-03 0. -1.
    9900012    2    1    2    0    0 -0.72619748159E+00 -0.45120143751E+00  0.81372962197E+00  0.90007702827E+02  0.89999963704E+02 0.  0.
         12    1    1    2    0    0  0.72619748159E+00  0.45120143751E+00 -0.81372962197E+00  0.11802971732E+01  0.00000000000E+00 0. -1.
         11    1    3    3    0    0  0.48776569134E+01 -0.17589752803E+01  0.90080981793E+01  0.10393813740E+02  0.51100000000E-03 0. -1.
        -11    1    3    3    0    0 -0.28406702822E+01  0.20642473736E+02  0.30110376522E+02  0.36617153141E+02  0.51100000000E-03 0.  1.
         12    1    3    3    0    0 -0.27631841128E+01 -0.19334699893E+02 -0.38304745079E+02  0.42996735946E+02  0.00000000000E+00 0. -1.
</event>
<event>
 7    1  0.2090370E-015  0.9000771E+02  0.7816164E-02  0.1186339E+00
        -11   -1    0    0    0    0  0.00000000000E+00  0.00000000000E+00  0.45593999997E+02  0.45594000000E+02  0.51100000000E-03 0.  1.
         11   -1    0    0    0    0 -0.00000000000E+00 -0.00000000000E+00 -0.45593999997E+02  0.45594000000E+02  0.51100000000E-03 0. -1.
    9900012    2    1    2    0    0  0.43799772089E+00  0.13163298417E+00  0.10880797965E+01  0.90007708981E+02  0.89999969940E+02 0.  0.
         12    1    1    2    0    0 -0.43799772089E+00 -0.13163298417E+00 -0.10880797965E+01  0.11802910190E+01  0.00000000000E+00 0. -1.
         11    1    3    3    0    0 -0.20583485916E+01  0.62317579267E+01  0.60601378264E+01  0.89329097453E+01  0.51100000000E-03 0. -1.
        -11    1    3    3    0    0 -0.29631729225E+02  0.20428402320E+02 -0.13691141268E+02  0.38507224617E+02  0.51100000000E-03 0.  1.
         12    1    3    3    0    0  0.32128075537E+02 -0.26528527262E+02  0.87190832380E+01  0.42567574619E+02  0.00000000000E+00 0. -1.
</event>
<event>
 7    1  0.2090370E-015  0.9000872E+02  0.7816164E-02  0.1186337E+00
        -11   -1    0    0    0    0  0.00000000000E+00  0.00000000000E+00  0.45593999997E+02  0.45594000000E+02  0.51100000000E-03 0. -1.
         11   -1    0    0    0    0 -0.00000000000E+00 -0.00000000000E+00 -0.45593999997E+02  0.45594000000E+02  0.51100000000E-03 0.  1.
    9900012    2    1    2    0    0 -0.93237319138E+00  0.47950839565E+00 -0.53985425253E+00  0.90008724509E+02  0.90000998867E+02 0.  0.
         12    1    1    2    0    0  0.93237319138E+00 -0.47950839565E+00  0.53985425253E+00  0.11792754909E+01  0.00000000000E+00 0. -1.
         11    1    3    3    0    0 -0.22738985223E+01 -0.45637813751E+01 -0.64251659062E+01  0.82025283976E+01  0.51100000000E-03 0. -1.
        -11    1    3    3    0    0 -0.24029699018E+02  0.29999727334E+02 -0.14158256756E+02  0.40961766437E+02  0.51100000000E-03 0.  1.
         12    1    3    3    0    0  0.25371224349E+02 -0.24956437564E+02  0.20043568410E+02  0.40844429674E+02  0.00000000000E+00 0. -1.
</event>
<event>
 7    1  0.2090370E-015  0.9000781E+02  0.7816164E-02  0.1186339E+00
        -11   -1    0    0    0    0  0.00000000000E+00  0.00000000000E+00  0.45593999997E+02  0.45594000000E+02  0.51100000000E-03 0. -1.
         11   -1    0    0    0    0 -0.00000000000E+00 -0.00000000000E+00 -0.45593999997E+02  0.45594000000E+02  0.51100000000E-03 0.  1.
    9900012    2    1    2    0    0 -0.56054382782E+00 -0.10340857895E+01  0.96508360979E-01  0.90007806513E+02  0.90000068759E+02 0.  0.
         12    1    1    2    0    0  0.56054382782E+00  0.10340857895E+01 -0.96508360979E-01  0.11801934870E+01  0.00000000000E+00 0. -1.
         11    1    3    3    0    0  0.92921828439E+01 -0.36231964399E+02 -0.49028430088E+01  0.37724498354E+02  0.51100000000E-03 0. -1.
        -11    1    3    3    0    0  0.48309998973E+01 -0.30086937531E+00 -0.99471423674E+01  0.11062310967E+02  0.51100000000E-03 0.  1.
        -12    1    3    3    0    0 -0.14683726569E+02  0.35498747985E+02  0.14946493737E+02  0.41220997192E+02  0.00000000000E+00 0.  1.
</event>
<event>
 7    1  0.2090370E-015  0.9000777E+02  0.7816164E-02  0.1186339E+00
        -11   -1    0    0    0    0  0.00000000000E+00  0.00000000000E+00  0.45593999997E+02  0.45594000000E+02  0.51100000000E-03 0.  1.
         11   -1    0    0    0    0 -0.00000000000E+00 -0.00000000000E+00 -0.45593999997E+02  0.45594000000E+02  0.51100000000E-03 0. -1.
    9900012    2    1    2    0    0  0.41062525950E+00  0.59997572784E+00  0.92971015335E+00  0.90007769113E+02  0.90000030865E+02 0.  0.
         12    1    1    2    0    0 -0.41062525950E+00 -0.59997572784E+00 -0.92971015335E+00  0.11802308871E+01  0.00000000000E+00 0. -1.
         11    1    3    3    0    0 -0.65767120778E+01  0.67691913670E+01  0.43107034345E+01  0.10375801554E+02  0.51100000000E-03 0. -1.
        -11    1    3    3    0    0 -0.13230922410E+02 -0.38586912663E+02  0.29769794465E+01  0.40900727910E+02  0.51100000000E-03 0.  1.
         12    1    3    3    0    0  0.20218259747E+02  0.32417697024E+02 -0.63579727277E+01  0.38731239649E+02  0.00000000000E+00 0. -1.
</event>
<event>
 7    1  0.2090370E-015  0.9000776E+02  0.7816164E-02  0.1186339E+00
        -11   -1    0    0    0    0  0.00000000000E+00  0.00000000000E+00  0.45593999997E+02  0.45594000000E+02  0.51100000000E-03 0. -1.
         11   -1    0    0    0    0 -0.00000000000E+00 -0.00000000000E+00 -0.45593999997E+02  0.45594000000E+02  0.51100000000E-03 0.  1.
    9900012    2    1    2    0    0 -0.97320793793E+00 -0.43323241561E+00 -0.50808409676E+00  0.90007757031E+02  0.90000018624E+02 0.  0.
         12    1    1    2    0    0  0.97320793793E+00  0.43323241561E+00  0.50808409676E+00  0.11802429690E+01  0.00000000000E+00 0. -1.
         11    1    3    3    0    0  0.18493727066E+02 -0.29355305486E+02 -0.20271080825E+01  0.34754295683E+02  0.51100000000E-03 0. -1.
        -11    1    3    3    0    0  0.10319588884E+02 -0.36863011153E+01  0.16925503935E+01  0.11088167465E+02  0.51100000000E-03 0.  1.
        -12    1    3    3    0    0 -0.29786523888E+02  0.32608374186E+02 -0.17352640772E+00  0.44165293883E+02  0.00000000000E+00 0.  1.
</event>
<event>
 7    1  0.2090370E-015  0.9000769E+02  0.7816164E-02  0.1186339E+00
        -11   -1    0    0    0    0  0.00000000000E+00  0.00000000000E+00  0.45593999997E+02  0.45594000000E+02  0.51100000000E-03 0.  1.
         11   -1    0    0    0    0 -0.00000000000E+00 -0.00000000000E+00 -0.45593999997E+02  0.45594000000E+02  0.51100000000E-03 0. -1.
    9900012    2    1    2    0    0 -0.16506194346E+00  0.26817179171E+00  0.11375312054E+01  0.90007686991E+02  0.89999947660E+02 0.  0.
         12    1    1    2    0    0  0.16506194346E+00 -0.26817179171E+00 -0.11375312054E+01  0.11803130086E+01  0.00000000000E+00 0. -1.
         11    1    3    3    0    0 -0.63187233821E+01  0.83031086498E+01 -0.14747058071E+02  0.18064982713E+02  0.51100000000E-03 0. -1.
        -11    1    3    3    0    0  0.64014683805E+01  0.25211690045E+02 -0.11908902574E+02  0.28608216881E+02  0.51100000000E-03 0.  1.
        -12    1    3    3    0    0 -0.24780694178E+00 -0.33246626903E+02  0.27793491850E+02  0.43334487397E+02  0.00000000000E+00 0.  1.
</event>
<event>
 7    1  0.2090370E-015  0.9000772E+02  0.7816164E-02  0.1186339E+00
        -11   -1    0    0    0    0  0.00000000000E+00  0.00000000000E+00  0.45593999997E+02  0.45594000000E+02  0.51100000000E-03 0. -1.
         11   -1    0    0    0    0 -0.00000000000E+00 -0.00000000000E+00 -0.45593999997E+02  0.45594000000E+02  0.51100000000E-03 0.  1.
    9900012    2    1    2    0    0  0.72181742761E+00  0.88257974692E-01 -0.92964592088E+00  0.90007724012E+02  0.89999985169E+02 0.  0.
         12    1    1    2    0    0 -0.72181742761E+00 -0.88257974692E-01  0.92964592088E+00  0.11802759877E+01  0.00000000000E+00 0. -1.
         11    1    3    3    0    0  0.12038358220E+02  0.13384480612E+02  0.34626854569E+02  0.39026727348E+02  0.51100000000E-03 0. -1.
        -11    1    3    3    0    0  0.42712885558E+01  0.67969110943E+01 -0.10204813817E+01  0.80921745447E+01  0.51100000000E-03 0.  1.
        -12    1    3    3    0    0 -0.15587829349E+02 -0.20093133732E+02 -0.34536019108E+02  0.42888822120E+02  0.00000000000E+00 0.  1.
</event>
<event>
 7    1  0.2527606E-015  0.9000768E+02  0.7816164E-02  0.1186339E+00
        -11   -1    0    0    0    0  0.00000000000E+00  0.00000000000E+00  0.45593999997E+02  0.45594000000E+02  0.51100000000E-03 0.  1.
         11   -1    0    0    0    0 -0.00000000000E+00 -0.00000000000E+00 -0.45593999997E+02  0.45594000000E+02  0.51100000000E-03 0. -1.
    9900012    2    1    2    0    0  0.66631809332E+00 -0.96403419981E+00 -0.14073824676E+00  0.90007682672E+02  0.89999943284E+02 0.  0.
         12    1    1    2    0    0 -0.66631809332E+00  0.96403419981E+00  0.14073824676E+00  0.11803173277E+01  0.00000000000E+00 0. -1.
         11    1    3    3    0    0 -0.20977569828E+02  0.23897750645E+02 -0.17871056046E+02  0.36476507046E+02  0.51100000000E-03 0. -1.
        -11    1    3    3    0    0 -0.50009664190E-01  0.89117888447E+01 -0.14740378143E+01  0.90330099700E+01  0.51100000000E-03 0.  1.
        -12    1    3    3    0    0  0.21693897586E+02 -0.33773573690E+02  0.19204355613E+02  0.44498165656E+02  0.00000000000E+00 0.  1.
</event>
<event>
 7    1  0.2090370E-015  0.9000775E+02  0.7816164E-02  0.1186339E+00
        -11   -1    0    0    0    0  0.00000000000E+00  0.00000000000E+00  0.45593999997E+02  0.45594000000E+02  0.51100000000E-03 0. -1.
         11   -1    0    0    0    0 -0.00000000000E+00 -0.00000000000E+00 -0.45593999997E+02  0.45594000000E+02  0.51100000000E-03 0.  1.
    9900012    2    1    2    0    0  0.27764420077E+00  0.51064442360E+00 -0.10272051539E+01  0.90007748138E+02  0.90000009613E+02 0.  0.
         12    1    1    2    0    0 -0.27764420077E+00 -0.51064442360E+00  0.10272051539E+01  0.11802518620E+01  0.00000000000E+00 0. -1.
         11    1    3    3    0    0  0.11063719932E+02 -0.40021076648E+01  0.23476029143E+01  0.11997249860E+02  0.51100000000E-03 0. -1.
        -11    1    3    3    0    0 -0.20535454699E+02  0.19456001678E+02 -0.32976369721E+02  0.43447460929E+02  0.51100000000E-03 0.  1.
         12    1    3    3    0    0  0.97493789678E+01 -0.14943249589E+02  0.29601561652E+02  0.34563037349E+02  0.00000000000E+00 0. -1.
</event>
<event>
 7    1  0.2090370E-015  0.9000770E+02  0.7816164E-02  0.1186339E+00
        -11   -1    0    0    0    0  0.00000000000E+00  0.00000000000E+00  0.45593999997E+02  0.45594000000E+02  0.51100000000E-03 0.  1.
         11   -1    0    0    0    0 -0.00000000000E+00 -0.00000000000E+00 -0.45593999997E+02  0.45594000000E+02  0.51100000000E-03 0. -1.
    9900012    2    1    2    0    0  0.65170846901E+00 -0.72235729038E+00  0.66827262060E+00  0.90007698225E+02  0.89999959042E+02 0.  0.
         12    1    1    2    0    0 -0.65170846901E+00  0.72235729038E+00 -0.66827262060E+00  0.11803017745E+01  0.00000000000E+00 0. -1.
         11    1    3    3    0    0  0.47607377646E+01 -0.76209366687E+00 -0.72646919429E+01  0.87190114180E+01  0.51100000000E-03 0. -1.
        -11    1    3    3    0    0  0.19982814595E+02  0.16332231512E+02  0.33690080207E+02  0.42439087761E+02  0.51100000000E-03 0.  1.
         12    1    3    3    0    0 -0.24091843891E+02 -0.16292495136E+02 -0.25757115644E+02  0.38849599047E+02  0.00000000000E+00 0. -1.
</event>
<event>
 7    1  0.2090370E-015  0.9000771E+02  0.7816164E-02  0.1186339E+00
        -11   -1    0    0    0    0  0.00000000000E+00  0.00000000000E+00  0.45593999997E+02  0.45594000000E+02  0.51100000000E-03 0.  1.
         11   -1    0    0    0    0 -0.00000000000E+00 -0.00000000000E+00 -0.45593999997E+02  0.45594000000E+02  0.51100000000E-03 0. -1.
    9900012    2    1    2    0    0 -0.48371259405E+00 -0.53879021125E+00  0.93210479951E+00  0.90007706764E+02  0.89999967693E+02 0.  0.
         12    1    1    2    0    0  0.48371259405E+00  0.53879021125E+00 -0.93210479951E+00  0.11802932359E+01  0.00000000000E+00 0. -1.
         11    1    3    3    0    0  0.38247828694E+02  0.20204963092E+02 -0.41461363370E+01  0.43454889025E+02  0.51100000000E-03 0. -1.
        -11    1    3    3    0    0 -0.88945738400E+01  0.15504173177E+01  0.93918206850E+00  0.90774060653E+01  0.51100000000E-03 0.  1.
        -12    1    3    3    0    0 -0.29836967448E+02 -0.22294170621E+02  0.41390590680E+01  0.37475411674E+02  0.00000000000E+00 0.  1.
</event>
<event>
 7    1  0.2090370E-015  0.9000768E+02  0.7816164E-02  0.1186339E+00
        -11   -1    0    0    0    0  0.00000000000E+00  0.00000000000E+00  0.45593999997E+02  0.45594000000E+02  0.51100000000E-03 0. -1.
         11   -1    0    0    0    0 -0.00000000000E+00 -0.00000000000E+00 -0.45593999997E+02  0.45594000000E+02  0.51100000000E-03 0.  1.
    9900012    2    1    2    0    0  0.57992708792E+00  0.10205426772E+01 -0.12383437395E+00  0.90007678969E+02  0.89999939532E+02 0.  0.
         12    1    1    2    0    0 -0.57992708792E+00 -0.10205426772E+01  0.12383437395E+00  0.11803210307E+01  0.00000000000E+00 0. -1.
         11    1    3    3    0    0  0.38069026142E+01 -0.27232741456E+01 -0.78935030306E+01  0.91769341254E+01  0.51100000000E-03 0. -1.
        -11    1    3    3    0    0  0.25404407027E+02  0.11119895184E+02 -0.24543231434E+02  0.37032501601E+02  0.51100000000E-03 0.  1.
         12    1    3    3    0    0 -0.28631382553E+02 -0.73760783612E+01  0.32312900091E+02  0.43798243243E+02  0.00000000000E+00 0. -1.
</event>
<event>
 7    1  0.2090370E-015  0.9000785E+02  0.7816164E-02  0.1186339E+00
        -11   -1    0    0    0    0  0.00000000000E+00  0.00000000000E+00  0.45593999997E+02  0.45594000000E+02  0.51100000000E-03 0. -1.
         11   -1    0    0    0    0 -0.00000000000E+00 -0.00000000000E+00 -0.45593999997E+02  0.45594000000E+02  0.51100000000E-03 0.  1.
    9900012    2    1    2    0    0 -0.50890510640E+00  0.15525306839E+00 -0.10534026375E+01  0.90007853806E+02  0.90000116676E+02 0.  0.
         12    1    1    2    0    0  0.50890510640E+00 -0.15525306839E+00  0.10534026375E+01  0.11801461941E+01  0.00000000000E+00 0. -1.
         11    1    3    3    0    0 -0.25328049532E+02 -0.29757699828E+02 -0.19110290352E+02  0.43499815974E+02  0.51100000000E-03 0. -1.
        -11    1    3    3    0    0 -0.27031381074E+01  0.14077087493E+01  0.24927319301E+01  0.39372975868E+01  0.51100000000E-03 0.  1.
        -12    1    3    3    0    0  0.27522282533E+02  0.28505244147E+02  0.15564155785E+02  0.42570740245E+02  0.00000000000E+00 0.  1.
</event>
<event>
 7    1  0.3233683E-015  0.9000780E+02  0.7816164E-02  0.1186339E+00
        -11   -1    0    0    0    0  0.00000000000E+00  0.00000000000E+00  0.45593999997E+02  0.45594000000E+02  0.51100000000E-03 0. -1.
         11   -1    0    0    0    0 -0.00000000000E+00 -0.00000000000E+00 -0.45593999997E+02  0.45594000000E+02  0.51100000000E-03 0.  1.
    9900012    2    1    2    0    0 -0.59419318211E+00 -0.72408848061E+00 -0.71798429082E+00  0.90007800395E+02  0.90000062560E+02 0.  0.
         12    1    1    2    0    0  0.59419318211E+00  0.72408848061E+00  0.71798429082E+00  0.11801996049E+01  0.00000000000E+00 0. -1.
         11    1    3    3    0    0 -0.27010990614E+02  0.18352842387E+01  0.25500133348E+02  0.37191648031E+02  0.51100000000E-03 0. -1.
        -11    1    3    3    0    0 -0.92401625310E+01  0.18508971072E+01 -0.24491584925E+01  0.97367757129E+01  0.51100000000E-03 0.  1.
        -12    1    3    3    0    0  0.35656959963E+02 -0.44102698266E+01 -0.23768959147E+02  0.43079376651E+02  0.00000000000E+00 0.  1.
</event>
<event>
 7    1  0.2090370E-015  0.9000769E+02  0.7816164E-02  0.1186339E+00
        -11   -1    0    0    0    0  0.00000000000E+00  0.00000000000E+00  0.45593999997E+02  0.45594000000E+02  0.51100000000E-03 0.  1.
         11   -1    0    0    0    0 -0.00000000000E+00 -0.00000000000E+00 -0.45593999997E+02  0.45594000000E+02  0.51100000000E-03 0. -1.
    9900012    2    1    2    0    0  0.14376283467E+00 -0.55814844356E+00  0.10300124401E+01  0.90007693657E+02  0.89999954413E+02 0.  0.
         12    1    1    2    0    0 -0.14376283467E+00  0.55814844356E+00 -0.10300124401E+01  0.11803063435E+01  0.00000000000E+00 0. -1.
         11    1    3    3    0    0  0.22072051549E+02 -0.11817541968E+02  0.27864415019E+02  0.37460050485E+02  0.51100000000E-03 0. -1.
        -11    1    3    3    0    0 -0.37407820630E+01 -0.29333010120E+01  0.88554915466E+01  0.10050743060E+02  0.51100000000E-03 0.  1.
        -12    1    3    3    0    0 -0.18187506651E+02  0.14192694536E+02 -0.35689894125E+02  0.42496900111E+02  0.00000000000E+00 0.  1.
</event>
<event>
 7    1  0.2090370E-015  0.9000775E+02  0.7816164E-02  0.1186339E+00
        -11   -1    0    0    0    0  0.00000000000E+00  0.00000000000E+00  0.45593999997E+02  0.45594000000E+02  0.51100000000E-03 0.  1.
         11   -1    0    0    0    0 -0.00000000000E+00 -0.00000000000E+00 -0.45593999997E+02  0.45594000000E+02  0.51100000000E-03 0. -1.
    9900012    2    1    2    0    0  0.97658323385E+00 -0.12908477761E+00  0.65007747561E+00  0.90007754934E+02  0.90000016499E+02 0.  0.
         12    1    1    2    0    0 -0.97658323385E+00  0.12908477761E+00 -0.65007747561E+00  0.11802450664E+01  0.00000000000E+00 0. -1.
         11    1    3    3    0    0  0.11600246101E+02 -0.18617385410E+01 -0.38108346705E+02  0.39878288188E+02  0.51100000000E-03 0. -1.
        -11    1    3    3    0    0  0.43073299538E+01  0.77155222095E+01  0.76271614639E+00  0.88692790281E+01  0.51100000000E-03 0.  1.
        -12    1    3    3    0    0 -0.14930992820E+02 -0.59828684462E+01  0.37995708034E+02  0.41260187717E+02  0.00000000000E+00 0.  1.
</event>
<event>
 7    1  0.2090370E-015  0.9000753E+02  0.7816164E-02  0.1186339E+00
        -11   -1    0    0    0    0  0.00000000000E+00  0.00000000000E+00  0.45593999997E+02  0.45594000000E+02  0.51100000000E-03 0. -1.
         11   -1    0    0    0    0 -0.00000000000E+00 -0.00000000000E+00 -0.45593999997E+02  0.45594000000E+02  0.51100000000E-03 0.  1.
    9900012    2    1    2    0    0 -0.10604407853E+01  0.23312727249E+00 -0.46327745203E+00  0.90007530186E+02  0.89999788784E+02 0.  0.
         12    1    1    2    0    0  0.10604407853E+01 -0.23312727249E+00  0.46327745203E+00  0.11804698141E+01  0.00000000000E+00 0. -1.
         11    1    3    3    0    0 -0.89356554216E+01  0.32569810065E+01  0.34969925689E+01  0.10133253198E+02  0.51100000000E-03 0. -1.
        -11    1    3    3    0    0  0.80772303841E+01 -0.40999135176E+02 -0.27951989150E+01  0.41880590649E+02  0.51100000000E-03 0.  1.
         12    1    3    3    0    0 -0.20201574787E+00  0.37975281442E+02 -0.11650711059E+01  0.37993686339E+02  0.00000000000E+00 0. -1.
</event>
<event>
 7    1  0.2090370E-015  0.9000772E+02  0.7816164E-02  0.1186339E+00
        -11   -1    0    0    0    0  0.00000000000E+00  0.00000000000E+00  0.45593999997E+02  0.45594000000E+02  0.51100000000E-03 0.  1.
         11   -1    0    0    0    0 -0.00000000000E+00 -0.00000000000E+00 -0.45593999997E+02  0.45594000000E+02  0.51100000000E-03 0. -1.
    9900012    2    1    2    0    0 -0.11519979053E+01 -0.71636406232E-02 -0.25671137695E+00  0.90007724091E+02  0.89999985249E+02 0.  0.
         12    1    1    2    0    0  0.11519979053E+01  0.71636406232E-02  0.25671137695E+00  0.11802759095E+01  0.00000000000E+00 0. -1.
         11    1    3    3    0    0  0.20581052983E+01  0.14693096261E+01  0.91761114286E+01  0.95181767901E+01  0.51100000000E-03 0. -1.
        -11    1    3    3    0    0 -0.28429041568E+02  0.22660986935E+02  0.13433953356E+02  0.38758248624E+02  0.51100000000E-03 0.  1.
         12    1    3    3    0    0  0.25218938365E+02 -0.24137460201E+02 -0.22866776161E+02  0.41731298677E+02  0.00000000000E+00 0. -1.
</event>
<event>
 7    1  0.2090370E-015  0.9000779E+02  0.7816164E-02  0.1186339E+00
        -11   -1    0    0    0    0  0.00000000000E+00  0.00000000000E+00  0.45593999997E+02  0.45594000000E+02  0.51100000000E-03 0. -1.
         11   -1    0    0    0    0 -0.00000000000E+00 -0.00000000000E+00 -0.45593999997E+02  0.45594000000E+02  0.51100000000E-03 0.  1.
    9900012    2    1    2    0    0 -0.25976190529E+00  0.11090723308E+01 -0.30883324808E+00  0.90007789994E+02  0.90000052022E+02 0.  0.
         12    1    1    2    0    0  0.25976190529E+00 -0.11090723308E+01  0.30883324808E+00  0.11802100057E+01  0.00000000000E+00 0. -1.
         11    1    3    3    0    0  0.55100199010E+01 -0.70991602243E+01 -0.42302476423E+01  0.99324413200E+01  0.51100000000E-03 0. -1.
        -11    1    3    3    0    0  0.98166248369E+01 -0.33490322271E+02  0.64366284741E+01  0.35487997906E+02  0.51100000000E-03 0.  1.
         12    1    3    3    0    0 -0.15586406643E+02  0.41698554826E+02 -0.25152140799E+01  0.44587350768E+02  0.00000000000E+00 0. -1.
</event>
<event>
 7    1  0.2090370E-015  0.9000789E+02  0.7816164E-02  0.1186339E+00
        -11   -1    0    0    0    0  0.00000000000E+00  0.00000000000E+00  0.45593999997E+02  0.45594000000E+02  0.51100000000E-03 0. -1.
         11   -1    0    0    0    0 -0.00000000000E+00 -0.00000000000E+00 -0.45593999997E+02  0.45594000000E+02  0.51100000000E-03 0.  1.
    9900012    2    1    2    0    0  0.56957261184E+00  0.49004488390E+00  0.91000312650E+00  0.90007888718E+02  0.90000152049E+02 0.  0.
         12    1    1    2    0    0 -0.56957261184E+00 -0.49004488390E+00 -0.91000312650E+00  0.11801112823E+01  0.00000000000E+00 0. -1.
         11    1    3    3    0    0  0.14739918020E+02  0.30599300277E+02  0.13826340557E+02  0.36670833834E+02  0.51100000000E-03 0. -1.
        -11    1    3    3    0    0  0.10718794509E+02  0.13868884468E+01 -0.66973978271E+01  0.12714997176E+02  0.51100000000E-03 0.  1.
        -12    1    3    3    0    0 -0.24889139916E+02 -0.31496143840E+02 -0.62189396034E+01  0.40622057707E+02  0.00000000000E+00 0.  1.
</event>
<event>
 7    1  0.2090370E-015  0.9000771E+02  0.7816164E-02  0.1186339E+00
        -11   -1    0    0    0    0  0.00000000000E+00  0.00000000000E+00  0.45593999997E+02  0.45594000000E+02  0.51100000000E-03 0. -1.
         11   -1    0    0    0    0 -0.00000000000E+00 -0.00000000000E+00 -0.45593999997E+02  0.45594000000E+02  0.51100000000E-03 0.  1.
    9900012    2    1    2    0    0 -0.10241550767E+00  0.11268712546E+01  0.33580616792E+00  0.90007706162E+02  0.89999967084E+02 0.  0.
         12    1    1    2    0    0  0.10241550767E+00 -0.11268712546E+01 -0.33580616792E+00  0.11802938376E+01  0.00000000000E+00 0. -1.
         11    1    3    3    0    0 -0.23183533102E+01  0.26936673998E+01  0.65716208244E+01  0.74710646264E+01  0.51100000000E-03 0. -1.
        -11    1    3    3    0    0 -0.29859912003E+02  0.20203408897E+02 -0.20207661406E+02  0.41329670403E+02  0.51100000000E-03 0.  1.
         12    1    3    3    0    0  0.32075849806E+02 -0.21770205042E+02  0.13971846750E+02  0.41206971133E+02  0.00000000000E+00 0. -1.
</event>
<event>
 7    1  0.2090370E-015  0.9000772E+02  0.7816164E-02  0.1186339E+00
        -11   -1    0    0    0    0  0.00000000000E+00  0.00000000000E+00  0.45593999997E+02  0.45594000000E+02  0.51100000000E-03 0.  1.
         11   -1    0    0    0    0 -0.00000000000E+00 -0.00000000000E+00 -0.45593999997E+02  0.45594000000E+02  0.51100000000E-03 0. -1.
    9900012    2    1    2    0    0  0.42431543735E+00 -0.63465992155E+00  0.90012057506E+00  0.90007722975E+02  0.89999984118E+02 0.  0.
         12    1    1    2    0    0 -0.42431543735E+00  0.63465992155E+00 -0.90012057506E+00  0.11802770251E+01  0.00000000000E+00 0. -1.
         11    1    3    3    0    0 -0.33180458720E+00 -0.93183582452E+01 -0.42655353103E+01  0.10253618211E+02  0.51100000000E-03 0. -1.
        -11    1    3    3    0    0 -0.10806669416E+02  0.12480968060E+02  0.39776120618E+02  0.43066209947E+02  0.51100000000E-03 0.  1.
         12    1    3    3    0    0  0.11562789441E+02 -0.37972697362E+01 -0.34610464732E+02  0.36687894817E+02  0.00000000000E+00 0. -1.
</event>
<event>
 7    1  0.2090370E-015  0.9000789E+02  0.7816164E-02  0.1186339E+00
        -11   -1    0    0    0    0  0.00000000000E+00  0.00000000000E+00  0.45593999997E+02  0.45594000000E+02  0.51100000000E-03 0. -1.
         11   -1    0    0    0    0 -0.00000000000E+00 -0.00000000000E+00 -0.45593999997E+02  0.45594000000E+02  0.51100000000E-03 0.  1.
    9900012    2    1    2    0    0  0.56915612967E+00  0.49232160465E+00 -0.90902770726E+00  0.90007893804E+02  0.90000157202E+02 0.  0.
         12    1    1    2    0    0 -0.56915612967E+00 -0.49232160465E+00  0.90902770726E+00  0.11801061965E+01  0.00000000000E+00 0. -1.
         11    1    3    3    0    0  0.12095651200E+02  0.10015606562E+02 -0.55839336831E+01  0.16667257375E+02  0.51100000000E-03 0. -1.
        -11    1    3    3    0    0 -0.17807188001E+01  0.20742432334E+02 -0.23117556242E+02  0.31110140878E+02  0.51100000000E-03 0.  1.
         12    1    3    3    0    0 -0.97457762702E+01 -0.30265717292E+02  0.27792462218E+02  0.42230495551E+02  0.00000000000E+00 0. -1.
</event>
<event>
 7    1  0.2090370E-015  0.9000752E+02  0.7816164E-02  0.1186339E+00
        -11   -1    0    0    0    0  0.00000000000E+00  0.00000000000E+00  0.45593999997E+02  0.45594000000E+02  0.51100000000E-03 0.  1.
         11   -1    0    0    0    0 -0.00000000000E+00 -0.00000000000E+00 -0.45593999997E+02  0.45594000000E+02  0.51100000000E-03 0. -1.
    9900012    2    1    2    0    0  0.73342246583E+00 -0.38609724578E+00  0.84056417799E+00  0.90007522243E+02  0.89999780737E+02 0.  0.
         12    1    1    2    0    0 -0.73342246583E+00  0.38609724578E+00 -0.84056417799E+00  0.11804777566E+01  0.00000000000E+00 0. -1.
         11    1    3    3    0    0  0.11280457963E+02  0.95980495251E+01 -0.33069081174E+02  0.36234450686E+02  0.51100000000E-03 0. -1.
        -11    1    3    3    0    0  0.96577112059E+01  0.42015642782E+01 -0.14673378842E+01  0.10633795599E+02  0.51100000000E-03 0.  1.
        -12    1    3    3    0    0 -0.20204746703E+02 -0.14185711049E+02  0.35376983236E+02  0.43139275958E+02  0.00000000000E+00 0.  1.
</event>
<event>
 7    1  0.2090370E-015  0.9000771E+02  0.7816164E-02  0.1186339E+00
        -11   -1    0    0    0    0  0.00000000000E+00  0.00000000000E+00  0.45593999997E+02  0.45594000000E+02  0.51100000000E-03 0.  1.
         11   -1    0    0    0    0 -0.00000000000E+00 -0.00000000000E+00 -0.45593999997E+02  0.45594000000E+02  0.51100000000E-03 0. -1.
    9900012    2    1    2    0    0 -0.60907979382E+00 -0.72973216674E+00  0.69971817044E+00  0.90007706499E+02  0.89999967425E+02 0.  0.
         12    1    1    2    0    0  0.60907979382E+00  0.72973216674E+00 -0.69971817044E+00  0.11802935010E+01  0.00000000000E+00 0. -1.
         11    1    3    3    0    0 -0.28900795312E+02  0.14037527141E+02 -0.41302219610E+01  0.32393932636E+02  0.51100000000E-03 0. -1.
        -11    1    3    3    0    0  0.29981864879E+01  0.91157916428E+01 -0.14823526000E+02  0.17658530597E+02  0.51100000000E-03 0.  1.
        -12    1    3    3    0    0  0.25293529031E+02 -0.23883050950E+02  0.19653466132E+02  0.39955243267E+02  0.00000000000E+00 0.  1.
</event>
<event>
 7    1  0.2090370E-015  0.9000784E+02  0.7816164E-02  0.1186339E+00
        -11   -1    0    0    0    0  0.00000000000E+00  0.00000000000E+00  0.45593999997E+02  0.45594000000E+02  0.51100000000E-03 0. -1.
         11   -1    0    0    0    0 -0.00000000000E+00 -0.00000000000E+00 -0.45593999997E+02  0.45594000000E+02  0.51100000000E-03 0.  1.
    9900012    2    1    2    0    0  0.22302731187E+00  0.11552054555E+01 -0.92351289456E-01  0.90007843406E+02  0.90000106139E+02 0.  0.
         12    1    1    2    0    0 -0.22302731187E+00 -0.11552054555E+01  0.92351289457E-01  0.11801565943E+01  0.00000000000E+00 0. -1.
         11    1    3    3    0    0 -0.15584349229E+01  0.95374782944E+01  0.61508499282E+01  0.11455355373E+02  0.51100000000E-03 0. -1.
        -11    1    3    3    0    0  0.17788219351E+02  0.52308407753E+01 -0.36951940228E+02  0.41342814730E+02  0.51100000000E-03 0.  1.
         12    1    3    3    0    0 -0.16006757116E+02 -0.13613113614E+02  0.30708739011E+02  0.37209673303E+02  0.00000000000E+00 0. -1.
</event>
<event>
 7    1  0.2090370E-015  0.9000708E+02  0.7816164E-02  0.1186340E+00
        -11   -1    0    0    0    0  0.00000000000E+00  0.00000000000E+00  0.45593999997E+02  0.45594000000E+02  0.51100000000E-03 0. -1.
         11   -1    0    0    0    0 -0.00000000000E+00 -0.00000000000E+00 -0.45593999997E+02  0.45594000000E+02  0.51100000000E-03 0.  1.
    9900012    2    1    2    0    0 -0.62356457461E+00  0.43409387266E+00 -0.90405020360E+00  0.90007077886E+02  0.89999330511E+02 0.  0.
         12    1    1    2    0    0  0.62356457461E+00 -0.43409387266E+00  0.90405020360E+00  0.11809221141E+01  0.00000000000E+00 0. -1.
         11    1    3    3    0    0  0.22196845239E+02  0.33840962045E+02 -0.78158214220E+01  0.41218899979E+02  0.51100000000E-03 0. -1.
        -11    1    3    3    0    0 -0.73445220294E+01  0.16130460090E+01  0.73268486632E+01  0.10498887220E+02  0.51100000000E-03 0.  1.
        -12    1    3    3    0    0 -0.15475887784E+02 -0.35019914182E+02 -0.41507744484E+00  0.38289290687E+02  0.00000000000E+00 0.  1.
</event>
<event>
 7    1  0.2090370E-015  0.9000775E+02  0.7816164E-02  0.1186339E+00
        -11   -1    0    0    0    0  0.00000000000E+00  0.00000000000E+00  0.45593999997E+02  0.45594000000E+02  0.51100000000E-03 0.  1.
         11   -1    0    0    0    0 -0.00000000000E+00 -0.00000000000E+00 -0.45593999997E+02  0.45594000000E+02  0.51100000000E-03 0. -1.
    9900012    2    1    2    0    0 -0.17320683277E+00 -0.68796218374E-01  0.11654441201E+01  0.90007748534E+02  0.90000010014E+02 0.  0.
         12    1    1    2    0    0  0.17320683277E+00  0.68796218374E-01 -0.11654441201E+01  0.11802514663E+01  0.00000000000E+00 0. -1.
         11    1    3    3    0    0 -0.19183703343E+02  0.25011424932E+01 -0.35675546192E+02  0.40583429920E+02  0.51100000000E-03 0. -1.
        -11    1    3    3    0    0  0.96508247863E+00 -0.88791494324E+01  0.12421828537E+01  0.90174107889E+01  0.51100000000E-03 0.  1.
        -12    1    3    3    0    0  0.18045414031E+02  0.63092107209E+01  0.35598807458E+02  0.40406907825E+02  0.00000000000E+00 0.  1.
</event>
<event>
 7    1  0.2090370E-015  0.9000786E+02  0.7816164E-02  0.1186339E+00
        -11   -1    0    0    0    0  0.00000000000E+00  0.00000000000E+00  0.45593999997E+02  0.45594000000E+02  0.51100000000E-03 0. -1.
         11   -1    0    0    0    0 -0.00000000000E+00 -0.00000000000E+00 -0.45593999997E+02  0.45594000000E+02  0.51100000000E-03 0.  1.
    9900012    2    1    2    0    0  0.72942057974E+00 -0.39570163549E+00 -0.83910684573E+00  0.90007858286E+02  0.90000121215E+02 0.  0.
         12    1    1    2    0    0 -0.72942057974E+00  0.39570163549E+00  0.83910684573E+00  0.11801417140E+01  0.00000000000E+00 0. -1.
         11    1    3    3    0    0 -0.14951702242E+02 -0.22522090793E+02  0.16089777297E+02  0.31459162534E+02  0.51100000000E-03 0. -1.
        -11    1    3    3    0    0 -0.17659149579E+02  0.48505833365E+01 -0.77968673227E+01  0.19903890646E+02  0.51100000000E-03 0.  1.
        -12    1    3    3    0    0  0.33340272401E+02  0.17275805820E+02 -0.91320168199E+01  0.38644805106E+02  0.00000000000E+00 0.  1.
</event>
<event>
 7    1  0.2090370E-015  0.9000775E+02  0.7816164E-02  0.1186339E+00
        -11   -1    0    0    0    0  0.00000000000E+00  0.00000000000E+00  0.45593999997E+02  0.45594000000E+02  0.51100000000E-03 0. -1.
         11   -1    0    0    0    0 -0.00000000000E+00 -0.00000000000E+00 -0.45593999997E+02  0.45594000000E+02  0.51100000000E-03 0.  1.
    9900012    2    1    2    0    0 -0.20127841765E+00 -0.10205019639E+01 -0.55772323408E+00  0.90007748982E+02  0.90000010469E+02 0.  0.
         12    1    1    2    0    0  0.20127841765E+00  0.10205019639E+01  0.55772323408E+00  0.11802510180E+01  0.00000000000E+00 0. -1.
         11    1    3    3    0    0  0.57639825215E+01  0.30255188065E+01 -0.67886256792E+01  0.94054610429E+01  0.51100000000E-03 0. -1.
        -11    1    3    3    0    0  0.17106551445E+02 -0.24631067291E+02 -0.23199599051E+02  0.37914970323E+02  0.51100000000E-03 0.  1.
         12    1    3    3    0    0 -0.23071812384E+02  0.20585046521E+02  0.29430501496E+02  0.42687317616E+02  0.00000000000E+00 0. -1.
</event>
<event>
 7    1  0.2090370E-015  0.9000769E+02  0.7816164E-02  0.1186339E+00
        -11   -1    0    0    0    0  0.00000000000E+00  0.00000000000E+00  0.45593999997E+02  0.45594000000E+02  0.51100000000E-03 0.  1.
         11   -1    0    0    0    0 -0.00000000000E+00 -0.00000000000E+00 -0.45593999997E+02  0.45594000000E+02  0.51100000000E-03 0. -1.
    9900012    2    1    2    0    0  0.84796404212E+00 -0.75781286359E+00  0.31592395138E+00  0.90007690169E+02  0.89999950880E+02 0.  0.
         12    1    1    2    0    0 -0.84796404212E+00  0.75781286359E+00 -0.31592395138E+00  0.11803098305E+01  0.00000000000E+00 0. -1.
         11    1    3    3    0    0  0.30888112967E+02 -0.14895898221E+02  0.28045090705E+02  0.44300004734E+02  0.51100000000E-03 0. -1.
        -11    1    3    3    0    0  0.22926170134E+00  0.45826364056E+01 -0.37704027862E+01  0.59387755291E+01  0.51100000000E-03 0.  1.
        -12    1    3    3    0    0 -0.30269410626E+02  0.95554489522E+01 -0.23958763968E+02  0.39768909907E+02  0.00000000000E+00 0.  1.
</event>
<event>
 7    1  0.2090370E-015  0.9000774E+02  0.7816164E-02  0.1186339E+00
        -11   -1    0    0    0    0  0.00000000000E+00  0.00000000000E+00  0.45593999997E+02  0.45594000000E+02  0.51100000000E-03 0.  1.
         11   -1    0    0    0    0 -0.00000000000E+00 -0.00000000000E+00 -0.45593999997E+02  0.45594000000E+02  0.51100000000E-03 0. -1.
    9900012    2    1    2    0    0  0.10335040006E+00  0.10560450181E+01 -0.51681700423E+00  0.90007740621E+02  0.90000001997E+02 0.  0.
         12    1    1    2    0    0 -0.10335040006E+00 -0.10560450181E+01  0.51681700423E+00  0.11802593789E+01  0.00000000000E+00 0. -1.
         11    1    3    3    0    0  0.13088686363E+02  0.15991478096E+02 -0.31666445040E+02  0.37812760070E+02  0.51100000000E-03 0. -1.
        -11    1    3    3    0    0 -0.12784400910E+01 -0.40297098750E+01 -0.84701625285E+01  0.94666057414E+01  0.51100000000E-03 0.  1.
        -12    1    3    3    0    0 -0.11706895872E+02 -0.10905723202E+02  0.39619790564E+02  0.42728374810E+02  0.00000000000E+00 0.  1.
</event>
<event>
 7    1  0.2090370E-015  0.9000779E+02  0.7816164E-02  0.1186339E+00
        -11   -1    0    0    0    0  0.00000000000E+00  0.00000000000E+00  0.45593999997E+02  0.45594000000E+02  0.51100000000E-03 0. -1.
         11   -1    0    0    0    0 -0.00000000000E+00 -0.00000000000E+00 -0.45593999997E+02  0.45594000000E+02  0.51100000000E-03 0.  1.
    9900012    2    1    2    0    0  0.70954324940E+00  0.43231626519E+00  0.83818044071E+00  0.90007790092E+02  0.90000052121E+02 0.  0.
         12    1    1    2    0    0 -0.70954324940E+00 -0.43231626519E+00 -0.83818044071E+00  0.11802099081E+01  0.00000000000E+00 0. -1.
         11    1    3    3    0    0  0.13094113884E+01 -0.33433302021E+01 -0.88993087686E+01  0.95963593015E+01  0.51100000000E-03 0. -1.
        -11    1    3    3    0    0  0.31031601846E+02  0.10322085178E+02 -0.18442582902E+02  0.37545101144E+02  0.51100000000E-03 0.  1.
         12    1    3    3    0    0 -0.31631469985E+02 -0.65464387112E+01  0.28180072111E+02  0.42866329647E+02  0.00000000000E+00 0. -1.
</event>
<event>
 7    1  0.2090370E-015  0.9000773E+02  0.7816164E-02  0.1186339E+00
        -11   -1    0    0    0    0  0.00000000000E+00  0.00000000000E+00  0.45593999997E+02  0.45594000000E+02  0.51100000000E-03 0.  1.
         11   -1    0    0    0    0 -0.00000000000E+00 -0.00000000000E+00 -0.45593999997E+02  0.45594000000E+02  0.51100000000E-03 0. -1.
    9900012    2    1    2    0    0  0.26444917557E+00 -0.75415087908E+00  0.86853480142E+00  0.90007733244E+02  0.89999994522E+02 0.  0.
         12    1    1    2    0    0 -0.26444917557E+00  0.75415087908E+00 -0.86853480142E+00  0.11802667564E+01  0.00000000000E+00 0. -1.
         11    1    3    3    0    0  0.37822336395E+02  0.10750925194E+02  0.91875886333E+00  0.39331356969E+02  0.51100000000E-03 0. -1.
        -11    1    3    3    0    0 -0.52183422348E+00  0.58614311098E+01  0.70243819089E+01  0.91635488254E+01  0.51100000000E-03 0.  1.
        -12    1    3    3    0    0 -0.37036052995E+02 -0.17366507183E+02 -0.70746059708E+01  0.41512827450E+02  0.00000000000E+00 0.  1.
</event>
<event>
 7    1  0.2090370E-015  0.9000818E+02  0.7816164E-02  0.1186338E+00
        -11   -1    0    0    0    0  0.00000000000E+00  0.00000000000E+00  0.45593999997E+02  0.45594000000E+02  0.51100000000E-03 0. -1.
         11   -1    0    0    0    0 -0.00000000000E+00 -0.00000000000E+00 -0.45593999997E+02  0.45594000000E+02  0.51100000000E-03 0.  1.
    9900012    2    1    2    0    0  0.10442962313E+01  0.36126211684E+00 -0.41340440284E+00  0.90008183007E+02  0.90000450222E+02 0.  0.
         12    1    1    2    0    0 -0.10442962313E+01 -0.36126211684E+00  0.41340440284E+00  0.11798169926E+01  0.00000000000E+00 0. -1.
         11    1    3    3    0    0  0.70769334482E+01  0.21592901666E+02 -0.28565830524E+02  0.36501274816E+02  0.51100000000E-03 0. -1.
        -11    1    3    3    0    0  0.12728829994E+01  0.99407593610E+01 -0.11719692352E+01  0.10090215060E+02  0.51100000000E-03 0.  1.
        -12    1    3    3    0    0 -0.73055202163E+01 -0.31172398910E+02  0.29324395356E+02  0.43416693132E+02  0.00000000000E+00 0.  1.
</event>
<event>
 7    1  0.2090370E-015  0.9000774E+02  0.7816164E-02  0.1186339E+00
        -11   -1    0    0    0    0  0.00000000000E+00  0.00000000000E+00  0.45593999997E+02  0.45594000000E+02  0.51100000000E-03 0.  1.
         11   -1    0    0    0    0 -0.00000000000E+00 -0.00000000000E+00 -0.45593999997E+02  0.45594000000E+02  0.51100000000E-03 0. -1.
    9900012    2    1    2    0    0 -0.94099607728E+00  0.59726547703E+00 -0.38835205662E+00  0.90007738594E+02  0.89999999943E+02 0.  0.
         12    1    1    2    0    0  0.94099607728E+00 -0.59726547703E+00  0.38835205662E+00  0.11802614064E+01  0.00000000000E+00 0. -1.
         11    1    3    3    0    0  0.15417149699E+01 -0.41802094432E+01  0.83927341366E+01  0.95020535984E+01  0.51100000000E-03 0. -1.
        -11    1    3    3    0    0 -0.13603173452E+02 -0.29564471339E+02  0.16449196223E+02  0.36464782327E+02  0.51100000000E-03 0.  1.
         12    1    3    3    0    0  0.11120462405E+02  0.34341946259E+02 -0.25230282416E+02  0.44040902668E+02  0.00000000000E+00 0. -1.
</event>
<event>
 7    1  0.2311213E-015  0.9000779E+02  0.7816164E-02  0.1186339E+00
        -11   -1    0    0    0    0  0.00000000000E+00  0.00000000000E+00  0.45593999997E+02  0.45594000000E+02  0.51100000000E-03 0. -1.
         11   -1    0    0    0    0 -0.00000000000E+00 -0.00000000000E+00 -0.45593999997E+02  0.45594000000E+02  0.51100000000E-03 0.  1.
    9900012    2    1    2    0    0 -0.66738359915E+00  0.72608797166E+00 -0.64830766832E+00  0.90007785001E+02  0.90000046963E+02 0.  0.
         12    1    1    2    0    0  0.66738359915E+00 -0.72608797166E+00  0.64830766832E+00  0.11802149990E+01  0.00000000000E+00 0. -1.
         11    1    3    3    0    0 -0.12341074029E+02  0.36273225520E+02  0.76580702279E+01  0.39072945086E+02  0.51100000000E-03 0. -1.
        -11    1    3    3    0    0 -0.54519088050E+01 -0.15115678580E+01  0.77443407434E+01  0.95907747767E+01  0.51100000000E-03 0.  1.
        -12    1    3    3    0    0  0.17125599235E+02 -0.34035569690E+02 -0.16050718640E+02  0.41344065138E+02  0.00000000000E+00 0.  1.
</event>
<event>
 7    1  0.2090370E-015  0.9000776E+02  0.7816164E-02  0.1186339E+00
        -11   -1    0    0    0    0  0.00000000000E+00  0.00000000000E+00  0.45593999997E+02  0.45594000000E+02  0.51100000000E-03 0. -1.
         11   -1    0    0    0    0 -0.00000000000E+00 -0.00000000000E+00 -0.45593999997E+02  0.45594000000E+02  0.51100000000E-03 0.  1.
    9900012    2    1    2    0    0  0.65046974223E+00 -0.16756823436E-01 -0.98466664766E+00  0.90007762700E+02  0.90000024368E+02 0.  0.
         12    1    1    2    0    0 -0.65046974223E+00  0.16756823436E-01  0.98466664766E+00  0.11802372997E+01  0.00000000000E+00 0. -1.
         11    1    3    3    0    0  0.11581860366E+02  0.35701092257E+02 -0.10445472214E+02  0.38959149990E+02  0.51100000000E-03 0. -1.
        -11    1    3    3    0    0  0.55283821124E+00  0.29284805287E+01  0.10300836800E+02  0.10723286219E+02  0.51100000000E-03 0.  1.
        -12    1    3    3    0    0 -0.11484228835E+02 -0.38646329609E+02 -0.84003123325E+00  0.40325326492E+02  0.00000000000E+00 0.  1.
</event>
<event>
 7    1  0.2090370E-015  0.9000771E+02  0.7816164E-02  0.1186339E+00
        -11   -1    0    0    0    0  0.00000000000E+00  0.00000000000E+00  0.45593999997E+02  0.45594000000E+02  0.51100000000E-03 0. -1.
         11   -1    0    0    0    0 -0.00000000000E+00 -0.00000000000E+00 -0.45593999997E+02  0.45594000000E+02  0.51100000000E-03 0.  1.
    9900012    2    1    2    0    0  0.10865784152E+01 -0.26475380549E+00 -0.37727166428E+00  0.90007711417E+02  0.89999972408E+02 0.  0.
         12    1    1    2    0    0 -0.10865784152E+01  0.26475380549E+00  0.37727166428E+00  0.11802885828E+01  0.00000000000E+00 0. -1.
         11    1    3    3    0    0  0.68900254834E+01  0.50463247552E+01  0.60919519975E+01  0.10490458717E+02  0.51100000000E-03 0. -1.
        -11    1    3    3    0    0  0.32557578333E+02 -0.16077748318E+02 -0.14095029465E+02  0.38950734958E+02  0.51100000000E-03 0.  1.
         12    1    3    3    0    0 -0.38361025402E+02  0.10766669758E+02  0.76258058031E+01  0.40566517742E+02  0.00000000000E+00 0. -1.
</event>
<event>
 7    1  0.2090370E-015  0.9000762E+02  0.7816164E-02  0.1186339E+00
        -11   -1    0    0    0    0  0.00000000000E+00  0.00000000000E+00  0.45593999997E+02  0.45594000000E+02  0.51100000000E-03 0.  1.
         11   -1    0    0    0    0 -0.00000000000E+00 -0.00000000000E+00 -0.45593999997E+02  0.45594000000E+02  0.51100000000E-03 0. -1.
    9900012    2    1    2    0    0 -0.64016783662E+00 -0.98973748797E+00  0.62543660053E-01  0.90007615798E+02  0.89999875527E+02 0.  0.
         12    1    1    2    0    0  0.64016783662E+00  0.98973748797E+00 -0.62543660053E-01  0.11803842017E+01  0.00000000000E+00 0. -1.
         11    1    3    3    0    0  0.37230419353E+02  0.84438264501E+01  0.17099103961E+02  0.41830391904E+02  0.51100000000E-03 0. -1.
        -11    1    3    3    0    0 -0.27657271213E+01  0.41211219488E+01  0.27367014313E+01  0.56676650935E+01  0.51100000000E-03 0.  1.
        -12    1    3    3    0    0 -0.35104860068E+02 -0.13554685887E+02 -0.19773261732E+02  0.42509558801E+02  0.00000000000E+00 0.  1.
</event>
<event>
 7    1  0.2090370E-015  0.9000770E+02  0.7816164E-02  0.1186339E+00
        -11   -1    0    0    0    0  0.00000000000E+00  0.00000000000E+00  0.45593999997E+02  0.45594000000E+02  0.51100000000E-03 0.  1.
         11   -1    0    0    0    0 -0.00000000000E+00 -0.00000000000E+00 -0.45593999997E+02  0.45594000000E+02  0.51100000000E-03 0. -1.
    9900012    2    1    2    0    0 -0.89485610893E+00  0.63247510759E+00 -0.43854447903E+00  0.90007697718E+02  0.89999958528E+02 0.  0.
         12    1    1    2    0    0  0.89485610893E+00 -0.63247510759E+00  0.43854447903E+00  0.11803022823E+01  0.00000000000E+00 0. -1.
         11    1    3    3    0    0 -0.24745492194E+02 -0.25539737148E+02 -0.14176413584E+02  0.38283002232E+02  0.51100000000E-03 0. -1.
        -11    1    3    3    0    0 -0.78929415479E+01  0.31938390860E+01  0.87702259781E+01  0.12223583695E+02  0.51100000000E-03 0.  1.
        -12    1    3    3    0    0  0.31743577633E+02  0.22978373170E+02  0.49676431269E+01  0.39501111791E+02  0.00000000000E+00 0.  1.
</event>
<event>
 7    1  0.2090370E-015  0.9000775E+02  0.7816164E-02  0.1186339E+00
        -11   -1    0    0    0    0  0.00000000000E+00  0.00000000000E+00  0.45593999997E+02  0.45594000000E+02  0.51100000000E-03 0.  1.
         11   -1    0    0    0    0 -0.00000000000E+00 -0.00000000000E+00 -0.45593999997E+02  0.45594000000E+02  0.51100000000E-03 0. -1.
    9900012    2    1    2    0    0  0.35689052516E+00 -0.81891437965E+00 -0.77136520155E+00  0.90007747535E+02  0.90000009002E+02 0.  0.
         12    1    1    2    0    0 -0.35689052516E+00  0.81891437965E+00  0.77136520155E+00  0.11802524655E+01  0.00000000000E+00 0. -1.
         11    1    3    3    0    0  0.69868044678E+00 -0.19867934385E+01  0.10759219511E+02  0.10963407649E+02  0.51100000000E-03 0. -1.
        -11    1    3    3    0    0 -0.44569571558E+01  0.38097427227E+02  0.44127552660E+01  0.38610242653E+02  0.51100000000E-03 0.  1.
         12    1    3    3    0    0  0.41151672342E+01 -0.36929548169E+02 -0.15943339979E+02  0.40434097232E+02  0.00000000000E+00 0. -1.
</event>
<event>
 7    1  0.2090370E-015  0.9000771E+02  0.7816164E-02  0.1186339E+00
        -11   -1    0    0    0    0  0.00000000000E+00  0.00000000000E+00  0.45593999997E+02  0.45594000000E+02  0.51100000000E-03 0. -1.
         11   -1    0    0    0    0 -0.00000000000E+00 -0.00000000000E+00 -0.45593999997E+02  0.45594000000E+02  0.51100000000E-03 0.  1.
    9900012    2    1    2    0    0  0.38467233617E+00  0.27215679515E+00 -0.10821443341E+01  0.90007712540E+02  0.89999973546E+02 0.  0.
         12    1    1    2    0    0 -0.38467233617E+00 -0.27215679515E+00  0.10821443341E+01  0.11802874595E+01  0.00000000000E+00 0. -1.
         11    1    3    3    0    0 -0.17357575291E+02 -0.15406948992E+02  0.31453441782E+02  0.39089365528E+02  0.51100000000E-03 0. -1.
        -11    1    3    3    0    0  0.30454825464E+01 -0.70407797734E+01  0.10999123894E+01  0.77496678176E+01  0.51100000000E-03 0.  1.
        -12    1    3    3    0    0  0.14696765081E+02  0.22719885560E+02 -0.33635498505E+02  0.43168679195E+02  0.00000000000E+00 0.  1.
</event>
<event>
 7    1  0.2090370E-015  0.9000783E+02  0.7816164E-02  0.1186339E+00
        -11   -1    0    0    0    0  0.00000000000E+00  0.00000000000E+00  0.45593999997E+02  0.45594000000E+02  0.51100000000E-03 0. -1.
         11   -1    0    0    0    0 -0.00000000000E+00 -0.00000000000E+00 -0.45593999997E+02  0.45594000000E+02  0.51100000000E-03 0.  1.
    9900012    2    1    2    0    0 -0.82022840047E+00  0.74209074750E+00  0.41150491669E+00  0.90007826452E+02  0.90000088961E+02 0.  0.
         12    1    1    2    0    0  0.82022840047E+00 -0.74209074750E+00 -0.41150491669E+00  0.11801735478E+01  0.00000000000E+00 0. -1.
         11    1    3    3    0    0 -0.41194169757E+02 -0.17451101107E+01  0.11886069158E+02  0.42910181444E+02  0.51100000000E-03 0. -1.
        -11    1    3    3    0    0  0.77394915532E+01 -0.59155188326E+01  0.33237169691E+01  0.10292724970E+02  0.51100000000E-03 0.  1.
        -12    1    3    3    0    0  0.32634449804E+02  0.84027196908E+01 -0.14798281211E+02  0.36804920038E+02  0.00000000000E+00 0.  1.
</event>
<event>
 7    1  0.2090370E-015  0.9000783E+02  0.7816164E-02  0.1186339E+00
        -11   -1    0    0    0    0  0.00000000000E+00  0.00000000000E+00  0.45593999997E+02  0.45594000000E+02  0.51100000000E-03 0.  1.
         11   -1    0    0    0    0 -0.00000000000E+00 -0.00000000000E+00 -0.45593999997E+02  0.45594000000E+02  0.51100000000E-03 0. -1.
    9900012    2    1    2    0    0  0.13557194294E+00  0.11080564359E+01  0.38293384481E+00  0.90007827493E+02  0.90000090016E+02 0.  0.
         12    1    1    2    0    0 -0.13557194294E+00 -0.11080564359E+01 -0.38293384481E+00  0.11801725070E+01  0.00000000000E+00 0. -1.
         11    1    3    3    0    0  0.16247042804E+02  0.35480928004E+02 -0.22804011312E+02  0.45198291826E+02  0.51100000000E-03 0. -1.
        -11    1    3    3    0    0 -0.16514436096E+01 -0.86330614421E+01  0.45720187115E+01  0.99075915953E+01  0.51100000000E-03 0.  1.
        -12    1    3    3    0    0 -0.14460027251E+02 -0.25739810126E+02  0.18614926445E+02  0.34901944071E+02  0.00000000000E+00 0.  1.
</event>
<event>
 7    1  0.2090370E-015  0.9000772E+02  0.7816164E-02  0.1186339E+00
        -11   -1    0    0    0    0  0.00000000000E+00  0.00000000000E+00  0.45593999997E+02  0.45594000000E+02  0.51100000000E-03 0. -1.
         11   -1    0    0    0    0 -0.00000000000E+00 -0.00000000000E+00 -0.45593999997E+02  0.45594000000E+02  0.51100000000E-03 0.  1.
    9900012    2    1    2    0    0 -0.85632687123E+00 -0.38406839532E+00  0.71572119587E+00  0.90007719918E+02  0.89999981021E+02 0.  0.
         12    1    1    2    0    0  0.85632687123E+00  0.38406839532E+00 -0.71572119587E+00  0.11802800824E+01  0.00000000000E+00 0. -1.
         11    1    3    3    0    0  0.54395146782E+01 -0.68755814501E+01 -0.27365479042E+01  0.91842601719E+01  0.51100000000E-03 0. -1.
        -11    1    3    3    0    0 -0.57097504335E+01  0.15185450222E+02 -0.36494140943E+02  0.39937719914E+02  0.51100000000E-03 0.  1.
         12    1    3    3    0    0 -0.58609111593E+00 -0.86939371674E+01  0.39946410043E+02  0.40885739832E+02  0.00000000000E+00 0. -1.
</event>
<event>
 7    1  0.2090370E-015  0.9000775E+02  0.7816164E-02  0.1186339E+00
        -11   -1    0    0    0    0  0.00000000000E+00  0.00000000000E+00  0.45593999997E+02  0.45594000000E+02  0.51100000000E-03 0.  1.
         11   -1    0    0    0    0 -0.00000000000E+00 -0.00000000000E+00 -0.45593999997E+02  0.45594000000E+02  0.51100000000E-03 0. -1.
    9900012    2    1    2    0    0 -0.12447152093E-01 -0.11281843159E+01  0.34645367430E+00  0.90007752174E+02  0.90000013703E+02 0.  0.
         12    1    1    2    0    0  0.12447152093E-01  0.11281843159E+01 -0.34645367430E+00  0.11802478260E+01  0.00000000000E+00 0. -1.
         11    1    3    3    0    0  0.17669410372E+02 -0.14227909403E+02 -0.35533608425E+02  0.42157784535E+02  0.51100000000E-03 0. -1.
        -11    1    3    3    0    0 -0.55806916171E+01  0.67502820610E+01 -0.71396299734E+00  0.87875007966E+01  0.51100000000E-03 0.  1.
        -12    1    3    3    0    0 -0.12101165907E+02  0.63494430265E+01  0.36594025097E+02  0.39062466843E+02  0.00000000000E+00 0.  1.
</event>
<event>
 7    1  0.2090370E-015  0.9000783E+02  0.7816164E-02  0.1186339E+00
        -11   -1    0    0    0    0  0.00000000000E+00  0.00000000000E+00  0.45593999997E+02  0.45594000000E+02  0.51100000000E-03 0.  1.
         11   -1    0    0    0    0 -0.00000000000E+00 -0.00000000000E+00 -0.45593999997E+02  0.45594000000E+02  0.51100000000E-03 0. -1.
    9900012    2    1    2    0    0 -0.11226865947E+01 -0.54318657903E-01 -0.35974954035E+00  0.90007832453E+02  0.90000095042E+02 0.  0.
         12    1    1    2    0    0  0.11226865947E+01  0.54318657903E-01  0.35974954035E+00  0.11801675467E+01  0.00000000000E+00 0. -1.
         11    1    3    3    0    0  0.52795356019E+01  0.13863302308E+02  0.17251011675E+01  0.14934544565E+02  0.51100000000E-03 0. -1.
        -11    1    3    3    0    0  0.26908019064E+02  0.14457083694E+02  0.43198927884E+01  0.30849801180E+02  0.51100000000E-03 0.  1.
         12    1    3    3    0    0 -0.33310241261E+02 -0.28374704660E+02 -0.64047434962E+01  0.44223486708E+02  0.00000000000E+00 0. -1.
</event>
<event>
 7    1  0.2090370E-015  0.9000777E+02  0.7816164E-02  0.1186339E+00
        -11   -1    0    0    0    0  0.00000000000E+00  0.00000000000E+00  0.45593999997E+02  0.45594000000E+02  0.51100000000E-03 0.  1.
         11   -1    0    0    0    0 -0.00000000000E+00 -0.00000000000E+00 -0.45593999997E+02  0.45594000000E+02  0.51100000000E-03 0. -1.
    9900012    2    1    2    0    0 -0.10339895879E+01 -0.43540560941E+00 -0.36636838903E+00  0.90007771925E+02  0.90000033714E+02 0.  0.
         12    1    1    2    0    0  0.10339895879E+01  0.43540560941E+00  0.36636838903E+00  0.11802280750E+01  0.00000000000E+00 0. -1.
         11    1    3    3    0    0 -0.79802226809E-01 -0.39318174756E+01 -0.78860031716E+01  0.88121849357E+01  0.51100000000E-03 0. -1.
        -11    1    3    3    0    0  0.16073559895E+02 -0.27402396728E+02  0.26287226497E+02  0.41234317641E+02  0.51100000000E-03 0.  1.
         12    1    3    3    0    0 -0.17027747257E+02  0.30898808594E+02 -0.18767591714E+02  0.39961269348E+02  0.00000000000E+00 0. -1.
</event>
<event>
 7    1  0.2090370E-015  0.9000771E+02  0.7816164E-02  0.1186339E+00
        -11   -1    0    0    0    0  0.00000000000E+00  0.00000000000E+00  0.45593999997E+02  0.45594000000E+02  0.51100000000E-03 0. -1.
         11   -1    0    0    0    0 -0.00000000000E+00 -0.00000000000E+00 -0.45593999997E+02  0.45594000000E+02  0.51100000000E-03 0.  1.
    9900012    2    1    2    0    0  0.80022093046E-01 -0.11714119544E+01 -0.12032034316E+00  0.90007709151E+02  0.89999970112E+02 0.  0.
         12    1    1    2    0    0 -0.80022093046E-01  0.11714119544E+01  0.12032034316E+00  0.11802908486E+01  0.00000000000E+00 0. -1.
         11    1    3    3    0    0 -0.23773413086E+02  0.20934038715E+02 -0.23243361425E+02  0.39289476928E+02  0.51100000000E-03 0. -1.
        -11    1    3    3    0    0 -0.34961488223E+01 -0.75816358450E+01 -0.42671655217E+01  0.93761911523E+01  0.51100000000E-03 0.  1.
        -12    1    3    3    0    0  0.27349584001E+02 -0.14523814825E+02  0.27390206604E+02  0.41342041071E+02  0.00000000000E+00 0.  1.
</event>
<event>
 7    1  0.2974031E-015  0.9000796E+02  0.7816164E-02  0.1186339E+00
        -11   -1    0    0    0    0  0.00000000000E+00  0.00000000000E+00  0.45593999997E+02  0.45594000000E+02  0.51100000000E-03 0. -1.
         11   -1    0    0    0    0 -0.00000000000E+00 -0.00000000000E+00 -0.45593999997E+02  0.45594000000E+02  0.51100000000E-03 0.  1.
    9900012    2    1    2    0    0  0.96640933399E+00  0.36768429285E+00 -0.56864068688E+00  0.90007961454E+02  0.90000225745E+02 0.  0.
         12    1    1    2    0    0 -0.96640933399E+00 -0.36768429285E+00  0.56864068688E+00  0.11800385463E+01  0.00000000000E+00 0. -1.
         11    1    3    3    0    0 -0.32731505029E+02 -0.12404684952E+02 -0.20437162979E+02  0.40532767746E+02  0.51100000000E-03 0. -1.
        -11    1    3    3    0    0  0.50756860449E+01  0.64577129844E+01 -0.61670175063E+01  0.10271161132E+02  0.51100000000E-03 0.  1.
        -12    1    3    3    0    0  0.28622228318E+02  0.63146562610E+01  0.26035539799E+02  0.39204032576E+02  0.00000000000E+00 0.  1.
</event>
<event>
 7    1  0.2132038E-015  0.9000783E+02  0.7816164E-02  0.1186339E+00
        -11   -1    0    0    0    0  0.00000000000E+00  0.00000000000E+00  0.45593999997E+02  0.45594000000E+02  0.51100000000E-03 0. -1.
         11   -1    0    0    0    0 -0.00000000000E+00 -0.00000000000E+00 -0.45593999997E+02  0.45594000000E+02  0.51100000000E-03 0.  1.
    9900012    2    1    2    0    0  0.25847966134E+00 -0.66471803931E+00 -0.94029059691E+00  0.90007827041E+02  0.90000089558E+02 0.  0.
         12    1    1    2    0    0 -0.25847966134E+00  0.66471803931E+00  0.94029059691E+00  0.11801729593E+01  0.00000000000E+00 0. -1.
         11    1    3    3    0    0  0.33767823245E+01 -0.32739086419E+02  0.15552382594E+02  0.36402294475E+02  0.51100000000E-03 0. -1.
        -11    1    3    3    0    0 -0.46002518239E+01 -0.58745392243E+01  0.59047408784E+01  0.95151717296E+01  0.51100000000E-03 0.  1.
        -12    1    3    3    0    0  0.14819491608E+01  0.37948907604E+02 -0.22397414069E+02  0.44090360836E+02  0.00000000000E+00 0.  1.
</event>
<event>
 7    1  0.2090370E-015  0.9000777E+02  0.7816164E-02  0.1186339E+00
        -11   -1    0    0    0    0  0.00000000000E+00  0.00000000000E+00  0.45593999997E+02  0.45594000000E+02  0.51100000000E-03 0.  1.
         11   -1    0    0    0    0 -0.00000000000E+00 -0.00000000000E+00 -0.45593999997E+02  0.45594000000E+02  0.51100000000E-03 0. -1.
    9900012    2    1    2    0    0 -0.81006715675E+00 -0.92237720247E-01  0.85336808567E+00  0.90007765411E+02  0.90000027114E+02 0.  0.
         12    1    1    2    0    0  0.81006715675E+00  0.92237720247E-01 -0.85336808567E+00  0.11802345890E+01  0.00000000000E+00 0. -1.
         11    1    3    3    0    0 -0.24691128473E+02 -0.18350695160E+02  0.13016939290E+02  0.33404199540E+02  0.51100000000E-03 0. -1.
        -11    1    3    3    0    0  0.90591887596E+01 -0.12947440817E+02  0.67896762505E+01  0.17198977544E+02  0.51100000000E-03 0.  1.
        -12    1    3    3    0    0  0.14821872557E+02  0.31205898258E+02 -0.18953247455E+02  0.39404588327E+02  0.00000000000E+00 0.  1.
</event>
<event>
 7    1  0.2090370E-015  0.9000747E+02  0.7816164E-02  0.1186340E+00
        -11   -1    0    0    0    0  0.00000000000E+00  0.00000000000E+00  0.45593999997E+02  0.45594000000E+02  0.51100000000E-03 0.  1.
         11   -1    0    0    0    0 -0.00000000000E+00 -0.00000000000E+00 -0.45593999997E+02  0.45594000000E+02  0.51100000000E-03 0. -1.
    9900012    2    1    2    0    0  0.91194791556E+00  0.43230217478E+00  0.61247411125E+00  0.90007466770E+02  0.89999724531E+02 0.  0.
         12    1    1    2    0    0 -0.91194791556E+00 -0.43230217478E+00 -0.61247411125E+00  0.11805332304E+01  0.00000000000E+00 0. -1.
         11    1    3    3    0    0 -0.11907028654E+02 -0.85706566877E+01  0.33918106657E+02  0.36954992178E+02  0.51100000000E-03 0. -1.
        -11    1    3    3    0    0 -0.64936365905E+01  0.14859441308E+01  0.57754897066E+01  0.88165541875E+01  0.51100000000E-03 0.  1.
        -12    1    3    3    0    0  0.19312613160E+02  0.75170147317E+01 -0.39081122252E+02  0.44235920404E+02  0.00000000000E+00 0.  1.
</event>
<event>
 7    1  0.2090370E-015  0.9000787E+02  0.7816164E-02  0.1186339E+00
        -11   -1    0    0    0    0  0.00000000000E+00  0.00000000000E+00  0.45593999997E+02  0.45594000000E+02  0.51100000000E-03 0.  1.
         11   -1    0    0    0    0 -0.00000000000E+00 -0.00000000000E+00 -0.45593999997E+02  0.45594000000E+02  0.51100000000E-03 0. -1.
    9900012    2    1    2    0    0  0.50815600897E+00 -0.45480800580E+00  0.96314353182E+00  0.90007865129E+02  0.90000128148E+02 0.  0.
         12    1    1    2    0    0 -0.50815600897E+00  0.45480800580E+00 -0.96314353182E+00  0.11801348713E+01  0.00000000000E+00 0. -1.
         11    1    3    3    0    0 -0.36208342406E+01  0.43252023932E+01 -0.51040978555E+00  0.56637738965E+01  0.51100000000E-03 0. -1.
        -11    1    3    3    0    0  0.29269293747E+01  0.34965314362E+02  0.20096950118E+02  0.40435473637E+02  0.51100000000E-03 0.  1.
         12    1    3    3    0    0  0.12020608749E+01 -0.39745324761E+02 -0.18623396800E+02  0.43908617595E+02  0.00000000000E+00 0. -1.
</event>
<event>
 7    1  0.2090370E-015  0.9000777E+02  0.7816164E-02  0.1186339E+00
        -11   -1    0    0    0    0  0.00000000000E+00  0.00000000000E+00  0.45593999997E+02  0.45594000000E+02  0.51100000000E-03 0. -1.
         11   -1    0    0    0    0 -0.00000000000E+00 -0.00000000000E+00 -0.45593999997E+02  0.45594000000E+02  0.51100000000E-03 0.  1.
    9900012    2    1    2    0    0 -0.11465808526E+01  0.20481623938E+00  0.19065209262E+00  0.90007768851E+02  0.90000030600E+02 0.  0.
         12    1    1    2    0    0  0.11465808526E+01 -0.20481623938E+00 -0.19065209262E+00  0.11802311485E+01  0.00000000000E+00 0. -1.
         11    1    3    3    0    0 -0.84617553476E+01  0.26508755047E+01 -0.42958641781E+01  0.98530651983E+01  0.51100000000E-03 0. -1.
        -11    1    3    3    0    0  0.18424736557E+01 -0.20413391121E+02 -0.32643313139E+02  0.38544612323E+02  0.51100000000E-03 0.  1.
         12    1    3    3    0    0  0.54727008393E+01  0.17967331855E+02  0.37129829410E+02  0.41610091330E+02  0.00000000000E+00 0. -1.
</event>
<event>
 7    1  0.2090370E-015  0.9000761E+02  0.7816164E-02  0.1186339E+00
        -11   -1    0    0    0    0  0.00000000000E+00  0.00000000000E+00  0.45593999997E+02  0.45594000000E+02  0.51100000000E-03 0.  1.
         11   -1    0    0    0    0 -0.00000000000E+00 -0.00000000000E+00 -0.45593999997E+02  0.45594000000E+02  0.51100000000E-03 0. -1.
    9900012    2    1    2    0    0  0.86945659675E+00  0.79767168918E+00  0.33101673701E-01  0.90007605736E+02  0.89999865332E+02 0.  0.
         12    1    1    2    0    0 -0.86945659675E+00 -0.79767168918E+00 -0.33101673701E-01  0.11803942639E+01  0.00000000000E+00 0. -1.
         11    1    3    3    0    0 -0.58628074179E+01 -0.67070772048E+01  0.34738792820E+01  0.95616543013E+01  0.51100000000E-03 0. -1.
        -11    1    3    3    0    0  0.12719414210E+02 -0.14210845603E+02  0.32702722689E+02  0.37857624095E+02  0.51100000000E-03 0.  1.
         12    1    3    3    0    0 -0.59871501954E+01  0.21715594497E+02 -0.36143500298E+02  0.42588327339E+02  0.00000000000E+00 0. -1.
</event>
<event>
 7    1  0.2090370E-015  0.9000771E+02  0.7816164E-02  0.1186339E+00
        -11   -1    0    0    0    0  0.00000000000E+00  0.00000000000E+00  0.45593999997E+02  0.45594000000E+02  0.51100000000E-03 0. -1.
         11   -1    0    0    0    0 -0.00000000000E+00 -0.00000000000E+00 -0.45593999997E+02  0.45594000000E+02  0.51100000000E-03 0.  1.
    9900012    2    1    2    0    0 -0.92592439731E+00 -0.54629261172E+00 -0.48714231123E+00  0.90007712222E+02  0.89999973223E+02 0.  0.
         12    1    1    2    0    0  0.92592439731E+00  0.54629261172E+00  0.48714231123E+00  0.11802877779E+01  0.00000000000E+00 0. -1.
         11    1    3    3    0    0 -0.63130939185E+00  0.78222395230E+01  0.10217709946E+02  0.12883616709E+02  0.51100000000E-03 0. -1.
        -11    1    3    3    0    0 -0.30053416715E+02  0.14247388102E+02  0.95606330122E+01  0.34606381316E+02  0.51100000000E-03 0.  1.
         12    1    3    3    0    0  0.29758801709E+02 -0.22615920237E+02 -0.20265485270E+02  0.42517714197E+02  0.00000000000E+00 0. -1.
</event>
<event>
 7    1  0.2090370E-015  0.9000796E+02  0.7816164E-02  0.1186339E+00
        -11   -1    0    0    0    0  0.00000000000E+00  0.00000000000E+00  0.45593999997E+02  0.45594000000E+02  0.51100000000E-03 0.  1.
         11   -1    0    0    0    0 -0.00000000000E+00 -0.00000000000E+00 -0.45593999997E+02  0.45594000000E+02  0.51100000000E-03 0. -1.
    9900012    2    1    2    0    0  0.84359706759E+00  0.90145494121E-02  0.82507881364E+00  0.90007960881E+02  0.90000225164E+02 0.  0.
         12    1    1    2    0    0 -0.84359706759E+00 -0.90145494121E-02 -0.82507881364E+00  0.11800391194E+01  0.00000000000E+00 0. -1.
         11    1    3    3    0    0 -0.51660511318E+01 -0.21965944081E+01 -0.85869470366E+01  0.10259082364E+02  0.51100000000E-03 0. -1.
        -11    1    3    3    0    0 -0.27415754329E+02  0.58111519793E+01  0.29415680842E+02  0.40628504186E+02  0.51100000000E-03 0.  1.
         12    1    3    3    0    0  0.33425402529E+02 -0.36055430217E+01 -0.20003654992E+02  0.39120374330E+02  0.00000000000E+00 0. -1.
</event>
<event>
 7    1  0.2090370E-015  0.9000769E+02  0.7816164E-02  0.1186339E+00
        -11   -1    0    0    0    0  0.00000000000E+00  0.00000000000E+00  0.45593999997E+02  0.45594000000E+02  0.51100000000E-03 0.  1.
         11   -1    0    0    0    0 -0.00000000000E+00 -0.00000000000E+00 -0.45593999997E+02  0.45594000000E+02  0.51100000000E-03 0. -1.
    9900012    2    1    2    0    0  0.74372584963E+00 -0.87875550529E+00  0.26037213973E+00  0.90007689436E+02  0.89999950136E+02 0.  0.
         12    1    1    2    0    0 -0.74372584963E+00  0.87875550529E+00 -0.26037213973E+00  0.11803105645E+01  0.00000000000E+00 0. -1.
         11    1    3    3    0    0  0.16812368239E+02  0.31053253716E+02 -0.21049829979E+02  0.41110286238E+02  0.51100000000E-03 0. -1.
        -11    1    3    3    0    0  0.56723775444E+01 -0.10472991364E+02  0.47330823812E+00  0.11919875673E+02  0.51100000000E-03 0.  1.
        -12    1    3    3    0    0 -0.21741019934E+02 -0.21459017857E+02  0.20836893881E+02  0.36977527524E+02  0.00000000000E+00 0.  1.
</event>
<event>
 7    1  0.2090370E-015  0.9000773E+02  0.7816164E-02  0.1186339E+00
        -11   -1    0    0    0    0  0.00000000000E+00  0.00000000000E+00  0.45593999997E+02  0.45594000000E+02  0.51100000000E-03 0. -1.
         11   -1    0    0    0    0 -0.00000000000E+00 -0.00000000000E+00 -0.45593999997E+02  0.45594000000E+02  0.51100000000E-03 0.  1.
    9900012    2    1    2    0    0  0.98644369244E+00  0.13865523605E+00 -0.63303972001E+00  0.90007730658E+02  0.89999991903E+02 0.  0.
         12    1    1    2    0    0 -0.98644369244E+00 -0.13865523605E+00  0.63303972001E+00  0.11802693421E+01  0.00000000000E+00 0. -1.
         11    1    3    3    0    0  0.92604576250E+01  0.38117899306E+01 -0.75747125102E+01  0.12556356469E+02  0.51100000000E-03 0. -1.
        -11    1    3    3    0    0  0.15512274494E+02 -0.18572036861E+02 -0.25093414629E+02  0.34860158794E+02  0.51100000000E-03 0.  1.
         12    1    3    3    0    0 -0.23786288427E+02  0.14898902167E+02  0.32035087419E+02  0.42591215395E+02  0.00000000000E+00 0. -1.
</event>
<event>
 7    1  0.2090370E-015  0.9000760E+02  0.7816164E-02  0.1186339E+00
        -11   -1    0    0    0    0  0.00000000000E+00  0.00000000000E+00  0.45593999997E+02  0.45594000000E+02  0.51100000000E-03 0.  1.
         11   -1    0    0    0    0 -0.00000000000E+00 -0.00000000000E+00 -0.45593999997E+02  0.45594000000E+02  0.51100000000E-03 0. -1.
    9900012    2    1    2    0    0  0.11319398725E+00 -0.54432435603E+00  0.10412645164E+01  0.90007604441E+02  0.89999864019E+02 0.  0.
         12    1    1    2    0    0 -0.11319398725E+00  0.54432435603E+00 -0.10412645164E+01  0.11803955593E+01  0.00000000000E+00 0. -1.
         11    1    3    3    0    0 -0.16427204634E+02  0.31986109485E+02 -0.23985622448E+01  0.36037721254E+02  0.51100000000E-03 0. -1.
        -11    1    3    3    0    0  0.23084331120E+01  0.91143814888E+01 -0.20386932195E+01  0.96206592113E+01  0.51100000000E-03 0.  1.
        -12    1    3    3    0    0  0.14231965509E+02 -0.41644815329E+02  0.54785199806E+01  0.44349223976E+02  0.00000000000E+00 0.  1.
</event>
<event>
 7    1  0.2090370E-015  0.9000758E+02  0.7816164E-02  0.1186339E+00
        -11   -1    0    0    0    0  0.00000000000E+00  0.00000000000E+00  0.45593999997E+02  0.45594000000E+02  0.51100000000E-03 0.  1.
         11   -1    0    0    0    0 -0.00000000000E+00 -0.00000000000E+00 -0.45593999997E+02  0.45594000000E+02  0.51100000000E-03 0. -1.
    9900012    2    1    2    0    0 -0.31131083850E+00 -0.10250912978E+01  0.49563674416E+00  0.90007583807E+02  0.89999843113E+02 0.  0.
         12    1    1    2    0    0  0.31131083850E+00  0.10250912978E+01 -0.49563674416E+00  0.11804161932E+01  0.00000000000E+00 0. -1.
         11    1    3    3    0    0 -0.69361690525E+01  0.83780145724E+01  0.38308429778E+01  0.11531562231E+02  0.51100000000E-03 0. -1.
        -11    1    3    3    0    0 -0.19555594790E+01  0.38105209137E+01  0.35921405478E+02  0.36175843519E+02  0.51100000000E-03 0.  1.
         12    1    3    3    0    0  0.85804176929E+01 -0.13213626784E+02 -0.39256611712E+02  0.42300178057E+02  0.00000000000E+00 0. -1.
</event>
<event>
 7    1  0.2090370E-015  0.9000785E+02  0.7816164E-02  0.1186339E+00
        -11   -1    0    0    0    0  0.00000000000E+00  0.00000000000E+00  0.45593999997E+02  0.45594000000E+02  0.51100000000E-03 0. -1.
         11   -1    0    0    0    0 -0.00000000000E+00 -0.00000000000E+00 -0.45593999997E+02  0.45594000000E+02  0.51100000000E-03 0.  1.
    9900012    2    1    2    0    0 -0.41787471183E+00  0.15020534322E+00 -0.10934235844E+01  0.90007849139E+02  0.90000111948E+02 0.  0.
         12    1    1    2    0    0  0.41787471183E+00 -0.15020534322E+00  0.10934235844E+01  0.11801508610E+01  0.00000000000E+00 0. -1.
         11    1    3    3    0    0  0.32266310291E+02  0.19359561227E+02 -0.14803829797E+02  0.40435884652E+02  0.51100000000E-03 0. -1.
        -11    1    3    3    0    0 -0.47555488700E+01  0.31706731571E+01  0.12519904111E+02  0.13762863529E+02  0.51100000000E-03 0.  1.
        -12    1    3    3    0    0 -0.27928636133E+02 -0.22380029041E+02  0.11905021016E+01  0.35809100957E+02  0.00000000000E+00 0.  1.
</event>
<event>
 7    1  0.2090370E-015  0.9000768E+02  0.7816164E-02  0.1186339E+00
        -11   -1    0    0    0    0  0.00000000000E+00  0.00000000000E+00  0.45593999997E+02  0.45594000000E+02  0.51100000000E-03 0. -1.
         11   -1    0    0    0    0 -0.00000000000E+00 -0.00000000000E+00 -0.45593999997E+02  0.45594000000E+02  0.51100000000E-03 0.  1.
    9900012    2    1    2    0    0 -0.76288082706E+00  0.64395416795E+00 -0.62968165039E+00  0.90007676694E+02  0.89999937226E+02 0.  0.
         12    1    1    2    0    0  0.76288082706E+00 -0.64395416795E+00  0.62968165039E+00  0.11803233064E+01  0.00000000000E+00 0. -1.
         11    1    3    3    0    0  0.31829399764E+02 -0.15580379848E+02  0.46486925751E+01  0.35741702093E+02  0.51100000000E-03 0. -1.
        -11    1    3    3    0    0  0.57446527075E+01  0.51086028418E+01  0.90335205016E+01  0.11861844319E+02  0.51100000000E-03 0.  1.
        -12    1    3    3    0    0 -0.38336933299E+02  0.11115731174E+02 -0.14311894727E+02  0.42404130282E+02  0.00000000000E+00 0.  1.
</event>
<event>
 7    1  0.2090370E-015  0.9000790E+02  0.7816164E-02  0.1186339E+00
        -11   -1    0    0    0    0  0.00000000000E+00  0.00000000000E+00  0.45593999997E+02  0.45594000000E+02  0.51100000000E-03 0. -1.
         11   -1    0    0    0    0 -0.00000000000E+00 -0.00000000000E+00 -0.45593999997E+02  0.45594000000E+02  0.51100000000E-03 0.  1.
    9900012    2    1    2    0    0 -0.77915669972E+00  0.86063912608E+00 -0.21179742241E+00  0.90007897032E+02  0.90000160472E+02 0.  0.
         12    1    1    2    0    0  0.77915669972E+00 -0.86063912608E+00  0.21179742241E+00  0.11801029685E+01  0.00000000000E+00 0. -1.
         11    1    3    3    0    0  0.26959559712E+02  0.64216789434E+00  0.19119878979E+02  0.33057525798E+02  0.51100000000E-03 0. -1.
        -11    1    3    3    0    0  0.10751368495E+02 -0.74803256429E+01  0.21697046914E+00  0.13099399707E+02  0.51100000000E-03 0.  1.
        -12    1    3    3    0    0 -0.38490084906E+02  0.76987968746E+01 -0.19548646870E+02  0.43850971527E+02  0.00000000000E+00 0.  1.
</event>
<event>
 7    1  0.2090370E-015  0.9000774E+02  0.7816164E-02  0.1186339E+00
        -11   -1    0    0    0    0  0.00000000000E+00  0.00000000000E+00  0.45593999997E+02  0.45594000000E+02  0.51100000000E-03 0. -1.
         11   -1    0    0    0    0 -0.00000000000E+00 -0.00000000000E+00 -0.45593999997E+02  0.45594000000E+02  0.51100000000E-03 0.  1.
    9900012    2    1    2    0    0 -0.99605433114E+00  0.16649347081E-01 -0.63294253559E+00  0.90007738298E+02  0.89999999644E+02 0.  0.
         12    1    1    2    0    0  0.99605433114E+00 -0.16649347081E-01  0.63294253559E+00  0.11802617018E+01  0.00000000000E+00 0. -1.
         11    1    3    3    0    0  0.18140984975E+00  0.11494174893E+02  0.72527490547E+01  0.13592326332E+02  0.51100000000E-03 0. -1.
        -11    1    3    3    0    0 -0.24303230108E+02  0.20638500902E+02 -0.16518585142E+02  0.35909029067E+02  0.51100000000E-03 0.  1.
         12    1    3    3    0    0  0.23125765927E+02 -0.32116026448E+02  0.86328935521E+01  0.40506382899E+02  0.00000000000E+00 0. -1.
</event>
<event>
 7    1  0.2090370E-015  0.9000769E+02  0.7816164E-02  0.1186339E+00
        -11   -1    0    0    0    0  0.00000000000E+00  0.00000000000E+00  0.45593999997E+02  0.45594000000E+02  0.51100000000E-03 0.  1.
         11   -1    0    0    0    0 -0.00000000000E+00 -0.00000000000E+00 -0.45593999997E+02  0.45594000000E+02  0.51100000000E-03 0. -1.
    9900012    2    1    2    0    0  0.98305019256E+00 -0.45413404868E+00  0.46957526933E+00  0.90007692265E+02  0.89999953003E+02 0.  0.
         12    1    1    2    0    0 -0.98305019256E+00  0.45413404868E+00 -0.46957526933E+00  0.11803077348E+01  0.00000000000E+00 0. -1.
         11    1    3    3    0    0 -0.25485999556E+02  0.25728034174E+02 -0.15963885893E+02  0.39576679609E+02  0.51100000000E-03 0. -1.
        -11    1    3    3    0    0 -0.29945042298E+01 -0.11652454036E+02 -0.28148033090E+01  0.12355964494E+02  0.51100000000E-03 0.  1.
        -12    1    3    3    0    0  0.29463553978E+02 -0.14529714186E+02  0.19248264472E+02  0.38075048162E+02  0.00000000000E+00 0.  1.
</event>
<event>
 7    1  0.2090370E-015  0.9000769E+02  0.7816164E-02  0.1186339E+00
        -11   -1    0    0    0    0  0.00000000000E+00  0.00000000000E+00  0.45593999997E+02  0.45594000000E+02  0.51100000000E-03 0. -1.
         11   -1    0    0    0    0 -0.00000000000E+00 -0.00000000000E+00 -0.45593999997E+02  0.45594000000E+02  0.51100000000E-03 0.  1.
    9900012    2    1    2    0    0  0.95314623034E+00 -0.64954785919E+00  0.25044028712E+00  0.90007694745E+02  0.89999955516E+02 0.  0.
         12    1    1    2    0    0 -0.95314623034E+00  0.64954785919E+00 -0.25044028712E+00  0.11803052551E+01  0.00000000000E+00 0. -1.
         11    1    3    3    0    0  0.87464152984E+00 -0.25257614957E+02  0.28234309213E+02  0.37893117160E+02  0.51100000000E-03 0. -1.
        -11    1    3    3    0    0 -0.15892669419E+01 -0.90986155416E+01 -0.18235956151E+01  0.94146734099E+01  0.51100000000E-03 0.  1.
        -12    1    3    3    0    0  0.16677716424E+01  0.33706682640E+02 -0.26160273311E+02  0.42699904175E+02  0.00000000000E+00 0.  1.
</event>
<event>
 7    1  0.2090370E-015  0.9000770E+02  0.7816164E-02  0.1186339E+00
        -11   -1    0    0    0    0  0.00000000000E+00  0.00000000000E+00  0.45593999997E+02  0.45594000000E+02  0.51100000000E-03 0. -1.
         11   -1    0    0    0    0 -0.00000000000E+00 -0.00000000000E+00 -0.45593999997E+02  0.45594000000E+02  0.51100000000E-03 0.  1.
    9900012    2    1    2    0    0  0.45781619550E+00  0.31034981194E+00  0.10426858520E+01  0.90007700690E+02  0.89999961539E+02 0.  0.
         12    1    1    2    0    0 -0.45781619550E+00 -0.31034981194E+00 -0.10426858520E+01  0.11802993098E+01  0.00000000000E+00 0. -1.
         11    1    3    3    0    0  0.90119629480E+01 -0.21434758572E+01  0.34379855403E+00  0.92697444751E+01  0.51100000000E-03 0. -1.
        -11    1    3    3    0    0 -0.94729485153E+01 -0.12134263593E+02 -0.37123851390E+02  0.40189021496E+02  0.51100000000E-03 0.  1.
         12    1    3    3    0    0  0.91880176279E+00  0.14588089262E+02  0.37822738688E+02  0.40548934719E+02  0.00000000000E+00 0. -1.
</event>
<event>
 7    1  0.2090370E-015  0.9000778E+02  0.7816164E-02  0.1186339E+00
        -11   -1    0    0    0    0  0.00000000000E+00  0.00000000000E+00  0.45593999997E+02  0.45594000000E+02  0.51100000000E-03 0.  1.
         11   -1    0    0    0    0 -0.00000000000E+00 -0.00000000000E+00 -0.45593999997E+02  0.45594000000E+02  0.51100000000E-03 0. -1.
    9900012    2    1    2    0    0  0.16910834593E+00 -0.79883929667E+00  0.85216510089E+00  0.90007776625E+02  0.90000038477E+02 0.  0.
         12    1    1    2    0    0 -0.16910834593E+00  0.79883929667E+00 -0.85216510089E+00  0.11802233745E+01  0.00000000000E+00 0. -1.
         11    1    3    3    0    0  0.55945512597E+01 -0.15095369450E+01 -0.42942237553E+02  0.43331437455E+02  0.51100000000E-03 0. -1.
        -11    1    3    3    0    0 -0.48414796231E+01 -0.45166103879E+01  0.75070742435E+01  0.10009788124E+02  0.51100000000E-03 0.  1.
        -12    1    3    3    0    0 -0.58396329065E+00  0.52273080362E+01  0.36287328411E+02  0.36666551046E+02  0.00000000000E+00 0.  1.
</event>
<event>
 7    1  0.2090370E-015  0.9000773E+02  0.7816164E-02  0.1186339E+00
        -11   -1    0    0    0    0  0.00000000000E+00  0.00000000000E+00  0.45593999997E+02  0.45594000000E+02  0.51100000000E-03 0. -1.
         11   -1    0    0    0    0 -0.00000000000E+00 -0.00000000000E+00 -0.45593999997E+02  0.45594000000E+02  0.51100000000E-03 0.  1.
    9900012    2    1    2    0    0  0.92990233739E+00  0.22149891762E+00 -0.69228602185E+00  0.90007728818E+02  0.89999990038E+02 0.  0.
         12    1    1    2    0    0 -0.92990233739E+00 -0.22149891762E+00  0.69228602185E+00  0.11802711822E+01  0.00000000000E+00 0. -1.
         11    1    3    3    0    0 -0.49456940606E+00 -0.18024149329E+02 -0.16780257853E+02  0.24631110649E+02  0.51100000000E-03 0. -1.
        -11    1    3    3    0    0  0.82512784800E+01  0.58355486883E+01 -0.22286904782E+02  0.24471276020E+02  0.51100000000E-03 0.  1.
         12    1    3    3    0    0 -0.68268067366E+01  0.12410099559E+02  0.38374876612E+02  0.40905342149E+02  0.00000000000E+00 0. -1.
</event>
<event>
 7    1  0.2090370E-015  0.9000776E+02  0.7816164E-02  0.1186339E+00
        -11   -1    0    0    0    0  0.00000000000E+00  0.00000000000E+00  0.45593999997E+02  0.45594000000E+02  0.51100000000E-03 0. -1.
         11   -1    0    0    0    0 -0.00000000000E+00 -0.00000000000E+00 -0.45593999997E+02  0.45594000000E+02  0.51100000000E-03 0.  1.
    9900012    2    1    2    0    0 -0.86995772691E+00  0.56964880583E+00 -0.55825567055E+00  0.90007756126E+02  0.90000017707E+02 0.  0.
         12    1    1    2    0    0  0.86995772691E+00 -0.56964880583E+00  0.55825567055E+00  0.11802438741E+01  0.00000000000E+00 0. -1.
         11    1    3    3    0    0  0.30918316376E+01  0.36901366241E+01  0.99445454520E+01  0.11048552651E+02  0.51100000000E-03 0. -1.
        -11    1    3    3    0    0 -0.33631762417E+02 -0.14883666491E+02  0.13337320644E+02  0.39121644824E+02  0.51100000000E-03 0.  1.
         12    1    3    3    0    0  0.29669973053E+02  0.11763178673E+02 -0.23840121766E+02  0.39837558651E+02  0.00000000000E+00 0. -1.
</event>
<event>
 7    1  0.2090370E-015  0.9000766E+02  0.7816164E-02  0.1186339E+00
        -11   -1    0    0    0    0  0.00000000000E+00  0.00000000000E+00  0.45593999997E+02  0.45594000000E+02  0.51100000000E-03 0. -1.
         11   -1    0    0    0    0 -0.00000000000E+00 -0.00000000000E+00 -0.45593999997E+02  0.45594000000E+02  0.51100000000E-03 0.  1.
    9900012    2    1    2    0    0 -0.11247960645E+01  0.22938749209E+00  0.27461296543E+00  0.90007662299E+02  0.89999922641E+02 0.  0.
         12    1    1    2    0    0  0.11247960645E+01 -0.22938749209E+00 -0.27461296543E+00  0.11803377013E+01  0.00000000000E+00 0. -1.
         11    1    3    3    0    0 -0.17627022046E+02  0.16472994189E+01  0.53356318504E+00  0.17711865839E+02  0.51100000000E-03 0. -1.
        -11    1    3    3    0    0 -0.10083115484E+02  0.26753105944E+02 -0.13153879356E+02  0.31470977707E+02  0.51100000000E-03 0.  1.
         12    1    3    3    0    0  0.26585341466E+02 -0.28171017870E+02  0.12894929136E+02  0.40824818752E+02  0.00000000000E+00 0. -1.
</event>
<event>
 7    1  0.2090370E-015  0.9000803E+02  0.7816164E-02  0.1186338E+00
        -11   -1    0    0    0    0  0.00000000000E+00  0.00000000000E+00  0.45593999997E+02  0.45594000000E+02  0.51100000000E-03 0.  1.
         11   -1    0    0    0    0 -0.00000000000E+00 -0.00000000000E+00 -0.45593999997E+02  0.45594000000E+02  0.51100000000E-03 0. -1.
    9900012    2    1    2    0    0 -0.35075729420E+00 -0.28002407196E+00  0.10912744724E+01  0.90008032147E+02  0.90000297371E+02 0.  0.
         12    1    1    2    0    0  0.35075729420E+00  0.28002407196E+00 -0.10912744724E+01  0.11799678531E+01  0.00000000000E+00 0. -1.
         11    1    3    3    0    0  0.35011310156E+02  0.50677360572E+01 -0.11592736591E+02  0.37227212218E+02  0.51100000000E-03 0. -1.
        -11    1    3    3    0    0  0.35616039190E+01 -0.51273075474E+01 -0.68178865253E+01  0.92443432484E+01  0.51100000000E-03 0.  1.
        -12    1    3    3    0    0 -0.38923671369E+02 -0.22045258174E+00  0.19501897589E+02  0.43536476681E+02  0.00000000000E+00 0.  1.
</event>
<event>
 7    1  0.2090370E-015  0.9000759E+02  0.7816164E-02  0.1186339E+00
        -11   -1    0    0    0    0  0.00000000000E+00  0.00000000000E+00  0.45593999997E+02  0.45594000000E+02  0.51100000000E-03 0.  1.
         11   -1    0    0    0    0 -0.00000000000E+00 -0.00000000000E+00 -0.45593999997E+02  0.45594000000E+02  0.51100000000E-03 0. -1.
    9900012    2    1    2    0    0  0.21768130546E+00  0.10241952048E+01  0.54498175488E+00  0.90007590714E+02  0.89999850112E+02 0.  0.
         12    1    1    2    0    0 -0.21768130546E+00 -0.10241952048E+01 -0.54498175488E+00  0.11804092856E+01  0.00000000000E+00 0. -1.
         11    1    3    3    0    0  0.68250116595E+00  0.64145243857E+01 -0.99516918139E+01  0.11859515216E+02  0.51100000000E-03 0. -1.
        -11    1    3    3    0    0  0.18276068132E+02  0.30439736979E+02 -0.27166644531E+01  0.35608601766E+02  0.51100000000E-03 0.  1.
         12    1    3    3    0    0 -0.18740887992E+02 -0.35830066160E+02  0.13213338022E+02  0.42539473733E+02  0.00000000000E+00 0. -1.
</event>
<event>
 7    1  0.2090370E-015  0.9000774E+02  0.7816164E-02  0.1186339E+00
        -11   -1    0    0    0    0  0.00000000000E+00  0.00000000000E+00  0.45593999997E+02  0.45594000000E+02  0.51100000000E-03 0. -1.
         11   -1    0    0    0    0 -0.00000000000E+00 -0.00000000000E+00 -0.45593999997E+02  0.45594000000E+02  0.51100000000E-03 0.  1.
    9900012    2    1    2    0    0  0.78907043310E+00 -0.81060966978E+00 -0.33658337602E+00  0.90007742166E+02  0.90000003563E+02 0.  0.
         12    1    1    2    0    0 -0.78907043310E+00  0.81060966978E+00  0.33658337602E+00  0.11802578338E+01  0.00000000000E+00 0. -1.
         11    1    3    3    0    0  0.62763865780E+01  0.31302885163E+00 -0.74155719112E+01  0.97201709126E+01  0.51100000000E-03 0. -1.
        -11    1    3    3    0    0  0.33374393365E+02 -0.29989349200E+00 -0.13856421665E+02  0.36137798636E+02  0.51100000000E-03 0.  1.
         12    1    3    3    0    0 -0.38861709510E+02 -0.82374502941E+00  0.20935410200E+02  0.44149772618E+02  0.00000000000E+00 0. -1.
</event>
<event>
 7    1  0.2090370E-015  0.9000773E+02  0.7816164E-02  0.1186339E+00
        -11   -1    0    0    0    0  0.00000000000E+00  0.00000000000E+00  0.45593999997E+02  0.45594000000E+02  0.51100000000E-03 0.  1.
         11   -1    0    0    0    0 -0.00000000000E+00 -0.00000000000E+00 -0.45593999997E+02  0.45594000000E+02  0.51100000000E-03 0. -1.
    9900012    2    1    2    0    0  0.57741446155E-01 -0.10836555424E+01 -0.46409442148E+00  0.90007734334E+02  0.89999995628E+02 0.  0.
         12    1    1    2    0    0 -0.57741446155E-01  0.10836555424E+01  0.46409442148E+00  0.11802656655E+01  0.00000000000E+00 0. -1.
         11    1    3    3    0    0 -0.13000645573E+01  0.91534555624E+01  0.64451538999E+01  0.11270134233E+02  0.51100000000E-03 0. -1.
        -11    1    3    3    0    0  0.20085515075E+02  0.18227829786E+02  0.21312153531E+02  0.34494776169E+02  0.51100000000E-03 0.  1.
         12    1    3    3    0    0 -0.18727709072E+02 -0.28464940891E+02 -0.28221401852E+02  0.44242823932E+02  0.00000000000E+00 0. -1.
</event>
<event>
 7    1  0.2090370E-015  0.9000806E+02  0.7816164E-02  0.1186338E+00
        -11   -1    0    0    0    0  0.00000000000E+00  0.00000000000E+00  0.45593999997E+02  0.45594000000E+02  0.51100000000E-03 0.  1.
         11   -1    0    0    0    0 -0.00000000000E+00 -0.00000000000E+00 -0.45593999997E+02  0.45594000000E+02  0.51100000000E-03 0. -1.
    9900012    2    1    2    0    0  0.92212570970E+00 -0.26033397810E+00  0.68860005332E+00  0.90008059477E+02  0.90000325061E+02 0.  0.
         12    1    1    2    0    0 -0.92212570970E+00  0.26033397810E+00 -0.68860005332E+00  0.11799405231E+01  0.00000000000E+00 0. -1.
         11    1    3    3    0    0  0.13736211135E+01  0.70761585787E+01 -0.61496544936E+01  0.94750781446E+01  0.51100000000E-03 0. -1.
        -11    1    3    3    0    0  0.19998676243E+01 -0.42426407049E+02 -0.63918473096E+01  0.42951777587E+02  0.51100000000E-03 0.  1.
         12    1    3    3    0    0 -0.24513630281E+01  0.35089914492E+02  0.13230101857E+02  0.37581203745E+02  0.00000000000E+00 0. -1.
</event>
<event>
 7    1  0.2090370E-015  0.9000753E+02  0.7816164E-02  0.1186339E+00
        -11   -1    0    0    0    0  0.00000000000E+00  0.00000000000E+00  0.45593999997E+02  0.45594000000E+02  0.51100000000E-03 0.  1.
         11   -1    0    0    0    0 -0.00000000000E+00 -0.00000000000E+00 -0.45593999997E+02  0.45594000000E+02  0.51100000000E-03 0. -1.
    9900012    2    1    2    0    0  0.18980936479E-01 -0.11675059389E+01  0.17344894428E+00  0.90007527667E+02  0.89999786232E+02 0.  0.
         12    1    1    2    0    0 -0.18980936479E-01  0.11675059389E+01 -0.17344894428E+00  0.11804723332E+01  0.00000000000E+00 0. -1.
         11    1    3    3    0    0  0.16102996693E+02 -0.33908204389E+02  0.19544074302E+02  0.42320723859E+02  0.51100000000E-03 0. -1.
        -11    1    3    3    0    0 -0.97211220912E+01  0.47842957790E+00 -0.43894693190E+00  0.97427811349E+01  0.51100000000E-03 0.  1.
        -12    1    3    3    0    0 -0.63628936650E+01  0.32262268872E+02 -0.18931678426E+02  0.37944022673E+02  0.00000000000E+00 0.  1.
</event>
<event>
 7    1  0.2090370E-015  0.9000784E+02  0.7816164E-02  0.1186339E+00
        -11   -1    0    0    0    0  0.00000000000E+00  0.00000000000E+00  0.45593999997E+02  0.45594000000E+02  0.51100000000E-03 0. -1.
         11   -1    0    0    0    0 -0.00000000000E+00 -0.00000000000E+00 -0.45593999997E+02  0.45594000000E+02  0.51100000000E-03 0.  1.
    9900012    2    1    2    0    0 -0.27342568162E+00  0.11290006083E+01  0.20824232835E+00  0.90007843720E+02  0.90000106458E+02 0.  0.
         12    1    1    2    0    0  0.27342568162E+00 -0.11290006083E+01 -0.20824232835E+00  0.11801562795E+01  0.00000000000E+00 0. -1.
         11    1    3    3    0    0 -0.38797222687E+01  0.94277233448E+01 -0.16830022850E+01  0.10332797748E+02  0.51100000000E-03 0. -1.
        -11    1    3    3    0    0 -0.89899915083E+01  0.42120792160E+01 -0.36260413970E+02  0.37594935565E+02  0.51100000000E-03 0.  1.
         12    1    3    3    0    0  0.12596288095E+02 -0.12510801952E+02  0.38151658583E+02  0.42080110407E+02  0.00000000000E+00 0. -1.
</event>
<event>
 7    1  0.2090370E-015  0.9000781E+02  0.7816164E-02  0.1186339E+00
        -11   -1    0    0    0    0  0.00000000000E+00  0.00000000000E+00  0.45593999997E+02  0.45594000000E+02  0.51100000000E-03 0.  1.
         11   -1    0    0    0    0 -0.00000000000E+00 -0.00000000000E+00 -0.45593999997E+02  0.45594000000E+02  0.51100000000E-03 0. -1.
    9900012    2    1    2    0    0  0.16190955119E+00 -0.18024251332E+00  0.11550485023E+01  0.90007813951E+02  0.90000076296E+02 0.  0.
         12    1    1    2    0    0 -0.16190955119E+00  0.18024251332E+00 -0.11550485023E+01  0.11801860485E+01  0.00000000000E+00 0. -1.
         11    1    3    3    0    0  0.21380077215E+02  0.11411806322E+02 -0.37120336555E+02  0.44331212610E+02  0.51100000000E-03 0. -1.
        -11    1    3    3    0    0 -0.19000793563E+01 -0.70786781913E+00  0.73434543681E+01  0.76182478778E+01  0.51100000000E-03 0.  1.
        -12    1    3    3    0    0 -0.19318088307E+02 -0.10884181016E+02  0.30931930689E+02  0.38058353464E+02  0.00000000000E+00 0.  1.
</event>
<event>
 7    1  0.2090370E-015  0.9000775E+02  0.7816164E-02  0.1186339E+00
        -11   -1    0    0    0    0  0.00000000000E+00  0.00000000000E+00  0.45593999997E+02  0.45594000000E+02  0.51100000000E-03 0. -1.
         11   -1    0    0    0    0 -0.00000000000E+00 -0.00000000000E+00 -0.45593999997E+02  0.45594000000E+02  0.51100000000E-03 0.  1.
    9900012    2    1    2    0    0  0.17491748747E+00 -0.10659614345E+01 -0.47553261008E+00  0.90007745294E+02  0.90000006732E+02 0.  0.
         12    1    1    2    0    0 -0.17491748747E+00  0.10659614345E+01  0.47553261008E+00  0.11802547058E+01  0.00000000000E+00 0. -1.
         11    1    3    3    0    0 -0.30242059701E+01 -0.70667735641E+01 -0.65654237068E+01  0.10108901971E+02  0.51100000000E-03 0. -1.
        -11    1    3    3    0    0 -0.12006847913E+02  0.27228390814E+02 -0.25306051687E+02  0.39063357708E+02  0.51100000000E-03 0.  1.
         12    1    3    3    0    0  0.15205971371E+02 -0.21227578684E+02  0.31395942784E+02  0.40835485615E+02  0.00000000000E+00 0. -1.
</event>
<event>
 7    1  0.2090370E-015  0.9000775E+02  0.7816164E-02  0.1186339E+00
        -11   -1    0    0    0    0  0.00000000000E+00  0.00000000000E+00  0.45593999997E+02  0.45594000000E+02  0.51100000000E-03 0.  1.
         11   -1    0    0    0    0 -0.00000000000E+00 -0.00000000000E+00 -0.45593999997E+02  0.45594000000E+02  0.51100000000E-03 0. -1.
    9900012    2    1    2    0    0 -0.61218089757E+00  0.63940308568E+00  0.78063903734E+00  0.90007746187E+02  0.90000007636E+02 0.  0.
         12    1    1    2    0    0  0.61218089757E+00 -0.63940308568E+00 -0.78063903734E+00  0.11802538134E+01  0.00000000000E+00 0. -1.
         11    1    3    3    0    0 -0.57165029858E+01 -0.27115301640E+02 -0.11674016737E+02  0.30069929439E+02  0.51100000000E-03 0. -1.
        -11    1    3    3    0    0  0.55419865919E+01 -0.54920587258E+01 -0.14941154834E+02  0.16855694363E+02  0.51100000000E-03 0.  1.
        -12    1    3    3    0    0 -0.43766450359E+00  0.33246763452E+02  0.27395810609E+02  0.43082122384E+02  0.00000000000E+00 0.  1.
</event>
<event>
 7    1  0.2090370E-015  0.9000768E+02  0.7816164E-02  0.1186339E+00
        -11   -1    0    0    0    0  0.00000000000E+00  0.00000000000E+00  0.45593999997E+02  0.45594000000E+02  0.51100000000E-03 0.  1.
         11   -1    0    0    0    0 -0.00000000000E+00 -0.00000000000E+00 -0.45593999997E+02  0.45594000000E+02  0.51100000000E-03 0. -1.
    9900012    2    1    2    0    0  0.10331154553E+01 -0.48054906985E-01  0.56878529938E+00  0.90007680749E+02  0.89999941335E+02 0.  0.
         12    1    1    2    0    0 -0.10331154553E+01  0.48054906985E-01 -0.56878529938E+00  0.11803192512E+01  0.00000000000E+00 0. -1.
         11    1    3    3    0    0 -0.49568811506E+01 -0.26245907322E+02 -0.28796143489E+02  0.39276407702E+02  0.51100000000E-03 0. -1.
        -11    1    3    3    0    0  0.20650759304E+00 -0.73041936541E+01  0.63011432411E+01  0.96487458630E+01  0.51100000000E-03 0.  1.
        -12    1    3    3    0    0  0.57834890128E+01  0.33502046069E+02  0.23063785547E+02  0.41082527183E+02  0.00000000000E+00 0.  1.
</event>
<event>
 7    1  0.2090370E-015  0.9000775E+02  0.7816164E-02  0.1186339E+00
        -11   -1    0    0    0    0  0.00000000000E+00  0.00000000000E+00  0.45593999997E+02  0.45594000000E+02  0.51100000000E-03 0. -1.
         11   -1    0    0    0    0 -0.00000000000E+00 -0.00000000000E+00 -0.45593999997E+02  0.45594000000E+02  0.51100000000E-03 0.  1.
    9900012    2    1    2    0    0 -0.19434212303E+00  0.11595164563E+01 -0.10369498798E+00  0.90007745822E+02  0.90000007267E+02 0.  0.
         12    1    1    2    0    0  0.19434212303E+00 -0.11595164563E+01  0.10369498798E+00  0.11802541776E+01  0.00000000000E+00 0. -1.
         11    1    3    3    0    0 -0.14377251970E+01  0.12615247001E+02  0.56142332459E+01  0.13882763624E+02  0.51100000000E-03 0. -1.
        -11    1    3    3    0    0 -0.15219782316E+01  0.22669637078E+02 -0.27403749289E+02  0.35597673215E+02  0.51100000000E-03 0.  1.
         12    1    3    3    0    0  0.27653613056E+01 -0.34125367623E+02  0.21685821055E+02  0.40527308983E+02  0.00000000000E+00 0. -1.
</event>
<event>
 7    1  0.2090370E-015  0.9000759E+02  0.7816164E-02  0.1186339E+00
        -11   -1    0    0    0    0  0.00000000000E+00  0.00000000000E+00  0.45593999997E+02  0.45594000000E+02  0.51100000000E-03 0.  1.
         11   -1    0    0    0    0 -0.00000000000E+00 -0.00000000000E+00 -0.45593999997E+02  0.45594000000E+02  0.51100000000E-03 0. -1.
    9900012    2    1    2    0    0  0.83739520326E+00 -0.32131880982E+00  0.76739041588E+00  0.90007591361E+02  0.89999850767E+02 0.  0.
         12    1    1    2    0    0 -0.83739520326E+00  0.32131880982E+00 -0.76739041588E+00  0.11804086387E+01  0.00000000000E+00 0. -1.
         11    1    3    3    0    0  0.94691327073E+01  0.25763184335E+01  0.19256742864E+01  0.10000505618E+02  0.51100000000E-03 0. -1.
        -11    1    3    3    0    0  0.23127955529E+02  0.25673275292E+02  0.97747745509E+01  0.35910522259E+02  0.51100000000E-03 0.  1.
         12    1    3    3    0    0 -0.31759693033E+02 -0.28570912535E+02 -0.10933058421E+02  0.44096563484E+02  0.00000000000E+00 0. -1.
</event>
<event>
 7    1  0.2090370E-015  0.9000775E+02  0.7816164E-02  0.1186339E+00
        -11   -1    0    0    0    0  0.00000000000E+00  0.00000000000E+00  0.45593999997E+02  0.45594000000E+02  0.51100000000E-03 0. -1.
         11   -1    0    0    0    0 -0.00000000000E+00 -0.00000000000E+00 -0.45593999997E+02  0.45594000000E+02  0.51100000000E-03 0.  1.
    9900012    2    1    2    0    0 -0.85404258525E+00  0.78070366005E+00 -0.23261793815E+00  0.90007746617E+02  0.90000008073E+02 0.  0.
         12    1    1    2    0    0  0.85404258525E+00 -0.78070366005E+00  0.23261793815E+00  0.11802533827E+01  0.00000000000E+00 0. -1.
         11    1    3    3    0    0 -0.56337693878E+01  0.30561560081E+02  0.15974269895E+02  0.34941745964E+02  0.51100000000E-03 0. -1.
        -11    1    3    3    0    0 -0.74441722589E+01  0.21601393226E+01  0.95150615818E+01  0.12272664734E+02  0.51100000000E-03 0.  1.
        -12    1    3    3    0    0  0.12223899061E+02 -0.31940995743E+02 -0.25721949415E+02  0.42793335919E+02  0.00000000000E+00 0.  1.
</event>
<event>
 7    1  0.2090370E-015  0.9000687E+02  0.7816164E-02  0.1186341E+00
        -11   -1    0    0    0    0  0.00000000000E+00  0.00000000000E+00  0.45593999997E+02  0.45594000000E+02  0.51100000000E-03 0.  1.
         11   -1    0    0    0    0 -0.00000000000E+00 -0.00000000000E+00 -0.45593999997E+02  0.45594000000E+02  0.51100000000E-03 0. -1.
    9900012    2    1    2    0    0  0.86461659382E+00  0.79870121206E+00 -0.97891215094E-01  0.90006869960E+02  0.89999119840E+02 0.  0.
         12    1    1    2    0    0 -0.86461659382E+00 -0.79870121206E+00  0.97891215094E-01  0.11811300396E+01  0.00000000000E+00 0. -1.
         11    1    3    3    0    0 -0.17509968106E+02 -0.32047792799E+02 -0.10284909501E+02  0.37939944255E+02  0.51100000000E-03 0. -1.
        -11    1    3    3    0    0 -0.17260996824E+01 -0.65370835542E+01  0.23714280240E+01  0.71649530803E+01  0.51100000000E-03 0.  1.
        -12    1    3    3    0    0  0.20100684383E+02  0.39383577565E+02  0.78155902615E+01  0.44901972625E+02  0.00000000000E+00 0.  1.
</event>
<event>
 7    1  0.2090370E-015  0.9000691E+02  0.7816164E-02  0.1186341E+00
        -11   -1    0    0    0    0  0.00000000000E+00  0.00000000000E+00  0.45593999997E+02  0.45594000000E+02  0.51100000000E-03 0. -1.
         11   -1    0    0    0    0 -0.00000000000E+00 -0.00000000000E+00 -0.45593999997E+02  0.45594000000E+02  0.51100000000E-03 0.  1.
    9900012    2    1    2    0    0  0.85000935659E+00 -0.21111483648E+00 -0.79239795434E+00  0.90006907329E+02  0.89999157701E+02 0.  0.
         12    1    1    2    0    0 -0.85000935659E+00  0.21111483648E+00  0.79239795434E+00  0.11810926714E+01  0.00000000000E+00 0. -1.
         11    1    3    3    0    0  0.39668224570E+01  0.51109079801E+01 -0.77004380015E+01  0.10057524868E+02  0.51100000000E-03 0. -1.
        -11    1    3    3    0    0  0.28873543111E+02 -0.27572369473E+02  0.90003157936E+01  0.40925819904E+02  0.51100000000E-03 0.  1.
         12    1    3    3    0    0 -0.31990356212E+02  0.22250346656E+02 -0.20922757465E+01  0.39023562557E+02  0.00000000000E+00 0. -1.
</event>
<event>
 7    1  0.2090370E-015  0.9000785E+02  0.7816164E-02  0.1186339E+00
        -11   -1    0    0    0    0  0.00000000000E+00  0.00000000000E+00  0.45593999997E+02  0.45594000000E+02  0.51100000000E-03 0. -1.
         11   -1    0    0    0    0 -0.00000000000E+00 -0.00000000000E+00 -0.45593999997E+02  0.45594000000E+02  0.51100000000E-03 0.  1.
    9900012    2    1    2    0    0  0.28305454482E-01 -0.23392339662E+00 -0.11563856109E+01  0.90007852113E+02  0.90000114961E+02 0.  0.
         12    1    1    2    0    0 -0.28305454482E-01  0.23392339662E+00  0.11563856109E+01  0.11801478871E+01  0.00000000000E+00 0. -1.
         11    1    3    3    0    0 -0.35463513518E+01 -0.46127209079E+01 -0.71072186841E+01  0.91851162088E+01  0.51100000000E-03 0. -1.
        -11    1    3    3    0    0  0.15667269368E+02 -0.20564137367E+02 -0.27256255594E+02  0.37566614758E+02  0.51100000000E-03 0.  1.
         12    1    3    3    0    0 -0.12092612561E+02  0.24942934878E+02  0.33207088667E+02  0.43256121147E+02  0.00000000000E+00 0. -1.
</event>
<event>
 7    1  0.2090370E-015  0.9000782E+02  0.7816164E-02  0.1186339E+00
        -11   -1    0    0    0    0  0.00000000000E+00  0.00000000000E+00  0.45593999997E+02  0.45594000000E+02  0.51100000000E-03 0.  1.
         11   -1    0    0    0    0 -0.00000000000E+00 -0.00000000000E+00 -0.45593999997E+02  0.45594000000E+02  0.51100000000E-03 0. -1.
    9900012    2    1    2    0    0 -0.88109894460E-01 -0.63739146650E+00  0.98934092322E+00  0.90007819210E+02  0.90000081623E+02 0.  0.
         12    1    1    2    0    0  0.88109894460E-01  0.63739146650E+00 -0.98934092322E+00  0.11801807901E+01  0.00000000000E+00 0. -1.
         11    1    3    3    0    0  0.53912738035E+01 -0.24537501164E+02 -0.17491731788E+02  0.30612341920E+02  0.51100000000E-03 0. -1.
        -11    1    3    3    0    0  0.13975734067E+02  0.55495565546E+01  0.27356691016E+02  0.31217098908E+02  0.51100000000E-03 0.  1.
         12    1    3    3    0    0 -0.19455117765E+02  0.18350553143E+02 -0.88756183039E+01  0.28178378381E+02  0.00000000000E+00 0. -1.
</event>
<event>
 7    1  0.2090370E-015  0.9000784E+02  0.7816164E-02  0.1186339E+00
        -11   -1    0    0    0    0  0.00000000000E+00  0.00000000000E+00  0.45593999997E+02  0.45594000000E+02  0.51100000000E-03 0.  1.
         11   -1    0    0    0    0 -0.00000000000E+00 -0.00000000000E+00 -0.45593999997E+02  0.45594000000E+02  0.51100000000E-03 0. -1.
    9900012    2    1    2    0    0  0.14460014029E+00 -0.67846540080E-01  0.11692983609E+01  0.90007842803E+02  0.90000105528E+02 0.  0.
         12    1    1    2    0    0 -0.14460014029E+00  0.67846540080E-01 -0.11692983609E+01  0.11801571973E+01  0.00000000000E+00 0. -1.
         11    1    3    3    0    0  0.18671233799E+02  0.22942401473E+02 -0.21791043171E+02  0.36739873703E+02  0.51100000000E-03 0. -1.
        -11    1    3    3    0    0 -0.47586809741E+00  0.82993800178E+01 -0.29263122275E+01  0.88130280063E+01  0.51100000000E-03 0.  1.
        -12    1    3    3    0    0 -0.18050765562E+02 -0.31309628031E+02  0.25886653760E+02  0.44454941094E+02  0.00000000000E+00 0.  1.
</event>
<event>
 7    1  0.2090370E-015  0.9000779E+02  0.7816164E-02  0.1186339E+00
        -11   -1    0    0    0    0  0.00000000000E+00  0.00000000000E+00  0.45593999997E+02  0.45594000000E+02  0.51100000000E-03 0.  1.
         11   -1    0    0    0    0 -0.00000000000E+00 -0.00000000000E+00 -0.45593999997E+02  0.45594000000E+02  0.51100000000E-03 0. -1.
    9900012    2    1    2    0    0 -0.10373898814E+01  0.30557057538E+00 -0.47258534882E+00  0.90007793215E+02  0.90000055286E+02 0.  0.
         12    1    1    2    0    0  0.10373898814E+01 -0.30557057538E+00  0.47258534882E+00  0.11802067846E+01  0.00000000000E+00 0. -1.
         11    1    3    3    0    0 -0.19820642433E+02  0.12711359110E+02 -0.34220307669E+02  0.41538728605E+02  0.51100000000E-03 0. -1.
        -11    1    3    3    0    0 -0.68395741395E+01 -0.21260777796E+01  0.63054582558E+01  0.95424726990E+01  0.51100000000E-03 0.  1.
        -12    1    3    3    0    0  0.25622826691E+02 -0.10279710755E+02  0.27442264064E+02  0.38926591911E+02  0.00000000000E+00 0.  1.
</event>
<event>
 7    1  0.2090370E-015  0.9000777E+02  0.7816164E-02  0.1186339E+00
        -11   -1    0    0    0    0  0.00000000000E+00  0.00000000000E+00  0.45593999997E+02  0.45594000000E+02  0.51100000000E-03 0. -1.
         11   -1    0    0    0    0 -0.00000000000E+00 -0.00000000000E+00 -0.45593999997E+02  0.45594000000E+02  0.51100000000E-03 0.  1.
    9900012    2    1    2    0    0  0.87684651614E+00  0.45698577407E+00 -0.64439210999E+00  0.90007772479E+02  0.90000034275E+02 0.  0.
         12    1    1    2    0    0 -0.87684651614E+00 -0.45698577407E+00  0.64439210999E+00  0.11802275213E+01  0.00000000000E+00 0. -1.
         11    1    3    3    0    0  0.62529731717E+01 -0.17213655686E+01  0.63953489776E+01  0.91084170805E+01  0.51100000000E-03 0. -1.
        -11    1    3    3    0    0  0.12089873309E+02 -0.32595198842E+02  0.13015722775E+02  0.37121706101E+02  0.51100000000E-03 0.  1.
         12    1    3    3    0    0 -0.17465999964E+02  0.34773550185E+02 -0.20055463863E+02  0.43777649297E+02  0.00000000000E+00 0. -1.
</event>
<event>
 7    1  0.2090370E-015  0.9000777E+02  0.7816164E-02  0.1186339E+00
        -11   -1    0    0    0    0  0.00000000000E+00  0.00000000000E+00  0.45593999997E+02  0.45594000000E+02  0.51100000000E-03 0. -1.
         11   -1    0    0    0    0 -0.00000000000E+00 -0.00000000000E+00 -0.45593999997E+02  0.45594000000E+02  0.51100000000E-03 0.  1.
    9900012    2    1    2    0    0  0.25902203137E-01  0.78236908516E-01 -0.11773468553E+01  0.90007772244E+02  0.90000034038E+02 0.  0.
         12    1    1    2    0    0 -0.25902203137E-01 -0.78236908516E-01  0.11773468553E+01  0.11802277558E+01  0.00000000000E+00 0. -1.
         11    1    3    3    0    0 -0.23932474148E+02  0.22636992837E+02  0.13303782740E+02  0.35527276830E+02  0.51100000000E-03 0. -1.
        -11    1    3    3    0    0  0.10333835338E+00  0.90087825916E+01  0.50790136737E+01  0.10342399275E+02  0.51100000000E-03 0.  1.
        -12    1    3    3    0    0  0.23855037998E+02 -0.31567538520E+02 -0.19560143269E+02  0.44138096139E+02  0.00000000000E+00 0.  1.
</event>
<event>
 7    1  0.2090370E-015  0.9000778E+02  0.7816164E-02  0.1186339E+00
        -11   -1    0    0    0    0  0.00000000000E+00  0.00000000000E+00  0.45593999997E+02  0.45594000000E+02  0.51100000000E-03 0.  1.
         11   -1    0    0    0    0 -0.00000000000E+00 -0.00000000000E+00 -0.45593999997E+02  0.45594000000E+02  0.51100000000E-03 0. -1.
    9900012    2    1    2    0    0  0.71863912032E+00  0.76330874700E+00 -0.54206349365E+00  0.90007781690E+02  0.90000043608E+02 0.  0.
         12    1    1    2    0    0 -0.71863912032E+00 -0.76330874700E+00  0.54206349365E+00  0.11802183102E+01  0.00000000000E+00 0. -1.
         11    1    3    3    0    0 -0.21220572783E+02  0.45270511403E+01 -0.30309320133E+02  0.37275485086E+02  0.51100000000E-03 0. -1.
        -11    1    3    3    0    0  0.15812399746E+00  0.84939005381E+01 -0.50425443203E+01  0.98792005260E+01  0.51100000000E-03 0.  1.
        -12    1    3    3    0    0  0.21781087906E+02 -0.12257642931E+02  0.34809800959E+02  0.42853096077E+02  0.00000000000E+00 0.  1.
</event>
<event>
 7    1  0.2090370E-015  0.9000769E+02  0.7816164E-02  0.1186339E+00
        -11   -1    0    0    0    0  0.00000000000E+00  0.00000000000E+00  0.45593999997E+02  0.45594000000E+02  0.51100000000E-03 0.  1.
         11   -1    0    0    0    0 -0.00000000000E+00 -0.00000000000E+00 -0.45593999997E+02  0.45594000000E+02  0.51100000000E-03 0. -1.
    9900012    2    1    2    0    0 -0.58352120872E+00  0.10242674507E+01 -0.59247436684E-01  0.90007690265E+02  0.89999950977E+02 0.  0.
         12    1    1    2    0    0  0.58352120872E+00 -0.10242674507E+01  0.59247436684E-01  0.11803097349E+01  0.00000000000E+00 0. -1.
         11    1    3    3    0    0  0.17069834042E+01  0.29474090860E+01  0.78226821382E+01  0.85320202039E+01  0.51100000000E-03 0. -1.
        -11    1    3    3    0    0 -0.26411821603E+01 -0.18901374802E+02  0.32488208964E+02  0.37679192328E+02  0.51100000000E-03 0.  1.
         12    1    3    3    0    0  0.35067754738E+00  0.16978233166E+02 -0.40370138538E+02  0.43796477733E+02  0.00000000000E+00 0. -1.
</event>
<event>
 7    1  0.2090370E-015  0.9000784E+02  0.7816164E-02  0.1186339E+00
        -11   -1    0    0    0    0  0.00000000000E+00  0.00000000000E+00  0.45593999997E+02  0.45594000000E+02  0.51100000000E-03 0.  1.
         11   -1    0    0    0    0 -0.00000000000E+00 -0.00000000000E+00 -0.45593999997E+02  0.45594000000E+02  0.51100000000E-03 0. -1.
    9900012    2    1    2    0    0 -0.65105143791E+00  0.24465445478E+00 -0.95343917761E+00  0.90007843213E+02  0.90000105943E+02 0.  0.
         12    1    1    2    0    0  0.65105143791E+00 -0.24465445478E+00  0.95343917761E+00  0.11801567872E+01  0.00000000000E+00 0. -1.
         11    1    3    3    0    0 -0.12181794703E+02 -0.15962429424E+02 -0.30416524353E+02  0.36446676519E+02  0.51100000000E-03 0. -1.
        -11    1    3    3    0    0 -0.13193644796E+01  0.76530664204E+00 -0.95545480093E+01  0.96755260741E+01  0.51100000000E-03 0.  1.
        -12    1    3    3    0    0  0.12850107744E+02  0.15441777237E+02  0.39017633185E+02  0.43885640620E+02  0.00000000000E+00 0.  1.
</event>
<event>
 7    1  0.2090370E-015  0.9000771E+02  0.7816164E-02  0.1186339E+00
        -11   -1    0    0    0    0  0.00000000000E+00  0.00000000000E+00  0.45593999997E+02  0.45594000000E+02  0.51100000000E-03 0. -1.
         11   -1    0    0    0    0 -0.00000000000E+00 -0.00000000000E+00 -0.45593999997E+02  0.45594000000E+02  0.51100000000E-03 0.  1.
    9900012    2    1    2    0    0 -0.67371099068E+00  0.89379212501E+00  0.37460281198E+00  0.90007712692E+02  0.89999973700E+02 0.  0.
         12    1    1    2    0    0  0.67371099068E+00 -0.89379212501E+00 -0.37460281198E+00  0.11802873076E+01  0.00000000000E+00 0. -1.
         11    1    3    3    0    0  0.60106599171E+01 -0.53580548848E+01  0.25148527888E+01  0.84357139353E+01  0.51100000000E-03 0. -1.
        -11    1    3    3    0    0  0.15002556560E+02  0.75145454016E+01 -0.36926401186E+02  0.40559884131E+02  0.51100000000E-03 0.  1.
         12    1    3    3    0    0 -0.21686927467E+02 -0.12626983918E+01  0.34786151209E+02  0.41012114626E+02  0.00000000000E+00 0. -1.
</event>
<event>
 7    1  0.2090370E-015  0.9000765E+02  0.7816164E-02  0.1186339E+00
        -11   -1    0    0    0    0  0.00000000000E+00  0.00000000000E+00  0.45593999997E+02  0.45594000000E+02  0.51100000000E-03 0. -1.
         11   -1    0    0    0    0 -0.00000000000E+00 -0.00000000000E+00 -0.45593999997E+02  0.45594000000E+02  0.51100000000E-03 0.  1.
    9900012    2    1    2    0    0  0.85264515980E+00  0.38523704129E+00 -0.71960113327E+00  0.90007645334E+02  0.89999905452E+02 0.  0.
         12    1    1    2    0    0 -0.85264515980E+00 -0.38523704129E+00  0.71960113327E+00  0.11803546660E+01  0.00000000000E+00 0. -1.
         11    1    3    3    0    0 -0.22848731680E+01  0.78101977173E+01 -0.67860309763E+01  0.10595756247E+02  0.51100000000E-03 0. -1.
        -11    1    3    3    0    0 -0.24478227252E+02  0.20947976076E+02  0.19430475360E+02  0.37623725016E+02  0.51100000000E-03 0.  1.
         12    1    3    3    0    0  0.27615745580E+02 -0.28372936752E+02 -0.13364045517E+02  0.41788164071E+02  0.00000000000E+00 0. -1.
</event>
<event>
 7    1  0.2090370E-015  0.9000774E+02  0.7816164E-02  0.1186339E+00
        -11   -1    0    0    0    0  0.00000000000E+00  0.00000000000E+00  0.45593999997E+02  0.45594000000E+02  0.51100000000E-03 0.  1.
         11   -1    0    0    0    0 -0.00000000000E+00 -0.00000000000E+00 -0.45593999997E+02  0.45594000000E+02  0.51100000000E-03 0. -1.
    9900012    2    1    2    0    0 -0.99925120254E+00  0.22990620420E+00  0.58451271261E+00  0.90007739461E+02  0.90000000822E+02 0.  0.
         12    1    1    2    0    0  0.99925120254E+00 -0.22990620420E+00 -0.58451271261E+00  0.11802605389E+01  0.00000000000E+00 0. -1.
         11    1    3    3    0    0  0.93489846510E+01 -0.60118726278E+01  0.42652022006E+00  0.11123310939E+02  0.51100000000E-03 0. -1.
        -11    1    3    3    0    0  0.19803395731E+02  0.26176153769E+02  0.19203553412E+02  0.38028173405E+02  0.51100000000E-03 0.  1.
         12    1    3    3    0    0 -0.30151631585E+02 -0.19934374937E+02 -0.19045560920E+02  0.40856255116E+02  0.00000000000E+00 0. -1.
</event>
<event>
 7    1  0.2090370E-015  0.9000781E+02  0.7816164E-02  0.1186339E+00
        -11   -1    0    0    0    0  0.00000000000E+00  0.00000000000E+00  0.45593999997E+02  0.45594000000E+02  0.51100000000E-03 0.  1.
         11   -1    0    0    0    0 -0.00000000000E+00 -0.00000000000E+00 -0.45593999997E+02  0.45594000000E+02  0.51100000000E-03 0. -1.
    9900012    2    1    2    0    0  0.15761264786E+00  0.11483161972E+01 -0.22223374046E+00  0.90007805240E+02  0.90000067469E+02 0.  0.
         12    1    1    2    0    0 -0.15761264786E+00 -0.11483161972E+01  0.22223374046E+00  0.11801947598E+01  0.00000000000E+00 0. -1.
         11    1    3    3    0    0  0.24053905308E+02  0.23023995960E+02 -0.26254575348E+02  0.42402800350E+02  0.51100000000E-03 0. -1.
        -11    1    3    3    0    0 -0.33054233673E+01 -0.11750086313E+01 -0.42691128963E+01  0.55255582616E+01  0.51100000000E-03 0.  1.
        -12    1    3    3    0    0 -0.20590869293E+02 -0.20700671132E+02  0.30301454504E+02  0.42079446629E+02  0.00000000000E+00 0.  1.
</event>
<event>
 7    1  0.2090370E-015  0.9000774E+02  0.7816164E-02  0.1186339E+00
        -11   -1    0    0    0    0  0.00000000000E+00  0.00000000000E+00  0.45593999997E+02  0.45594000000E+02  0.51100000000E-03 0. -1.
         11   -1    0    0    0    0 -0.00000000000E+00 -0.00000000000E+00 -0.45593999997E+02  0.45594000000E+02  0.51100000000E-03 0.  1.
    9900012    2    1    2    0    0 -0.25937284251E+00  0.11507999211E+01  0.37427564790E-01  0.90007739202E+02  0.90000000559E+02 0.  0.
         12    1    1    2    0    0  0.25937284251E+00 -0.11507999211E+01 -0.37427564790E-01  0.11802607985E+01  0.00000000000E+00 0. -1.
         11    1    3    3    0    0  0.37493470821E+02 -0.68894142365E+00  0.28595560835E+00  0.37500890194E+02  0.51100000000E-03 0. -1.
        -11    1    3    3    0    0  0.62659528843E+01 -0.16046165293E+01 -0.48923078454E+01  0.81099713976E+01  0.51100000000E-03 0.  1.
        -12    1    3    3    0    0 -0.44018796548E+02  0.34443578740E+01  0.46437798019E+01  0.44396877610E+02  0.00000000000E+00 0.  1.
</event>
<event>
 7    1  0.2090370E-015  0.9000773E+02  0.7816164E-02  0.1186339E+00
        -11   -1    0    0    0    0  0.00000000000E+00  0.00000000000E+00  0.45593999997E+02  0.45594000000E+02  0.51100000000E-03 0. -1.
         11   -1    0    0    0    0 -0.00000000000E+00 -0.00000000000E+00 -0.45593999997E+02  0.45594000000E+02  0.51100000000E-03 0.  1.
    9900012    2    1    2    0    0 -0.64294500064E+00  0.47040278224E+00 -0.87084603655E+00  0.90007733136E+02  0.89999994413E+02 0.  0.
         12    1    1    2    0    0  0.64294500064E+00 -0.47040278224E+00  0.87084603655E+00  0.11802668642E+01  0.00000000000E+00 0. -1.
         11    1    3    3    0    0 -0.57987049712E+01 -0.19464804727E+01 -0.89535464876E+01  0.10843420150E+02  0.51100000000E-03 0. -1.
        -11    1    3    3    0    0 -0.92352328249E+01 -0.25439493868E+02 -0.22626721671E+02  0.35276421409E+02  0.51100000000E-03 0.  1.
         12    1    3    3    0    0  0.14390992795E+02  0.27856377123E+02  0.30709422122E+02  0.43887891577E+02  0.00000000000E+00 0. -1.
</event>
<event>
 7    1  0.2090370E-015  0.9000776E+02  0.7816164E-02  0.1186339E+00
        -11   -1    0    0    0    0  0.00000000000E+00  0.00000000000E+00  0.45593999997E+02  0.45594000000E+02  0.51100000000E-03 0.  1.
         11   -1    0    0    0    0 -0.00000000000E+00 -0.00000000000E+00 -0.45593999997E+02  0.45594000000E+02  0.51100000000E-03 0. -1.
    9900012    2    1    2    0    0 -0.72218379036E+00  0.21035535489E+00  0.90948596940E+00  0.90007761240E+02  0.90000022888E+02 0.  0.
         12    1    1    2    0    0  0.72218379036E+00 -0.21035535489E+00 -0.90948596940E+00  0.11802387601E+01  0.00000000000E+00 0. -1.
         11    1    3    3    0    0  0.12161015651E+01 -0.91710711605E+01 -0.21805493085E+01  0.95048537493E+01  0.51100000000E-03 0. -1.
        -11    1    3    3    0    0  0.31418656108E+02 -0.71542838914E+00 -0.21299751956E+02  0.37964762913E+02  0.51100000000E-03 0.  1.
         12    1    3    3    0    0 -0.33356941463E+02  0.10096854905E+02  0.24389787234E+02  0.42538144577E+02  0.00000000000E+00 0. -1.
</event>
<event>
 7    1  0.2090370E-015  0.9000779E+02  0.7816164E-02  0.1186339E+00
        -11   -1    0    0    0    0  0.00000000000E+00  0.00000000000E+00  0.45593999997E+02  0.45594000000E+02  0.51100000000E-03 0.  1.
         11   -1    0    0    0    0 -0.00000000000E+00 -0.00000000000E+00 -0.45593999997E+02  0.45594000000E+02  0.51100000000E-03 0. -1.
    9900012    2    1    2    0    0 -0.63941967692E+00  0.72529773438E+00  0.67673791998E+00  0.90007793010E+02  0.90000055078E+02 0.  0.
         12    1    1    2    0    0  0.63941967692E+00 -0.72529773438E+00 -0.67673791998E+00  0.11802069899E+01  0.00000000000E+00 0. -1.
         11    1    3    3    0    0  0.16810059217E+01 -0.94088195558E+01  0.24346345583E+01  0.98630173900E+01  0.51100000000E-03 0. -1.
        -11    1    3    3    0    0 -0.46558360106E+01 -0.16310399155E+02  0.32586197516E+02  0.36736442375E+02  0.51100000000E-03 0.  1.
         12    1    3    3    0    0  0.23354104120E+01  0.26444516446E+02 -0.34344094154E+02  0.43408333245E+02  0.00000000000E+00 0. -1.
</event>
<event>
 7    1  0.2090370E-015  0.9000774E+02  0.7816164E-02  0.1186339E+00
        -11   -1    0    0    0    0  0.00000000000E+00  0.00000000000E+00  0.45593999997E+02  0.45594000000E+02  0.51100000000E-03 0. -1.
         11   -1    0    0    0    0 -0.00000000000E+00 -0.00000000000E+00 -0.45593999997E+02  0.45594000000E+02  0.51100000000E-03 0.  1.
    9900012    2    1    2    0    0 -0.28633008813E+00  0.10941198382E+01 -0.33754714117E+00  0.90007736804E+02  0.89999998130E+02 0.  0.
         12    1    1    2    0    0  0.28633008813E+00 -0.10941198382E+01  0.33754714117E+00  0.11802631962E+01  0.00000000000E+00 0. -1.
         11    1    3    3    0    0  0.25516618745E+02 -0.18698277264E+02  0.20336570766E+02  0.37607173725E+02  0.51100000000E-03 0. -1.
        -11    1    3    3    0    0 -0.35149630071E+01 -0.94387748819E+01  0.30446628331E+00  0.10076613329E+02  0.51100000000E-03 0.  1.
        -12    1    3    3    0    0 -0.22287985826E+02  0.29231171984E+02 -0.20978584190E+02  0.42323949749E+02  0.00000000000E+00 0.  1.
</event>
<event>
 7    1  0.2090370E-015  0.9000767E+02  0.7816164E-02  0.1186339E+00
        -11   -1    0    0    0    0  0.00000000000E+00  0.00000000000E+00  0.45593999997E+02  0.45594000000E+02  0.51100000000E-03 0.  1.
         11   -1    0    0    0    0 -0.00000000000E+00 -0.00000000000E+00 -0.45593999997E+02  0.45594000000E+02  0.51100000000E-03 0. -1.
    9900012    2    1    2    0    0  0.95501797228E+00 -0.68901982180E+00  0.79763400845E-01  0.90007673841E+02  0.89999934335E+02 0.  0.
         12    1    1    2    0    0 -0.95501797228E+00  0.68901982180E+00 -0.79763400845E-01  0.11803261593E+01  0.00000000000E+00 0. -1.
         11    1    3    3    0    0 -0.33184168553E+02 -0.16240431562E+02 -0.36634586085E+01  0.37126292424E+02  0.51100000000E-03 0. -1.
        -11    1    3    3    0    0 -0.21898419384E+01  0.91607084535E+01  0.11826883262E+02  0.15119165157E+02  0.51100000000E-03 0.  1.
        -12    1    3    3    0    0  0.36329028464E+02  0.63907032867E+01 -0.80836612529E+01  0.37762216260E+02  0.00000000000E+00 0.  1.
</event>
<event>
 7    1  0.2090370E-015  0.9000792E+02  0.7816164E-02  0.1186339E+00
        -11   -1    0    0    0    0  0.00000000000E+00  0.00000000000E+00  0.45593999997E+02  0.45594000000E+02  0.51100000000E-03 0.  1.
         11   -1    0    0    0    0 -0.00000000000E+00 -0.00000000000E+00 -0.45593999997E+02  0.45594000000E+02  0.51100000000E-03 0. -1.
    9900012    2    1    2    0    0  0.70379153697E+00  0.31747864734E+00  0.89245757889E+00  0.90007917058E+02  0.90000180763E+02 0.  0.
         12    1    1    2    0    0 -0.70379153697E+00 -0.31747864734E+00 -0.89245757889E+00  0.11800829416E+01  0.00000000000E+00 0. -1.
         11    1    3    3    0    0  0.66556108893E+01 -0.67839085451E+01 -0.30252452470E+01  0.99734989108E+01  0.51100000000E-03 0. -1.
        -11    1    3    3    0    0  0.31342822488E+01 -0.19941210233E+02  0.33389298847E+02  0.39016930537E+02  0.51100000000E-03 0.  1.
         12    1    3    3    0    0 -0.90861016011E+01  0.27042597425E+02 -0.29471596022E+02  0.41017487610E+02  0.00000000000E+00 0. -1.
</event>
<event>
 7    1  0.2090370E-015  0.9000772E+02  0.7816164E-02  0.1186339E+00
        -11   -1    0    0    0    0  0.00000000000E+00  0.00000000000E+00  0.45593999997E+02  0.45594000000E+02  0.51100000000E-03 0. -1.
         11   -1    0    0    0    0 -0.00000000000E+00 -0.00000000000E+00 -0.45593999997E+02  0.45594000000E+02  0.51100000000E-03 0.  1.
    9900012    2    1    2    0    0 -0.83284307914E+00  0.80702908418E+00 -0.21941463856E+00  0.90007717694E+02  0.89999978768E+02 0.  0.
         12    1    1    2    0    0  0.83284307914E+00 -0.80702908418E+00  0.21941463856E+00  0.11802823056E+01  0.00000000000E+00 0. -1.
         11    1    3    3    0    0  0.43319942892E+01  0.15655685625E+01  0.92586739249E+01  0.10341190577E+02  0.51100000000E-03 0. -1.
        -11    1    3    3    0    0  0.98293855379E+00 -0.37219048310E+02 -0.18546371590E+02  0.41595572177E+02  0.51100000000E-03 0.  1.
         12    1    3    3    0    0 -0.61477759221E+01  0.36460508831E+02  0.90682830265E+01  0.38070954941E+02  0.00000000000E+00 0. -1.
</event>
<event>
 7    1  0.2090370E-015  0.9000766E+02  0.7816164E-02  0.1186339E+00
        -11   -1    0    0    0    0  0.00000000000E+00  0.00000000000E+00  0.45593999997E+02  0.45594000000E+02  0.51100000000E-03 0.  1.
         11   -1    0    0    0    0 -0.00000000000E+00 -0.00000000000E+00 -0.45593999997E+02  0.45594000000E+02  0.51100000000E-03 0. -1.
    9900012    2    1    2    0    0  0.74621144468E+00 -0.91181246696E+00 -0.70501970228E-01  0.90007659362E+02  0.89999919665E+02 0.  0.
         12    1    1    2    0    0 -0.74621144468E+00  0.91181246696E+00  0.70501970228E-01  0.11803406385E+01  0.00000000000E+00 0. -1.
         11    1    3    3    0    0 -0.38296820006E+01 -0.52526215312E+01 -0.87664885271E+01  0.10913652850E+02  0.51100000000E-03 0. -1.
        -11    1    3    3    0    0 -0.27275704625E+02 -0.18954046111E+02  0.19059597443E+02  0.38294753971E+02  0.51100000000E-03 0.  1.
         12    1    3    3    0    0  0.31851598070E+02  0.23294855175E+02 -0.10363610886E+02  0.40799252540E+02  0.00000000000E+00 0. -1.
</event>
<event>
 7    1  0.2090370E-015  0.9000770E+02  0.7816164E-02  0.1186339E+00
        -11   -1    0    0    0    0  0.00000000000E+00  0.00000000000E+00  0.45593999997E+02  0.45594000000E+02  0.51100000000E-03 0. -1.
         11   -1    0    0    0    0 -0.00000000000E+00 -0.00000000000E+00 -0.45593999997E+02  0.45594000000E+02  0.51100000000E-03 0.  1.
    9900012    2    1    2    0    0 -0.19620719201E+00 -0.86178470369E+00  0.78226369104E+00  0.90007700623E+02  0.89999961471E+02 0.  0.
         12    1    1    2    0    0  0.19620719201E+00  0.86178470369E+00 -0.78226369104E+00  0.11802993773E+01  0.00000000000E+00 0. -1.
         11    1    3    3    0    0 -0.60234471958E+01 -0.71399441783E+01  0.39850988049E+02  0.40931185760E+02  0.51100000000E-03 0. -1.
        -11    1    3    3    0    0  0.79070041945E+01  0.54506361210E+01  0.33477965900E+00  0.96094863098E+01  0.51100000000E-03 0.  1.
        -12    1    3    3    0    0 -0.20797641907E+01  0.82752335362E+00 -0.39403504017E+02  0.39467028553E+02  0.00000000000E+00 0.  1.
</event>
<event>
 7    1  0.2090370E-015  0.9000763E+02  0.7816164E-02  0.1186339E+00
        -11   -1    0    0    0    0  0.00000000000E+00  0.00000000000E+00  0.45593999997E+02  0.45594000000E+02  0.51100000000E-03 0. -1.
         11   -1    0    0    0    0 -0.00000000000E+00 -0.00000000000E+00 -0.45593999997E+02  0.45594000000E+02  0.51100000000E-03 0.  1.
    9900012    2    1    2    0    0 -0.12062118245E+00 -0.51010902881E+00 -0.10576025778E+01  0.90007625524E+02  0.89999885381E+02 0.  0.
         12    1    1    2    0    0  0.12062118245E+00  0.51010902881E+00  0.10576025778E+01  0.11803744760E+01  0.00000000000E+00 0. -1.
         11    1    3    3    0    0 -0.30640332275E+01  0.31693547157E+01  0.31021962198E+01  0.53904295358E+01  0.51100000000E-03 0. -1.
        -11    1    3    3    0    0 -0.17539626719E+02  0.20350703733E+02 -0.32515267827E+02  0.42178576196E+02  0.51100000000E-03 0.  1.
         12    1    3    3    0    0  0.20483038764E+02 -0.24030167477E+02  0.28355469029E+02  0.42438619792E+02  0.00000000000E+00 0. -1.
</event>
<event>
 7    1  0.2090370E-015  0.9000756E+02  0.7816164E-02  0.1186339E+00
        -11   -1    0    0    0    0  0.00000000000E+00  0.00000000000E+00  0.45593999997E+02  0.45594000000E+02  0.51100000000E-03 0. -1.
         11   -1    0    0    0    0 -0.00000000000E+00 -0.00000000000E+00 -0.45593999997E+02  0.45594000000E+02  0.51100000000E-03 0.  1.
    9900012    2    1    2    0    0  0.47280234545E+00  0.72859998010E+00 -0.79939342710E+00  0.90007563708E+02  0.89999822748E+02 0.  0.
         12    1    1    2    0    0 -0.47280234545E+00 -0.72859998010E+00  0.79939342710E+00  0.11804362923E+01  0.00000000000E+00 0. -1.
         11    1    3    3    0    0  0.78558499615E+01  0.22518224086E+01  0.12788456366E+02  0.15176616858E+02  0.51100000000E-03 0. -1.
        -11    1    3    3    0    0 -0.34409848604E+02 -0.17336733150E+02  0.42982391958E+01  0.38769509382E+02  0.51100000000E-03 0.  1.
         12    1    3    3    0    0  0.27026800988E+02  0.15813510721E+02 -0.17886088989E+02  0.36061437468E+02  0.00000000000E+00 0. -1.
</event>
<event>
 7    1  0.2090370E-015  0.9000775E+02  0.7816164E-02  0.1186339E+00
        -11   -1    0    0    0    0  0.00000000000E+00  0.00000000000E+00  0.45593999997E+02  0.45594000000E+02  0.51100000000E-03 0. -1.
         11   -1    0    0    0    0 -0.00000000000E+00 -0.00000000000E+00 -0.45593999997E+02  0.45594000000E+02  0.51100000000E-03 0.  1.
    9900012    2    1    2    0    0 -0.40371101013E+00  0.96801284800E+00 -0.54124931800E+00  0.90007753298E+02  0.90000014841E+02 0.  0.
         12    1    1    2    0    0  0.40371101013E+00 -0.96801284800E+00  0.54124931800E+00  0.11802467021E+01  0.00000000000E+00 0. -1.
         11    1    3    3    0    0  0.80681562799E+01  0.21603483435E+01 -0.53207078200E+01  0.99031400419E+01  0.51100000000E-03 0. -1.
        -11    1    3    3    0    0 -0.26220524271E+02 -0.33819217387E+02  0.15255838128E+01  0.42820354552E+02  0.51100000000E-03 0.  1.
         12    1    3    3    0    0  0.17748656981E+02  0.32626881892E+02  0.32538746892E+01  0.37284258704E+02  0.00000000000E+00 0. -1.
</event>
<event>
 7    1  0.2090370E-015  0.9000773E+02  0.7816164E-02  0.1186339E+00
        -11   -1    0    0    0    0  0.00000000000E+00  0.00000000000E+00  0.45593999997E+02  0.45594000000E+02  0.51100000000E-03 0.  1.
         11   -1    0    0    0    0 -0.00000000000E+00 -0.00000000000E+00 -0.45593999997E+02  0.45594000000E+02  0.51100000000E-03 0. -1.
    9900012    2    1    2    0    0 -0.46202925014E+00 -0.85938728348E+00  0.66409000620E+00  0.90007731782E+02  0.89999993041E+02 0.  0.
         12    1    1    2    0    0  0.46202925014E+00  0.85938728348E+00 -0.66409000620E+00  0.11802682184E+01  0.00000000000E+00 0. -1.
         11    1    3    3    0    0 -0.57543225883E+01 -0.85087769871E+01 -0.35446679600E+01  0.10866286646E+02  0.51100000000E-03 0. -1.
        -11    1    3    3    0    0 -0.31810164950E+02 -0.13236213007E+02  0.10689111864E+02  0.36074104862E+02  0.51100000000E-03 0.  1.
         12    1    3    3    0    0  0.37102458288E+02  0.20885602710E+02 -0.64803538979E+01  0.43067340273E+02  0.00000000000E+00 0. -1.
</event>
<event>
 7    1  0.2090370E-015  0.9000771E+02  0.7816164E-02  0.1186339E+00
        -11   -1    0    0    0    0  0.00000000000E+00  0.00000000000E+00  0.45593999997E+02  0.45594000000E+02  0.51100000000E-03 0.  1.
         11   -1    0    0    0    0 -0.00000000000E+00 -0.00000000000E+00 -0.45593999997E+02  0.45594000000E+02  0.51100000000E-03 0. -1.
    9900012    2    1    2    0    0 -0.63835845512E+00 -0.30257205416E+00  0.94552962616E+00  0.90007712900E+02  0.89999973910E+02 0.  0.
         12    1    1    2    0    0  0.63835845512E+00  0.30257205416E+00 -0.94552962616E+00  0.11802871003E+01  0.00000000000E+00 0. -1.
         11    1    3    3    0    0  0.18441001004E+02  0.31401378801E+02 -0.14840130718E+02  0.39323613626E+02  0.51100000000E-03 0. -1.
        -11    1    3    3    0    0 -0.12347698546E+01 -0.11135529944E+01 -0.79037199363E+01  0.80767224762E+01  0.51100000000E-03 0.  1.
        -12    1    3    3    0    0 -0.17844589604E+02 -0.30590397861E+02  0.23689380281E+02  0.42607376797E+02  0.00000000000E+00 0.  1.
</event>
<event>
 7    1  0.2090370E-015  0.9000773E+02  0.7816164E-02  0.1186339E+00
        -11   -1    0    0    0    0  0.00000000000E+00  0.00000000000E+00  0.45593999997E+02  0.45594000000E+02  0.51100000000E-03 0. -1.
         11   -1    0    0    0    0 -0.00000000000E+00 -0.00000000000E+00 -0.45593999997E+02  0.45594000000E+02  0.51100000000E-03 0.  1.
    9900012    2    1    2    0    0 -0.48626265401E+00  0.20091742617E-01 -0.10752641762E+01  0.90007725415E+02  0.89999986591E+02 0.  0.
         12    1    1    2    0    0  0.48626265401E+00 -0.20091742617E-01  0.10752641762E+01  0.11802745847E+01  0.00000000000E+00 0. -1.
         11    1    3    3    0    0 -0.84947296003E+01 -0.62273760183E+01 -0.50310151665E+01  0.11672692788E+02  0.51100000000E-03 0. -1.
        -11    1    3    3    0    0  0.17837167279E+02 -0.46741021796E+01 -0.33423045765E+02  0.38172133241E+02  0.51100000000E-03 0.  1.
         12    1    3    3    0    0 -0.98287003331E+01  0.10921569940E+02  0.37378796755E+02  0.40162899386E+02  0.00000000000E+00 0. -1.
</event>
<event>
 7    1  0.2090370E-015  0.9000767E+02  0.7816164E-02  0.1186339E+00
        -11   -1    0    0    0    0  0.00000000000E+00  0.00000000000E+00  0.45593999997E+02  0.45594000000E+02  0.51100000000E-03 0. -1.
         11   -1    0    0    0    0 -0.00000000000E+00 -0.00000000000E+00 -0.45593999997E+02  0.45594000000E+02  0.51100000000E-03 0.  1.
    9900012    2    1    2    0    0 -0.99792063925E+00 -0.62944206569E+00 -0.33569477751E-01  0.90007673848E+02  0.89999934342E+02 0.  0.
         12    1    1    2    0    0  0.99792063925E+00  0.62944206569E+00  0.33569477751E-01  0.11803261524E+01  0.00000000000E+00 0. -1.
         11    1    3    3    0    0 -0.43765960542E+01  0.33073863238E+02  0.78407113517E+01  0.34271150801E+02  0.51100000000E-03 0. -1.
        -11    1    3    3    0    0 -0.12735570965E+02  0.44544284478E+01 -0.43048707402E+01  0.14162224859E+02  0.51100000000E-03 0.  1.
        -12    1    3    3    0    0  0.16114246380E+02 -0.38157733751E+02 -0.35694100892E+01  0.41574298188E+02  0.00000000000E+00 0.  1.
</event>
<event>
 7    1  0.2090370E-015  0.9000765E+02  0.7816164E-02  0.1186339E+00
        -11   -1    0    0    0    0  0.00000000000E+00  0.00000000000E+00  0.45593999997E+02  0.45594000000E+02  0.51100000000E-03 0. -1.
         11   -1    0    0    0    0 -0.00000000000E+00 -0.00000000000E+00 -0.45593999997E+02  0.45594000000E+02  0.51100000000E-03 0.  1.
    9900012    2    1    2    0    0  0.72107808871E-01 -0.46697010102E+00 -0.10816448994E+01  0.90007654161E+02  0.89999914396E+02 0.  0.
         12    1    1    2    0    0 -0.72107808871E-01  0.46697010102E+00  0.10816448994E+01  0.11803458391E+01  0.00000000000E+00 0. -1.
         11    1    3    3    0    0  0.81443357634E+01  0.23457687210E+01  0.33068021198E+00  0.84818739429E+01  0.51100000000E-03 0. -1.
        -11    1    3    3    0    0  0.36676566247E+02 -0.13763887303E+01  0.62348452313E+00  0.36707678909E+02  0.51100000000E-03 0.  1.
         12    1    3    3    0    0 -0.44748794202E+02 -0.14363500917E+01 -0.20358096345E+01  0.44818101309E+02  0.00000000000E+00 0. -1.
</event>
<event>
 7    1  0.2090370E-015  0.9000771E+02  0.7816164E-02  0.1186339E+00
        -11   -1    0    0    0    0  0.00000000000E+00  0.00000000000E+00  0.45593999997E+02  0.45594000000E+02  0.51100000000E-03 0.  1.
         11   -1    0    0    0    0 -0.00000000000E+00 -0.00000000000E+00 -0.45593999997E+02  0.45594000000E+02  0.51100000000E-03 0. -1.
    9900012    2    1    2    0    0  0.63181728062E+00  0.25234521364E+00  0.96448107147E+00  0.90007705579E+02  0.89999966493E+02 0.  0.
         12    1    1    2    0    0 -0.63181728062E+00 -0.25234521364E+00 -0.96448107147E+00  0.11802944210E+01  0.00000000000E+00 0. -1.
         11    1    3    3    0    0  0.35478707836E+00 -0.86681435112E+01 -0.51873193389E+01  0.10107960624E+02  0.51100000000E-03 0. -1.
        -11    1    3    3    0    0  0.28238304821E+02 -0.19894407436E+02  0.16726464656E+02  0.38379212167E+02  0.51100000000E-03 0.  1.
         12    1    3    3    0    0 -0.27961274619E+02  0.28814896161E+02 -0.10574664246E+02  0.41520532788E+02  0.00000000000E+00 0. -1.
</event>
<event>
 7    1  0.2090370E-015  0.9000786E+02  0.7816164E-02  0.1186339E+00
        -11   -1    0    0    0    0  0.00000000000E+00  0.00000000000E+00  0.45593999997E+02  0.45594000000E+02  0.51100000000E-03 0. -1.
         11   -1    0    0    0    0 -0.00000000000E+00 -0.00000000000E+00 -0.45593999997E+02  0.45594000000E+02  0.51100000000E-03 0.  1.
    9900012    2    1    2    0    0 -0.73723325700E+00  0.59052795951E+00 -0.70745977407E+00  0.90007857857E+02  0.90000120780E+02 0.  0.
         12    1    1    2    0    0  0.73723325700E+00 -0.59052795951E+00  0.70745977407E+00  0.11801421432E+01  0.00000000000E+00 0. -1.
         11    1    3    3    0    0  0.62222259931E+01  0.25245393001E+01 -0.84949605251E+01  0.10828377052E+02  0.51100000000E-03 0. -1.
        -11    1    3    3    0    0 -0.16113755632E+02 -0.83210056011E+01 -0.32585314993E+02  0.37292023386E+02  0.51100000000E-03 0.  1.
         12    1    3    3    0    0  0.91542963823E+01  0.63869942605E+01  0.40372815744E+02  0.41887457419E+02  0.00000000000E+00 0. -1.
</event>
<event>
 7    1  0.2090370E-015  0.9000769E+02  0.7816164E-02  0.1186339E+00
        -11   -1    0    0    0    0  0.00000000000E+00  0.00000000000E+00  0.45593999997E+02  0.45594000000E+02  0.51100000000E-03 0.  1.
         11   -1    0    0    0    0 -0.00000000000E+00 -0.00000000000E+00 -0.45593999997E+02  0.45594000000E+02  0.51100000000E-03 0. -1.
    9900012    2    1    2    0    0  0.83613985342E+00 -0.81340518282E+00 -0.17991387510E+00  0.90007692054E+02  0.89999952789E+02 0.  0.
         12    1    1    2    0    0 -0.83613985342E+00  0.81340518282E+00  0.17991387510E+00  0.11803079464E+01  0.00000000000E+00 0. -1.
         11    1    3    3    0    0  0.17082620049E+02 -0.27546266366E+02  0.14656477387E+02  0.35572813048E+02  0.51100000000E-03 0. -1.
        -11    1    3    3    0    0  0.44588304704E+01 -0.83352714901E+01  0.30820676120E+01  0.99426888216E+01  0.51100000000E-03 0.  1.
        -12    1    3    3    0    0 -0.20705310666E+02  0.35068132674E+02 -0.17918458874E+02  0.44492190184E+02  0.00000000000E+00 0.  1.
</event>
<event>
 7    1  0.2090370E-015  0.9000748E+02  0.7816164E-02  0.1186340E+00
        -11   -1    0    0    0    0  0.00000000000E+00  0.00000000000E+00  0.45593999997E+02  0.45594000000E+02  0.51100000000E-03 0.  1.
         11   -1    0    0    0    0 -0.00000000000E+00 -0.00000000000E+00 -0.45593999997E+02  0.45594000000E+02  0.51100000000E-03 0. -1.
    9900012    2    1    2    0    0  0.56983322582E+00 -0.94064057261E+00  0.42907492026E+00  0.90007483215E+02  0.89999741193E+02 0.  0.
         12    1    1    2    0    0 -0.56983322582E+00  0.94064057261E+00 -0.42907492026E+00  0.11805167848E+01  0.00000000000E+00 0. -1.
         11    1    3    3    0    0 -0.29347432563E+01  0.10907375794E+02 -0.50006698314E+00  0.11306353609E+02  0.51100000000E-03 0. -1.
        -11    1    3    3    0    0  0.28122986966E+02 -0.18353370296E+02  0.26376260636E+02  0.42701940500E+02  0.51100000000E-03 0.  1.
         12    1    3    3    0    0 -0.24618410484E+02  0.65053539290E+01 -0.25447118732E+02  0.35999189106E+02  0.00000000000E+00 0. -1.
</event>
<event>
 7    1  0.2090370E-015  0.9000753E+02  0.7816164E-02  0.1186339E+00
        -11   -1    0    0    0    0  0.00000000000E+00  0.00000000000E+00  0.45593999997E+02  0.45594000000E+02  0.51100000000E-03 0. -1.
         11   -1    0    0    0    0 -0.00000000000E+00 -0.00000000000E+00 -0.45593999997E+02  0.45594000000E+02  0.51100000000E-03 0.  1.
    9900012    2    1    2    0    0  0.94146375617E+00  0.69349886975E+00  0.16188182214E+00  0.90007533816E+02  0.89999792462E+02 0.  0.
         12    1    1    2    0    0 -0.94146375617E+00 -0.69349886975E+00 -0.16188182214E+00  0.11804661837E+01  0.00000000000E+00 0. -1.
         11    1    3    3    0    0 -0.79909571412E+01  0.26049144110E+01  0.18686135288E+01  0.86100343729E+01  0.51100000000E-03 0. -1.
        -11    1    3    3    0    0 -0.11830174531E+02 -0.30105427585E+01 -0.37811944983E+02  0.39733607699E+02  0.51100000000E-03 0.  1.
         12    1    3    3    0    0  0.20762595428E+02  0.10991272173E+01  0.36105213276E+02  0.41663891744E+02  0.00000000000E+00 0. -1.
</event>
<event>
 7    1  0.2090370E-015  0.9000774E+02  0.7816164E-02  0.1186339E+00
        -11   -1    0    0    0    0  0.00000000000E+00  0.00000000000E+00  0.45593999997E+02  0.45594000000E+02  0.51100000000E-03 0. -1.
         11   -1    0    0    0    0 -0.00000000000E+00 -0.00000000000E+00 -0.45593999997E+02  0.45594000000E+02  0.51100000000E-03 0.  1.
    9900012    2    1    2    0    0  0.11217815185E+01 -0.33165941500E+00 -0.15688749080E+00  0.90007743491E+02  0.90000004905E+02 0.  0.
         12    1    1    2    0    0 -0.11217815185E+01  0.33165941500E+00  0.15688749080E+00  0.11802565092E+01  0.00000000000E+00 0. -1.
         11    1    3    3    0    0 -0.18461007091E+01  0.92800162785E+01 -0.19175298089E+01  0.96542068958E+01  0.51100000000E-03 0. -1.
        -11    1    3    3    0    0 -0.37440862033E+02  0.36692812177E+01  0.35000932966E+01  0.37782700112E+02  0.51100000000E-03 0.  1.
         12    1    3    3    0    0  0.40408744260E+02 -0.13280956911E+02 -0.17394509785E+01  0.42570836483E+02  0.00000000000E+00 0. -1.
</event>
<event>
 7    1  0.2090370E-015  0.9000776E+02  0.7816164E-02  0.1186339E+00
        -11   -1    0    0    0    0  0.00000000000E+00  0.00000000000E+00  0.45593999997E+02  0.45594000000E+02  0.51100000000E-03 0.  1.
         11   -1    0    0    0    0 -0.00000000000E+00 -0.00000000000E+00 -0.45593999997E+02  0.45594000000E+02  0.51100000000E-03 0. -1.
    9900012    2    1    2    0    0 -0.45083762483E+00 -0.10218716574E+01  0.38142087743E+00  0.90007763526E+02  0.90000025205E+02 0.  0.
         12    1    1    2    0    0  0.45083762483E+00  0.10218716574E+01 -0.38142087743E+00  0.11802364737E+01  0.00000000000E+00 0. -1.
         11    1    3    3    0    0 -0.30363238066E+02  0.60156565538E+01  0.19901419420E+02  0.36799196252E+02  0.51100000000E-03 0. -1.
        -11    1    3    3    0    0 -0.89455723384E+01  0.28257161243E+01 -0.30162715791E+01  0.98542290706E+01  0.51100000000E-03 0.  1.
        -12    1    3    3    0    0  0.38857972780E+02 -0.98632443355E+01 -0.16503726963E+02  0.43354338203E+02  0.00000000000E+00 0.  1.
</event>
<event>
 7    1  0.3621795E-015  0.9000761E+02  0.7816164E-02  0.1186339E+00
        -11   -1    0    0    0    0  0.00000000000E+00  0.00000000000E+00  0.45593999997E+02  0.45594000000E+02  0.51100000000E-03 0. -1.
         11   -1    0    0    0    0 -0.00000000000E+00 -0.00000000000E+00 -0.45593999997E+02  0.45594000000E+02  0.51100000000E-03 0.  1.
    9900012    2    1    2    0    0  0.10207851545E+01 -0.28787133935E+00 -0.51811927621E+00  0.90007610308E+02  0.89999869964E+02 0.  0.
         12    1    1    2    0    0 -0.10207851545E+01  0.28787133935E+00  0.51811927621E+00  0.11803896916E+01  0.00000000000E+00 0. -1.
         11    1    3    3    0    0 -0.12624521453E+02 -0.11410664282E+02  0.31864062663E+02  0.36123403646E+02  0.51100000000E-03 0. -1.
        -11    1    3    3    0    0 -0.40053627442E+01  0.24916058778E+01  0.78228781672E+01  0.91350125146E+01  0.51100000000E-03 0.  1.
        -12    1    3    3    0    0  0.17650669352E+02  0.86311870647E+01 -0.40205060107E+02  0.44749194148E+02  0.00000000000E+00 0.  1.
</event>
<event>
 7    1  0.2090370E-015  0.9000774E+02  0.7816164E-02  0.1186339E+00
        -11   -1    0    0    0    0  0.00000000000E+00  0.00000000000E+00  0.45593999997E+02  0.45594000000E+02  0.51100000000E-03 0.  1.
         11   -1    0    0    0    0 -0.00000000000E+00 -0.00000000000E+00 -0.45593999997E+02  0.45594000000E+02  0.51100000000E-03 0. -1.
    9900012    2    1    2    0    0  0.10028880188E+01  0.58115750428E-01  0.61956699101E+00  0.90007735167E+02  0.89999996472E+02 0.  0.
         12    1    1    2    0    0 -0.10028880188E+01 -0.58115750428E-01 -0.61956699101E+00  0.11802648326E+01  0.00000000000E+00 0. -1.
         11    1    3    3    0    0 -0.28707820105E+02  0.23651675162E+02  0.43178402177E+01  0.37445752997E+02  0.51100000000E-03 0. -1.
        -11    1    3    3    0    0 -0.82489063021E+01 -0.45456412433E+01  0.22319845704E+01  0.96793111778E+01  0.51100000000E-03 0.  1.
        -12    1    3    3    0    0  0.37959614425E+02 -0.19047918169E+02 -0.59302577971E+01  0.42882670992E+02  0.00000000000E+00 0.  1.
</event>
<event>
 7    1  0.2090370E-015  0.9000773E+02  0.7816164E-02  0.1186339E+00
        -11   -1    0    0    0    0  0.00000000000E+00  0.00000000000E+00  0.45593999997E+02  0.45594000000E+02  0.51100000000E-03 0.  1.
         11   -1    0    0    0    0 -0.00000000000E+00 -0.00000000000E+00 -0.45593999997E+02  0.45594000000E+02  0.51100000000E-03 0. -1.
    9900012    2    1    2    0    0  0.69506601319E+00 -0.42656898963E+00  0.85320349531E+00  0.90007731357E+02  0.89999992611E+02 0.  0.
         12    1    1    2    0    0 -0.69506601319E+00  0.42656898963E+00 -0.85320349531E+00  0.11802686432E+01  0.00000000000E+00 0. -1.
         11    1    3    3    0    0 -0.81382673203E+01 -0.45891746907E+01  0.22979576651E+01  0.96214618957E+01  0.51100000000E-03 0. -1.
        -11    1    3    3    0    0 -0.30228909389E+02 -0.14411596387E+02 -0.12494976897E+02  0.35743608116E+02  0.51100000000E-03 0.  1.
         12    1    3    3    0    0  0.39062242722E+02  0.18574202088E+02  0.11050222727E+02  0.44642661345E+02  0.00000000000E+00 0. -1.
</event>
<event>
 7    1  0.2090370E-015  0.9000770E+02  0.7816164E-02  0.1186339E+00
        -11   -1    0    0    0    0  0.00000000000E+00  0.00000000000E+00  0.45593999997E+02  0.45594000000E+02  0.51100000000E-03 0.  1.
         11   -1    0    0    0    0 -0.00000000000E+00 -0.00000000000E+00 -0.45593999997E+02  0.45594000000E+02  0.51100000000E-03 0. -1.
    9900012    2    1    2    0    0  0.71376203758E+00  0.93952561984E+00 -0.30745121367E-01  0.90007699234E+02  0.89999960063E+02 0.  0.
         12    1    1    2    0    0 -0.71376203758E+00 -0.93952561984E+00  0.30745121367E-01  0.11803007664E+01  0.00000000000E+00 0. -1.
         11    1    3    3    0    0 -0.29009214078E+02  0.44800174716E+01 -0.23703568277E+02  0.37728824621E+02  0.51100000000E-03 0. -1.
        -11    1    3    3    0    0 -0.77065352500E+01 -0.50686425140E+00 -0.29655435510E+00  0.77288771290E+01  0.51100000000E-03 0.  1.
        -12    1    3    3    0    0  0.37429511366E+02 -0.30336276003E+01  0.23969377511E+02  0.44549997483E+02  0.00000000000E+00 0.  1.
</event>
<event>
 7    1  0.2090370E-015  0.9000786E+02  0.7816164E-02  0.1186339E+00
        -11   -1    0    0    0    0  0.00000000000E+00  0.00000000000E+00  0.45593999997E+02  0.45594000000E+02  0.51100000000E-03 0.  1.
         11   -1    0    0    0    0 -0.00000000000E+00 -0.00000000000E+00 -0.45593999997E+02  0.45594000000E+02  0.51100000000E-03 0. -1.
    9900012    2    1    2    0    0  0.78321376200E+00 -0.80899363932E+00  0.35330902094E+00  0.90007863665E+02  0.90000126665E+02 0.  0.
         12    1    1    2    0    0 -0.78321376200E+00  0.80899363932E+00 -0.35330902094E+00  0.11801363352E+01  0.00000000000E+00 0. -1.
         11    1    3    3    0    0 -0.21993200428E+02 -0.17734212548E+02 -0.21691945990E+02  0.35619428418E+02  0.51100000000E-03 0. -1.
        -11    1    3    3    0    0  0.61153398784E+00 -0.10870744431E+02  0.14351293035E+02  0.18014068678E+02  0.51100000000E-03 0.  1.
         12    1    3    3    0    0  0.22164880202E+02  0.27795963340E+02  0.76939619759E+01  0.36374366568E+02  0.00000000000E+00 0. -1.
</event>
<event>
 7    1  0.2090370E-015  0.9000775E+02  0.7816164E-02  0.1186339E+00
        -11   -1    0    0    0    0  0.00000000000E+00  0.00000000000E+00  0.45593999997E+02  0.45594000000E+02  0.51100000000E-03 0.  1.
         11   -1    0    0    0    0 -0.00000000000E+00 -0.00000000000E+00 -0.45593999997E+02  0.45594000000E+02  0.51100000000E-03 0. -1.
    9900012    2    1    2    0    0  0.22128250235E+00  0.11550713061E+01  0.99124476671E-01  0.90007753699E+02  0.90000015248E+02 0.  0.
         12    1    1    2    0    0 -0.22128250235E+00 -0.11550713061E+01 -0.99124476671E-01  0.11802463005E+01  0.00000000000E+00 0. -1.
         11    1    3    3    0    0 -0.17106363910E+02 -0.31903398712E+02 -0.19881685444E+02  0.41300556315E+02  0.51100000000E-03 0. -1.
        -11    1    3    3    0    0  0.12114386752E+01 -0.32960311100E+01  0.52163120776E+01  0.62881886656E+01  0.51100000000E-03 0.  1.
        -12    1    3    3    0    0  0.16116207737E+02  0.36354501128E+02  0.14764497843E+02  0.42419008719E+02  0.00000000000E+00 0.  1.
</event>
<event>
 7    1  0.2408660E-015  0.9000802E+02  0.7816164E-02  0.1186338E+00
        -11   -1    0    0    0    0  0.00000000000E+00  0.00000000000E+00  0.45593999997E+02  0.45594000000E+02  0.51100000000E-03 0. -1.
         11   -1    0    0    0    0 -0.00000000000E+00 -0.00000000000E+00 -0.45593999997E+02  0.45594000000E+02  0.51100000000E-03 0.  1.
    9900012    2    1    2    0    0 -0.53213807460E+00  0.86974730677E+00 -0.59391219443E+00  0.90008015677E+02  0.90000280683E+02 0.  0.
         12    1    1    2    0    0  0.53213807460E+00 -0.86974730677E+00  0.59391219443E+00  0.11799843231E+01  0.00000000000E+00 0. -1.
         11    1    3    3    0    0  0.14211766669E+02 -0.18849584733E+02  0.32326659399E+02  0.40028665536E+02  0.51100000000E-03 0. -1.
        -11    1    3    3    0    0  0.78248377737E+01  0.11053240935E+01 -0.40585668177E+01  0.88837938073E+01  0.51100000000E-03 0.  1.
        -12    1    3    3    0    0 -0.22568742518E+02  0.18614007947E+02 -0.28862004775E+02  0.41095556333E+02  0.00000000000E+00 0.  1.
</event>
<event>
 7    1  0.2090370E-015  0.9000739E+02  0.7816164E-02  0.1186340E+00
        -11   -1    0    0    0    0  0.00000000000E+00  0.00000000000E+00  0.45593999997E+02  0.45594000000E+02  0.51100000000E-03 0.  1.
         11   -1    0    0    0    0 -0.00000000000E+00 -0.00000000000E+00 -0.45593999997E+02  0.45594000000E+02  0.51100000000E-03 0. -1.
    9900012    2    1    2    0    0  0.11495732607E+01  0.22941255586E+00 -0.14028744941E+00  0.90007394490E+02  0.89999651296E+02 0.  0.
         12    1    1    2    0    0 -0.11495732607E+01 -0.22941255586E+00  0.14028744941E+00  0.11806055103E+01  0.00000000000E+00 0. -1.
         11    1    3    3    0    0  0.27388643129E+01  0.15069797392E+02 -0.31446982362E+02  0.34978748849E+02  0.51100000000E-03 0. -1.
        -11    1    3    3    0    0  0.54783669538E+00  0.37395030421E+01 -0.94543414692E+01  0.10181776904E+02  0.51100000000E-03 0.  1.
        -12    1    3    3    0    0 -0.21371277476E+01 -0.18579887878E+02  0.40761036381E+02  0.44846868736E+02  0.00000000000E+00 0.  1.
</event>
<event>
 7    1  0.2090370E-015  0.9000774E+02  0.7816164E-02  0.1186339E+00
        -11   -1    0    0    0    0  0.00000000000E+00  0.00000000000E+00  0.45593999997E+02  0.45594000000E+02  0.51100000000E-03 0. -1.
         11   -1    0    0    0    0 -0.00000000000E+00 -0.00000000000E+00 -0.45593999997E+02  0.45594000000E+02  0.51100000000E-03 0.  1.
    9900012    2    1    2    0    0  0.49021923427E+00  0.65199788995E+00 -0.85299482317E+00  0.90007738879E+02  0.90000000232E+02 0.  0.
         12    1    1    2    0    0 -0.49021923427E+00 -0.65199788995E+00  0.85299482317E+00  0.11802611213E+01  0.00000000000E+00 0. -1.
         11    1    3    3    0    0  0.10758415044E+02 -0.24800332547E+02  0.22876614464E+02  0.35413831737E+02  0.51100000000E-03 0. -1.
        -11    1    3    3    0    0  0.22199422985E+01 -0.10668195540E+02 -0.63215407447E+01  0.12597635395E+02  0.51100000000E-03 0.  1.
        -12    1    3    3    0    0 -0.12488138108E+02  0.36120525977E+02 -0.17408068542E+02  0.41996271747E+02  0.00000000000E+00 0.  1.
</event>
<event>
 7    1  0.2090370E-015  0.9000779E+02  0.7816164E-02  0.1186339E+00
        -11   -1    0    0    0    0  0.00000000000E+00  0.00000000000E+00  0.45593999997E+02  0.45594000000E+02  0.51100000000E-03 0. -1.
         11   -1    0    0    0    0 -0.00000000000E+00 -0.00000000000E+00 -0.45593999997E+02  0.45594000000E+02  0.51100000000E-03 0.  1.
    9900012    2    1    2    0    0  0.37266933670E+00 -0.97661340873E+00 -0.54794240240E+00  0.90007789400E+02  0.90000051420E+02 0.  0.
         12    1    1    2    0    0 -0.37266933670E+00  0.97661340873E+00  0.54794240240E+00  0.11802106003E+01  0.00000000000E+00 0. -1.
         11    1    3    3    0    0  0.32177603530E+02  0.15984835123E+02  0.10248231647E+02  0.37362272080E+02  0.51100000000E-03 0. -1.
        -11    1    3    3    0    0  0.52372998739E+01 -0.61243800205E+01  0.64990770916E+01  0.10352552531E+02  0.51100000000E-03 0.  1.
        -12    1    3    3    0    0 -0.37042234067E+02 -0.10837068512E+02 -0.17295251141E+02  0.42292964789E+02  0.00000000000E+00 0.  1.
</event>
<event>
 7    1  0.2090370E-015  0.9000782E+02  0.7816164E-02  0.1186339E+00
        -11   -1    0    0    0    0  0.00000000000E+00  0.00000000000E+00  0.45593999997E+02  0.45594000000E+02  0.51100000000E-03 0.  1.
         11   -1    0    0    0    0 -0.00000000000E+00 -0.00000000000E+00 -0.45593999997E+02  0.45594000000E+02  0.51100000000E-03 0. -1.
    9900012    2    1    2    0    0  0.54741933892E+00  0.69369706812E-01  0.10432426559E+01  0.90007815553E+02  0.90000077919E+02 0.  0.
         12    1    1    2    0    0 -0.54741933892E+00 -0.69369706812E-01 -0.10432426559E+01  0.11801844465E+01  0.00000000000E+00 0. -1.
         11    1    3    3    0    0 -0.96125510144E+01 -0.35806970248E+02  0.82660643450E+01  0.37985103335E+02  0.51100000000E-03 0. -1.
        -11    1    3    3    0    0 -0.89769137830E+01  0.55437891418E+00  0.46595790098E+01  0.10129362954E+02  0.51100000000E-03 0.  1.
        -12    1    3    3    0    0  0.19136884136E+02  0.35321961041E+02 -0.11882400699E+02  0.41893349264E+02  0.00000000000E+00 0.  1.
</event>
<event>
 7    1  0.2090370E-015  0.9000772E+02  0.7816164E-02  0.1186339E+00
        -11   -1    0    0    0    0  0.00000000000E+00  0.00000000000E+00  0.45593999997E+02  0.45594000000E+02  0.51100000000E-03 0.  1.
         11   -1    0    0    0    0 -0.00000000000E+00 -0.00000000000E+00 -0.45593999997E+02  0.45594000000E+02  0.51100000000E-03 0. -1.
    9900012    2    1    2    0    0  0.30506188350E+00  0.80366635904E-01  0.11373351827E+01  0.90007723394E+02  0.89999984543E+02 0.  0.
         12    1    1    2    0    0 -0.30506188350E+00 -0.80366635904E-01 -0.11373351827E+01  0.11802766060E+01  0.00000000000E+00 0. -1.
         11    1    3    3    0    0  0.14607055790E+00 -0.22623883139E+01  0.84757300317E+01  0.87736957618E+01  0.51100000000E-03 0. -1.
        -11    1    3    3    0    0 -0.16048658153E+02  0.11877615692E+02  0.31951115541E+02  0.37676398018E+02  0.51100000000E-03 0.  1.
         12    1    3    3    0    0  0.16207649478E+02 -0.95348607419E+01 -0.39289510390E+02  0.43557629615E+02  0.00000000000E+00 0. -1.
</event>
<event>
 7    1  0.2090370E-015  0.9000780E+02  0.7816164E-02  0.1186339E+00
        -11   -1    0    0    0    0  0.00000000000E+00  0.00000000000E+00  0.45593999997E+02  0.45594000000E+02  0.51100000000E-03 0.  1.
         11   -1    0    0    0    0 -0.00000000000E+00 -0.00000000000E+00 -0.45593999997E+02  0.45594000000E+02  0.51100000000E-03 0. -1.
    9900012    2    1    2    0    0 -0.11355699411E+01  0.30244215606E+00 -0.10902444502E+00  0.90007798035E+02  0.90000060169E+02 0.  0.
         12    1    1    2    0    0  0.11355699411E+01 -0.30244215606E+00  0.10902444502E+00  0.11802019651E+01  0.00000000000E+00 0. -1.
         11    1    3    3    0    0  0.38552662389E+01  0.77933747608E+01 -0.67432745716E+01  0.11003250435E+02  0.51100000000E-03 0. -1.
        -11    1    3    3    0    0  0.35849773356E+02 -0.10780504641E+02 -0.36916845164E+00  0.37437438689E+02  0.51100000000E-03 0.  1.
         12    1    3    3    0    0 -0.40840609536E+02  0.32895720367E+01  0.70034185782E+01  0.41567108911E+02  0.00000000000E+00 0. -1.
</event>
<event>
 7    1  0.2090370E-015  0.9000783E+02  0.7816164E-02  0.1186339E+00
        -11   -1    0    0    0    0  0.00000000000E+00  0.00000000000E+00  0.45593999997E+02  0.45594000000E+02  0.51100000000E-03 0. -1.
         11   -1    0    0    0    0 -0.00000000000E+00 -0.00000000000E+00 -0.45593999997E+02  0.45594000000E+02  0.51100000000E-03 0.  1.
    9900012    2    1    2    0    0  0.69970843910E+00  0.75899666884E+00 -0.57194992529E+00  0.90007832825E+02  0.90000095419E+02 0.  0.
         12    1    1    2    0    0 -0.69970843910E+00 -0.75899666884E+00  0.57194992529E+00  0.11801671746E+01  0.00000000000E+00 0. -1.
         11    1    3    3    0    0 -0.33748325017E+02  0.15313822728E+02  0.76491908518E+01  0.37841415525E+02  0.51100000000E-03 0. -1.
        -11    1    3    3    0    0 -0.72304347272E+01 -0.27327656216E+01  0.12243427441E+01  0.78259957643E+01  0.51100000000E-03 0.  1.
        -12    1    3    3    0    0  0.41678468183E+02 -0.11822060438E+02 -0.94454835211E+01  0.44340421536E+02  0.00000000000E+00 0.  1.
</event>
<event>
 7    1  0.2090370E-015  0.9000791E+02  0.7816164E-02  0.1186339E+00
        -11   -1    0    0    0    0  0.00000000000E+00  0.00000000000E+00  0.45593999997E+02  0.45594000000E+02  0.51100000000E-03 0. -1.
         11   -1    0    0    0    0 -0.00000000000E+00 -0.00000000000E+00 -0.45593999997E+02  0.45594000000E+02  0.51100000000E-03 0.  1.
    9900012    2    1    2    0    0  0.93944728961E+00 -0.67954180544E+00  0.21973088466E+00  0.90007906810E+02  0.90000170380E+02 0.  0.
         12    1    1    2    0    0 -0.93944728961E+00  0.67954180544E+00 -0.21973088466E+00  0.11800931899E+01  0.00000000000E+00 0. -1.
         11    1    3    3    0    0  0.36220695309E+02 -0.25136504720E+01  0.11919968060E+02  0.38214432433E+02  0.51100000000E-03 0. -1.
        -11    1    3    3    0    0  0.51731954199E+01 -0.72909642728E+01 -0.12550475196E+01  0.90274722607E+01  0.51100000000E-03 0.  1.
        -12    1    3    3    0    0 -0.40454443439E+02  0.91250729393E+01 -0.10445189656E+02  0.42766002117E+02  0.00000000000E+00 0.  1.
</event>
<event>
 7    1  0.2434446E-015  0.9000773E+02  0.7816164E-02  0.1186339E+00
        -11   -1    0    0    0    0  0.00000000000E+00  0.00000000000E+00  0.45593999997E+02  0.45594000000E+02  0.51100000000E-03 0.  1.
         11   -1    0    0    0    0 -0.00000000000E+00 -0.00000000000E+00 -0.45593999997E+02  0.45594000000E+02  0.51100000000E-03 0. -1.
    9900012    2    1    2    0    0  0.83643098543E+00 -0.66972523389E+00 -0.49485884781E+00  0.90007731403E+02  0.89999992657E+02 0.  0.
         12    1    1    2    0    0 -0.83643098543E+00  0.66972523389E+00  0.49485884781E+00  0.11802685972E+01  0.00000000000E+00 0. -1.
         11    1    3    3    0    0  0.24801169171E+02  0.31695720617E+02  0.65661737143E+01  0.40777828966E+02  0.51100000000E-03 0. -1.
        -11    1    3    3    0    0 -0.54680579121E+01 -0.10058075084E+01  0.80724181777E+01  0.98017978744E+01  0.51100000000E-03 0.  1.
        -12    1    3    3    0    0 -0.18496680273E+02 -0.31359638343E+02 -0.15133450740E+02  0.39428104563E+02  0.00000000000E+00 0.  1.
</event>
<event>
 7    1  0.2090370E-015  0.9000776E+02  0.7816164E-02  0.1186339E+00
        -11   -1    0    0    0    0  0.00000000000E+00  0.00000000000E+00  0.45593999997E+02  0.45594000000E+02  0.51100000000E-03 0.  1.
         11   -1    0    0    0    0 -0.00000000000E+00 -0.00000000000E+00 -0.45593999997E+02  0.45594000000E+02  0.51100000000E-03 0. -1.
    9900012    2    1    2    0    0  0.11344314296E+01 -0.13943380053E+00  0.29426908090E+00  0.90007758184E+02  0.90000019792E+02 0.  0.
         12    1    1    2    0    0 -0.11344314296E+01  0.13943380053E+00 -0.29426908090E+00  0.11802418164E+01  0.00000000000E+00 0. -1.
         11    1    3    3    0    0  0.84961894332E+01 -0.32894405813E+01  0.12232222791E+01  0.91924929822E+01  0.51100000000E-03 0. -1.
        -11    1    3    3    0    0  0.12432340214E+02  0.27091527736E+02  0.26113881565E+02  0.39628888061E+02  0.51100000000E-03 0.  1.
         12    1    3    3    0    0 -0.19794098218E+02 -0.23941520955E+02 -0.27042834764E+02  0.41186377140E+02  0.00000000000E+00 0. -1.
</event>
<event>
 7    1  0.2090370E-015  0.9000784E+02  0.7816164E-02  0.1186339E+00
        -11   -1    0    0    0    0  0.00000000000E+00  0.00000000000E+00  0.45593999997E+02  0.45594000000E+02  0.51100000000E-03 0. -1.
         11   -1    0    0    0    0 -0.00000000000E+00 -0.00000000000E+00 -0.45593999997E+02  0.45594000000E+02  0.51100000000E-03 0.  1.
    9900012    2    1    2    0    0  0.61316161043E+00 -0.10060436447E+01 -0.68540445893E-01  0.90007835279E+02  0.90000097905E+02 0.  0.
         12    1    1    2    0    0 -0.61316161043E+00  0.10060436447E+01  0.68540445893E-01  0.11801647209E+01  0.00000000000E+00 0. -1.
         11    1    3    3    0    0  0.24093678993E+01  0.12729984910E+02  0.44435500309E+01  0.13696813739E+02  0.51100000000E-03 0. -1.
        -11    1    3    3    0    0  0.22504374533E+02 -0.23066290104E+02 -0.26900001270E+02  0.41977502080E+02  0.51100000000E-03 0.  1.
         12    1    3    3    0    0 -0.24300580822E+02  0.93302615500E+01  0.22387910793E+02  0.34333519460E+02  0.00000000000E+00 0. -1.
</event>
<event>
 7    1  0.2090370E-015  0.9000778E+02  0.7816164E-02  0.1186339E+00
        -11   -1    0    0    0    0  0.00000000000E+00  0.00000000000E+00  0.45593999997E+02  0.45594000000E+02  0.51100000000E-03 0.  1.
         11   -1    0    0    0    0 -0.00000000000E+00 -0.00000000000E+00 -0.45593999997E+02  0.45594000000E+02  0.51100000000E-03 0. -1.
    9900012    2    1    2    0    0 -0.27026838988E+00 -0.30439312890E+00  0.11078040862E+01  0.90007775414E+02  0.90000037250E+02 0.  0.
         12    1    1    2    0    0  0.27026838988E+00  0.30439312890E+00 -0.11078040862E+01  0.11802245858E+01  0.00000000000E+00 0. -1.
         11    1    3    3    0    0 -0.19008340321E+01  0.11628816418E+02 -0.15567163273E+01  0.11885533530E+02  0.51100000000E-03 0. -1.
        -11    1    3    3    0    0  0.71974010098E+01  0.28289865598E+02  0.18475111437E+02  0.34546328600E+02  0.51100000000E-03 0.  1.
         12    1    3    3    0    0 -0.55668353676E+01 -0.40223075145E+02 -0.15810591023E+02  0.43575913285E+02  0.00000000000E+00 0. -1.
</event>
<event>
 7    1  0.2090370E-015  0.9000771E+02  0.7816164E-02  0.1186339E+00
        -11   -1    0    0    0    0  0.00000000000E+00  0.00000000000E+00  0.45593999997E+02  0.45594000000E+02  0.51100000000E-03 0.  1.
         11   -1    0    0    0    0 -0.00000000000E+00 -0.00000000000E+00 -0.45593999997E+02  0.45594000000E+02  0.51100000000E-03 0. -1.
    9900012    2    1    2    0    0  0.36897191863E+00 -0.97495694298E+00 -0.55354269528E+00  0.90007707310E+02  0.89999968247E+02 0.  0.
         12    1    1    2    0    0 -0.36897191863E+00  0.97495694298E+00  0.55354269528E+00  0.11802926895E+01  0.00000000000E+00 0. -1.
         11    1    3    3    0    0  0.94201740398E+01  0.26814917080E+01 -0.27485802864E+01  0.10172746462E+02  0.51100000000E-03 0. -1.
        -11    1    3    3    0    0  0.22785076160E+02  0.21792921017E+02  0.17782235554E+02  0.36198052484E+02  0.51100000000E-03 0.  1.
         12    1    3    3    0    0 -0.31836278282E+02 -0.25449369668E+02 -0.15587197963E+02  0.43636908365E+02  0.00000000000E+00 0. -1.
</event>
<event>
 7    1  0.2090370E-015  0.9000746E+02  0.7816164E-02  0.1186340E+00
        -11   -1    0    0    0    0  0.00000000000E+00  0.00000000000E+00  0.45593999997E+02  0.45594000000E+02  0.51100000000E-03 0.  1.
         11   -1    0    0    0    0 -0.00000000000E+00 -0.00000000000E+00 -0.45593999997E+02  0.45594000000E+02  0.51100000000E-03 0. -1.
    9900012    2    1    2    0    0 -0.15263035662E+00  0.69150596777E+00  0.94456379896E+00  0.90007458895E+02  0.89999716552E+02 0.  0.
         12    1    1    2    0    0  0.15263035662E+00 -0.69150596777E+00 -0.94456379896E+00  0.11805411045E+01  0.00000000000E+00 0. -1.
         11    1    3    3    0    0  0.49680776494E+01  0.89137493537E+01  0.79873199161E+01  0.12958935248E+02  0.51100000000E-03 0. -1.
        -11    1    3    3    0    0 -0.58991826412E+01  0.26803681893E+02 -0.25487998421E+02  0.37454983415E+02  0.51100000000E-03 0.  1.
         12    1    3    3    0    0  0.77847463522E+00 -0.35025925279E+02  0.18445242304E+02  0.39593540232E+02  0.00000000000E+00 0. -1.
</event>
<event>
 7    1  0.2090370E-015  0.9000772E+02  0.7816164E-02  0.1186339E+00
        -11   -1    0    0    0    0  0.00000000000E+00  0.00000000000E+00  0.45593999997E+02  0.45594000000E+02  0.51100000000E-03 0.  1.
         11   -1    0    0    0    0 -0.00000000000E+00 -0.00000000000E+00 -0.45593999997E+02  0.45594000000E+02  0.51100000000E-03 0. -1.
    9900012    2    1    2    0    0  0.14535925602E+00  0.56720617102E+00  0.10247919689E+01  0.90007724298E+02  0.89999985458E+02 0.  0.
         12    1    1    2    0    0 -0.14535925602E+00 -0.56720617102E+00 -0.10247919689E+01  0.11802757022E+01  0.00000000000E+00 0. -1.
         11    1    3    3    0    0  0.29981608046E+02  0.18111637731E+02 -0.15080058651E+02  0.38135762894E+02  0.51100000000E-03 0. -1.
        -11    1    3    3    0    0  0.66192558080E+01  0.23876220088E+01  0.56600243495E+01  0.90305682106E+01  0.51100000000E-03 0.  1.
        -12    1    3    3    0    0 -0.36455504598E+02 -0.19932053569E+02  0.10444826271E+02  0.42841393193E+02  0.00000000000E+00 0.  1.
</event>
<event>
 7    1  0.2090370E-015  0.9000774E+02  0.7816164E-02  0.1186339E+00
        -11   -1    0    0    0    0  0.00000000000E+00  0.00000000000E+00  0.45593999997E+02  0.45594000000E+02  0.51100000000E-03 0.  1.
         11   -1    0    0    0    0 -0.00000000000E+00 -0.00000000000E+00 -0.45593999997E+02  0.45594000000E+02  0.51100000000E-03 0. -1.
    9900012    2    1    2    0    0  0.10688062030E+01  0.49444832618E+00  0.78730278713E-01  0.90007735494E+02  0.89999996803E+02 0.  0.
         12    1    1    2    0    0 -0.10688062030E+01 -0.49444832618E+00 -0.78730278713E-01  0.11802645058E+01  0.00000000000E+00 0. -1.
         11    1    3    3    0    0 -0.56640656094E+01  0.56562379549E+01  0.46156601084E+01  0.92400749741E+01  0.51100000000E-03 0. -1.
        -11    1    3    3    0    0 -0.67854036231E+01  0.35533206739E+02  0.58521207320E+01  0.36645570002E+02  0.51100000000E-03 0.  1.
         12    1    3    3    0    0  0.13518275436E+02 -0.40694996367E+02 -0.10389050562E+02  0.44122090518E+02  0.00000000000E+00 0. -1.
</event>
<event>
 7    1  0.2090370E-015  0.9000771E+02  0.7816164E-02  0.1186339E+00
        -11   -1    0    0    0    0  0.00000000000E+00  0.00000000000E+00  0.45593999997E+02  0.45594000000E+02  0.51100000000E-03 0. -1.
         11   -1    0    0    0    0 -0.00000000000E+00 -0.00000000000E+00 -0.45593999997E+02  0.45594000000E+02  0.51100000000E-03 0.  1.
    9900012    2    1    2    0    0 -0.59731324423E+00  0.94252679893E+00 -0.38463214300E+00  0.90007711152E+02  0.89999972140E+02 0.  0.
         12    1    1    2    0    0  0.59731324423E+00 -0.94252679893E+00  0.38463214300E+00  0.11802888476E+01  0.00000000000E+00 0. -1.
         11    1    3    3    0    0 -0.31904549147E+02  0.21155837211E+01  0.18633166890E+02  0.37007713512E+02  0.51100000000E-03 0. -1.
        -11    1    3    3    0    0 -0.70814501707E+00 -0.45008670199E+01  0.91537966497E+01  0.10225031377E+02  0.51100000000E-03 0.  1.
        -12    1    3    3    0    0  0.32015380920E+02  0.33278100977E+01 -0.28171595683E+02  0.42774966263E+02  0.00000000000E+00 0.  1.
</event>
<event>
 7    1  0.2090370E-015  0.9000778E+02  0.7816164E-02  0.1186339E+00
        -11   -1    0    0    0    0  0.00000000000E+00  0.00000000000E+00  0.45593999997E+02  0.45594000000E+02  0.51100000000E-03 0.  1.
         11   -1    0    0    0    0 -0.00000000000E+00 -0.00000000000E+00 -0.45593999997E+02  0.45594000000E+02  0.51100000000E-03 0. -1.
    9900012    2    1    2    0    0 -0.66886735846E+00 -0.56080159144E-01  0.97076827415E+00  0.90007779864E+02  0.90000041758E+02 0.  0.
         12    1    1    2    0    0  0.66886735846E+00  0.56080159144E-01 -0.97076827415E+00  0.11802201361E+01  0.00000000000E+00 0. -1.
         11    1    3    3    0    0 -0.59775192696E+01 -0.81066114149E+01 -0.28574646674E+00  0.10076186608E+02  0.51100000000E-03 0. -1.
        -11    1    3    3    0    0 -0.26470976103E+02  0.14771191655E+01  0.27497825710E+02  0.38197184136E+02  0.51100000000E-03 0.  1.
         12    1    3    3    0    0  0.31779628014E+02  0.65734120903E+01 -0.26241310969E+02  0.41734409120E+02  0.00000000000E+00 0. -1.
</event>
<event>
 7    1  0.2090370E-015  0.9000772E+02  0.7816164E-02  0.1186339E+00
        -11   -1    0    0    0    0  0.00000000000E+00  0.00000000000E+00  0.45593999997E+02  0.45594000000E+02  0.51100000000E-03 0. -1.
         11   -1    0    0    0    0 -0.00000000000E+00 -0.00000000000E+00 -0.45593999997E+02  0.45594000000E+02  0.51100000000E-03 0.  1.
    9900012    2    1    2    0    0 -0.60997148573E+00  0.94359424261E+00  0.36141265558E+00  0.90007722738E+02  0.89999983878E+02 0.  0.
         12    1    1    2    0    0  0.60997148573E+00 -0.94359424261E+00 -0.36141265558E+00  0.11802772622E+01  0.00000000000E+00 0. -1.
         11    1    3    3    0    0  0.10287517118E+02  0.36302219236E+02  0.20881937655E+02  0.43124696525E+02  0.51100000000E-03 0. -1.
        -11    1    3    3    0    0 -0.27348348013E+01 -0.10193281028E+02  0.35305077548E+01  0.11128647032E+02  0.51100000000E-03 0.  1.
        -12    1    3    3    0    0 -0.81626538027E+01 -0.25165343966E+02 -0.24051032754E+02  0.35754379180E+02  0.00000000000E+00 0.  1.
</event>
<event>
 7    1  0.2090370E-015  0.9000776E+02  0.7816164E-02  0.1186339E+00
        -11   -1    0    0    0    0  0.00000000000E+00  0.00000000000E+00  0.45593999997E+02  0.45594000000E+02  0.51100000000E-03 0. -1.
         11   -1    0    0    0    0 -0.00000000000E+00 -0.00000000000E+00 -0.45593999997E+02  0.45594000000E+02  0.51100000000E-03 0.  1.
    9900012    2    1    2    0    0 -0.58351347321E+00  0.16864909682E-01 -0.10257642935E+01  0.90007760709E+02  0.90000022350E+02 0.  0.
         12    1    1    2    0    0  0.58351347321E+00 -0.16864909682E-01  0.10257642935E+01  0.11802392912E+01  0.00000000000E+00 0. -1.
         11    1    3    3    0    0 -0.96043369338E+01 -0.86049752693E+00 -0.59924003095E+01  0.11353087935E+02  0.51100000000E-03 0. -1.
        -11    1    3    3    0    0 -0.13337537724E+02 -0.26493635064E+02 -0.19654074781E+02  0.35582091946E+02  0.51100000000E-03 0.  1.
         12    1    3    3    0    0  0.22358361184E+02  0.27370997501E+02  0.24620710797E+02  0.43072580828E+02  0.00000000000E+00 0. -1.
</event>
<event>
 7    1  0.2090370E-015  0.9000771E+02  0.7816164E-02  0.1186339E+00
        -11   -1    0    0    0    0  0.00000000000E+00  0.00000000000E+00  0.45593999997E+02  0.45594000000E+02  0.51100000000E-03 0.  1.
         11   -1    0    0    0    0 -0.00000000000E+00 -0.00000000000E+00 -0.45593999997E+02  0.45594000000E+02  0.51100000000E-03 0. -1.
    9900012    2    1    2    0    0  0.24660063922E+00 -0.73257611083E+00 -0.89196787265E+00  0.90007709223E+02  0.89999970184E+02 0.  0.
         12    1    1    2    0    0 -0.24660063922E+00  0.73257611083E+00  0.89196787265E+00  0.11802907774E+01  0.00000000000E+00 0. -1.
         11    1    3    3    0    0 -0.11822870364E+02 -0.27568064250E+02  0.73380263386E+01  0.30880820277E+02  0.51100000000E-03 0. -1.
        -11    1    3    3    0    0 -0.73792657478E+01 -0.12229803172E+02 -0.58129033347E+01  0.15421137897E+02  0.51100000000E-03 0.  1.
        -12    1    3    3    0    0  0.19448736751E+02  0.39065291311E+02 -0.24170908766E+01  0.43705751049E+02  0.00000000000E+00 0.  1.
</event>
<event>
 7    1  0.2233996E-015  0.9000763E+02  0.7816164E-02  0.1186339E+00
        -11   -1    0    0    0    0  0.00000000000E+00  0.00000000000E+00  0.45593999997E+02  0.45594000000E+02  0.51100000000E-03 0. -1.
         11   -1    0    0    0    0 -0.00000000000E+00 -0.00000000000E+00 -0.45593999997E+02  0.45594000000E+02  0.51100000000E-03 0.  1.
    9900012    2    1    2    0    0 -0.68841536428E+00  0.59609424284E+00 -0.75101930051E+00  0.90007629698E+02  0.89999889610E+02 0.  0.
         12    1    1    2    0    0  0.68841536428E+00 -0.59609424284E+00  0.75101930051E+00  0.11803703020E+01  0.00000000000E+00 0. -1.
         11    1    3    3    0    0  0.18730434561E+02  0.70421276848E+01  0.35337106339E+02  0.40609504132E+02  0.51100000000E-03 0. -1.
        -11    1    3    3    0    0 -0.91458393403E+01  0.50103215648E-01  0.20475146822E+01  0.93723638537E+01  0.51100000000E-03 0.  1.
        -12    1    3    3    0    0 -0.10273010585E+02 -0.64961366577E+01 -0.38135640321E+02  0.40025761713E+02  0.00000000000E+00 0.  1.
</event>
<event>
 7    1  0.2090370E-015  0.9000781E+02  0.7816164E-02  0.1186339E+00
        -11   -1    0    0    0    0  0.00000000000E+00  0.00000000000E+00  0.45593999997E+02  0.45594000000E+02  0.51100000000E-03 0. -1.
         11   -1    0    0    0    0 -0.00000000000E+00 -0.00000000000E+00 -0.45593999997E+02  0.45594000000E+02  0.51100000000E-03 0.  1.
    9900012    2    1    2    0    0 -0.60648600266E+00  0.99452099079E+00 -0.18957734703E+00  0.90007814912E+02  0.90000077268E+02 0.  0.
         12    1    1    2    0    0  0.60648600266E+00 -0.99452099079E+00  0.18957734703E+00  0.11801850885E+01  0.00000000000E+00 0. -1.
         11    1    3    3    0    0  0.10552716899E+02  0.24082816302E+02  0.27511845787E+02  0.38055795010E+02  0.51100000000E-03 0. -1.
        -11    1    3    3    0    0 -0.21088833441E+01 -0.54209672301E+01  0.87143477776E+01  0.10477315120E+02  0.51100000000E-03 0.  1.
        -12    1    3    3    0    0 -0.90503195580E+01 -0.17667328082E+02 -0.36415770911E+02  0.41474704781E+02  0.00000000000E+00 0.  1.
</event>
<event>
 7    1  0.2090370E-015  0.9000776E+02  0.7816164E-02  0.1186339E+00
        -11   -1    0    0    0    0  0.00000000000E+00  0.00000000000E+00  0.45593999997E+02  0.45594000000E+02  0.51100000000E-03 0. -1.
         11   -1    0    0    0    0 -0.00000000000E+00 -0.00000000000E+00 -0.45593999997E+02  0.45594000000E+02  0.51100000000E-03 0.  1.
    9900012    2    1    2    0    0  0.27201931809E+00 -0.63847548567E+00 -0.95462570158E+00  0.90007764564E+02  0.90000026256E+02 0.  0.
         12    1    1    2    0    0 -0.27201931809E+00  0.63847548567E+00  0.95462570158E+00  0.11802354364E+01  0.00000000000E+00 0. -1.
         11    1    3    3    0    0  0.56011481860E+00  0.66881106610E+01 -0.55672913312E+01  0.87200507941E+01  0.51100000000E-03 0. -1.
        -11    1    3    3    0    0 -0.14932519920E+02  0.18233510677E+02 -0.28490652238E+02  0.36975104164E+02  0.51100000000E-03 0.  1.
         12    1    3    3    0    0  0.14644424419E+02 -0.25560096823E+02  0.33103317867E+02  0.44312609605E+02  0.00000000000E+00 0. -1.
</event>
<event>
 7    1  0.2090370E-015  0.9000777E+02  0.7816164E-02  0.1186339E+00
        -11   -1    0    0    0    0  0.00000000000E+00  0.00000000000E+00  0.45593999997E+02  0.45594000000E+02  0.51100000000E-03 0.  1.
         11   -1    0    0    0    0 -0.00000000000E+00 -0.00000000000E+00 -0.45593999997E+02  0.45594000000E+02  0.51100000000E-03 0. -1.
    9900012    2    1    2    0    0 -0.11505464171E+01 -0.32852398554E-01  0.26097053515E+00  0.90007770379E+02  0.90000032148E+02 0.  0.
         12    1    1    2    0    0  0.11505464171E+01  0.32852398554E-01 -0.26097053515E+00  0.11802296209E+01  0.00000000000E+00 0. -1.
         11    1    3    3    0    0  0.23335404570E+01 -0.65844799287E+01  0.59694268048E+01  0.91888434329E+01  0.51100000000E-03 0. -1.
        -11    1    3    3    0    0 -0.14413585188E+02 -0.26509889660E+02  0.21144823386E+02  0.36846020736E+02  0.51100000000E-03 0.  1.
         12    1    3    3    0    0  0.10929498314E+02  0.33061517190E+02 -0.26853279656E+02  0.43972906210E+02  0.00000000000E+00 0. -1.
</event>
<event>
 7    1  0.2090370E-015  0.9000773E+02  0.7816164E-02  0.1186339E+00
        -11   -1    0    0    0    0  0.00000000000E+00  0.00000000000E+00  0.45593999997E+02  0.45594000000E+02  0.51100000000E-03 0.  1.
         11   -1    0    0    0    0 -0.00000000000E+00 -0.00000000000E+00 -0.45593999997E+02  0.45594000000E+02  0.51100000000E-03 0. -1.
    9900012    2    1    2    0    0 -0.11455268249E+01  0.11281412460E+00 -0.26091286064E+00  0.90007731279E+02  0.89999992532E+02 0.  0.
         12    1    1    2    0    0  0.11455268249E+01 -0.11281412460E+00  0.26091286064E+00  0.11802687211E+01  0.00000000000E+00 0. -1.
         11    1    3    3    0    0  0.37845329460E+02 -0.49072686498E+01 -0.15043407615E+02  0.41020170167E+02  0.51100000000E-03 0. -1.
        -11    1    3    3    0    0 -0.88323097355E+00  0.71607377988E+01  0.69633008757E+01  0.10027154239E+02  0.51100000000E-03 0.  1.
        -12    1    3    3    0    0 -0.38107625312E+02 -0.21406550244E+01  0.78191938788E+01  0.38960406874E+02  0.00000000000E+00 0.  1.
</event>
<event>
 7    1  0.2090370E-015  0.9000781E+02  0.7816164E-02  0.1186339E+00
        -11   -1    0    0    0    0  0.00000000000E+00  0.00000000000E+00  0.45593999997E+02  0.45594000000E+02  0.51100000000E-03 0.  1.
         11   -1    0    0    0    0 -0.00000000000E+00 -0.00000000000E+00 -0.45593999997E+02  0.45594000000E+02  0.51100000000E-03 0. -1.
    9900012    2    1    2    0    0 -0.71116725273E+00 -0.15346902393E-01 -0.94173194060E+00  0.90007807881E+02  0.90000070145E+02 0.  0.
         12    1    1    2    0    0  0.71116725273E+00  0.15346902393E-01  0.94173194060E+00  0.11801921186E+01  0.00000000000E+00 0. -1.
         11    1    3    3    0    0  0.86069501221E+01  0.36162235734E+01  0.73504868378E-01  0.93360626906E+01  0.51100000000E-03 0. -1.
        -11    1    3    3    0    0 -0.56019702816E+01  0.26793517223E+01  0.39253899895E+02  0.39742038875E+02  0.51100000000E-03 0.  1.
         12    1    3    3    0    0 -0.37161470932E+01 -0.63109221980E+01 -0.40269136704E+02  0.40929706316E+02  0.00000000000E+00 0. -1.
</event>
<event>
 7    1  0.2090370E-015  0.9000776E+02  0.7816164E-02  0.1186339E+00
        -11   -1    0    0    0    0  0.00000000000E+00  0.00000000000E+00  0.45593999997E+02  0.45594000000E+02  0.51100000000E-03 0.  1.
         11   -1    0    0    0    0 -0.00000000000E+00 -0.00000000000E+00 -0.45593999997E+02  0.45594000000E+02  0.51100000000E-03 0. -1.
    9900012    2    1    2    0    0 -0.93428414589E+00 -0.12342492998E+00  0.71052401064E+00  0.90007760639E+02  0.90000022280E+02 0.  0.
         12    1    1    2    0    0  0.93428414589E+00  0.12342492998E+00 -0.71052401064E+00  0.11802393606E+01  0.00000000000E+00 0. -1.
         11    1    3    3    0    0 -0.10384769239E+02 -0.52204150826E+01 -0.18423621910E+00  0.11624547691E+02  0.51100000000E-03 0. -1.
        -11    1    3    3    0    0 -0.12306881317E+02 -0.13803116856E+02  0.31384872910E+02  0.36427950951E+02  0.51100000000E-03 0.  1.
         12    1    3    3    0    0  0.21757366410E+02  0.18900107009E+02 -0.30490112680E+02  0.41955261997E+02  0.00000000000E+00 0. -1.
</event>
<event>
 7    1  0.2090370E-015  0.9000772E+02  0.7816164E-02  0.1186339E+00
        -11   -1    0    0    0    0  0.00000000000E+00  0.00000000000E+00  0.45593999997E+02  0.45594000000E+02  0.51100000000E-03 0. -1.
         11   -1    0    0    0    0 -0.00000000000E+00 -0.00000000000E+00 -0.45593999997E+02  0.45594000000E+02  0.51100000000E-03 0.  1.
    9900012    2    1    2    0    0  0.48401773015E-01 -0.14080250926E+00 -0.11708488414E+01  0.90007722453E+02  0.89999983590E+02 0.  0.
         12    1    1    2    0    0 -0.48401773015E-01  0.14080250926E+00  0.11708488414E+01  0.11802775469E+01  0.00000000000E+00 0. -1.
         11    1    3    3    0    0 -0.25178357767E+01  0.37427388030E+02  0.49259277094E+01  0.37834027486E+02  0.51100000000E-03 0. -1.
        -11    1    3    3    0    0 -0.39789264762E+01  0.49366543579E+01  0.46290541696E+01  0.78505130354E+01  0.51100000000E-03 0.  1.
        -12    1    3    3    0    0  0.65451640258E+01 -0.42504844898E+02 -0.10725830720E+02  0.44323181931E+02  0.00000000000E+00 0.  1.
</event>
<event>
 7    1  0.2090370E-015  0.9000763E+02  0.7816164E-02  0.1186339E+00
        -11   -1    0    0    0    0  0.00000000000E+00  0.00000000000E+00  0.45593999997E+02  0.45594000000E+02  0.51100000000E-03 0. -1.
         11   -1    0    0    0    0 -0.00000000000E+00 -0.00000000000E+00 -0.45593999997E+02  0.45594000000E+02  0.51100000000E-03 0.  1.
    9900012    2    1    2    0    0  0.11312413578E+01  0.22902168578E+00  0.24721921052E+00  0.90007629177E+02  0.89999889082E+02 0.  0.
         12    1    1    2    0    0 -0.11312413578E+01 -0.22902168578E+00 -0.24721921052E+00  0.11803708231E+01  0.00000000000E+00 0. -1.
         11    1    3    3    0    0 -0.25840949157E+01  0.70986363609E+01 -0.55209553247E+01  0.93567693504E+01  0.51100000000E-03 0. -1.
        -11    1    3    3    0    0 -0.30609523491E+02 -0.20588856898E+02 -0.13102815096E+02  0.39147512315E+02  0.51100000000E-03 0.  1.
         12    1    3    3    0    0  0.34324859765E+02  0.13719242223E+02  0.18870989631E+02  0.41503347512E+02  0.00000000000E+00 0. -1.
</event>
<event>
 7    1  0.2090370E-015  0.9000768E+02  0.7816164E-02  0.1186339E+00
        -11   -1    0    0    0    0  0.00000000000E+00  0.00000000000E+00  0.45593999997E+02  0.45594000000E+02  0.51100000000E-03 0.  1.
         11   -1    0    0    0    0 -0.00000000000E+00 -0.00000000000E+00 -0.45593999997E+02  0.45594000000E+02  0.51100000000E-03 0. -1.
    9900012    2    1    2    0    0 -0.11333003411E+01  0.17572267306E+00  0.27909809795E+00  0.90007684843E+02  0.89999945483E+02 0.  0.
         12    1    1    2    0    0  0.11333003411E+01 -0.17572267306E+00 -0.27909809795E+00  0.11803151567E+01  0.00000000000E+00 0. -1.
         11    1    3    3    0    0  0.20879800611E+02 -0.27423638793E+01 -0.32872299060E+02  0.39039399060E+02  0.51100000000E-03 0. -1.
        -11    1    3    3    0    0  0.69480068512E+01  0.48061516920E+01  0.26234882029E+01  0.88462751428E+01  0.51100000000E-03 0.  1.
        -12    1    3    3    0    0 -0.28961107804E+02 -0.18880651396E+01  0.30527908955E+02  0.42122010640E+02  0.00000000000E+00 0.  1.
</event>
<event>
 7    1  0.2090370E-015  0.9000795E+02  0.7816164E-02  0.1186339E+00
        -11   -1    0    0    0    0  0.00000000000E+00  0.00000000000E+00  0.45593999997E+02  0.45594000000E+02  0.51100000000E-03 0.  1.
         11   -1    0    0    0    0 -0.00000000000E+00 -0.00000000000E+00 -0.45593999997E+02  0.45594000000E+02  0.51100000000E-03 0. -1.
    9900012    2    1    2    0    0 -0.77366370418E+00 -0.30684757087E+00  0.83654279353E+00  0.90007951355E+02  0.90000215513E+02 0.  0.
         12    1    1    2    0    0  0.77366370418E+00  0.30684757087E+00 -0.83654279353E+00  0.11800486449E+01  0.00000000000E+00 0. -1.
         11    1    3    3    0    0  0.24207105775E+01  0.34758232623E+02 -0.93344742862E+01  0.36071137843E+02  0.51100000000E-03 0. -1.
        -11    1    3    3    0    0  0.50303941212E+01  0.78138360316E+01  0.22830525251E+01  0.95693901392E+01  0.51100000000E-03 0.  1.
        -12    1    3    3    0    0 -0.82247684028E+01 -0.42878916226E+02  0.78879645546E+01  0.44367423373E+02  0.00000000000E+00 0.  1.
</event>
<event>
 7    1  0.2090370E-015  0.9000771E+02  0.7816164E-02  0.1186339E+00
        -11   -1    0    0    0    0  0.00000000000E+00  0.00000000000E+00  0.45593999997E+02  0.45594000000E+02  0.51100000000E-03 0.  1.
         11   -1    0    0    0    0 -0.00000000000E+00 -0.00000000000E+00 -0.45593999997E+02  0.45594000000E+02  0.51100000000E-03 0. -1.
    9900012    2    1    2    0    0 -0.36454003772E+00 -0.93949885556E+00  0.61444419581E+00  0.90007707999E+02  0.89999968944E+02 0.  0.
         12    1    1    2    0    0  0.36454003772E+00  0.93949885556E+00 -0.61444419581E+00  0.11802920014E+01  0.00000000000E+00 0. -1.
         11    1    3    3    0    0  0.26483272915E+02  0.24073793269E+02 -0.72072513727E+01  0.36508296855E+02  0.51100000000E-03 0. -1.
        -11    1    3    3    0    0  0.43759287434E+01  0.11028807293E+01  0.11767013842E+02  0.12602686749E+02  0.51100000000E-03 0.  1.
        -12    1    3    3    0    0 -0.31223741696E+02 -0.26116172854E+02 -0.39453182731E+01  0.40896724395E+02  0.00000000000E+00 0.  1.
</event>
<event>
 7    1  0.2090370E-015  0.9000772E+02  0.7816164E-02  0.1186339E+00
        -11   -1    0    0    0    0  0.00000000000E+00  0.00000000000E+00  0.45593999997E+02  0.45594000000E+02  0.51100000000E-03 0.  1.
         11   -1    0    0    0    0 -0.00000000000E+00 -0.00000000000E+00 -0.45593999997E+02  0.45594000000E+02  0.51100000000E-03 0. -1.
    9900012    2    1    2    0    0 -0.22190517909E+00  0.48030147316E+00  0.10550540015E+01  0.90007715983E+02  0.89999977034E+02 0.  0.
         12    1    1    2    0    0  0.22190517909E+00 -0.48030147316E+00 -0.10550540015E+01  0.11802840166E+01  0.00000000000E+00 0. -1.
         11    1    3    3    0    0 -0.47880341689E+01  0.23041869213E+02 -0.27596737477E+02  0.36268897525E+02  0.51100000000E-03 0. -1.
        -11    1    3    3    0    0  0.44315484417E+01  0.39786969025E+01 -0.70651898755E+01  0.92404306648E+01  0.51100000000E-03 0.  1.
        -12    1    3    3    0    0  0.13458054806E+00 -0.26540264642E+02  0.35716981354E+02  0.44498387794E+02  0.00000000000E+00 0.  1.
</event>
<event>
 7    1  0.2090370E-015  0.9000781E+02  0.7816164E-02  0.1186339E+00
        -11   -1    0    0    0    0  0.00000000000E+00  0.00000000000E+00  0.45593999997E+02  0.45594000000E+02  0.51100000000E-03 0.  1.
         11   -1    0    0    0    0 -0.00000000000E+00 -0.00000000000E+00 -0.45593999997E+02  0.45594000000E+02  0.51100000000E-03 0. -1.
    9900012    2    1    2    0    0 -0.55318950771E+00 -0.96526404490E+00  0.39382719245E+00  0.90007807996E+02  0.90000070262E+02 0.  0.
         12    1    1    2    0    0  0.55318950771E+00  0.96526404490E+00 -0.39382719245E+00  0.11801920036E+01  0.00000000000E+00 0. -1.
         11    1    3    3    0    0  0.11456166580E+02  0.33322084769E+01 -0.86291637097E+01  0.14724463747E+02  0.51100000000E-03 0. -1.
        -11    1    3    3    0    0  0.96677495916E+01 -0.58615354614E+00  0.37824729996E+02  0.39045091339E+02  0.51100000000E-03 0.  1.
         12    1    3    3    0    0 -0.21677105680E+02 -0.37113189756E+01 -0.28801739094E+02  0.36238252910E+02  0.00000000000E+00 0. -1.
</event>
<event>
 7    1  0.2090370E-015  0.9000773E+02  0.7816164E-02  0.1186339E+00
        -11   -1    0    0    0    0  0.00000000000E+00  0.00000000000E+00  0.45593999997E+02  0.45594000000E+02  0.51100000000E-03 0.  1.
         11   -1    0    0    0    0 -0.00000000000E+00 -0.00000000000E+00 -0.45593999997E+02  0.45594000000E+02  0.51100000000E-03 0. -1.
    9900012    2    1    2    0    0 -0.26138184190E+00 -0.10884815597E+01 -0.37407967139E+00  0.90007725382E+02  0.89999986557E+02 0.  0.
         12    1    1    2    0    0  0.26138184190E+00  0.10884815597E+01  0.37407967139E+00  0.11802746179E+01  0.00000000000E+00 0. -1.
         11    1    3    3    0    0 -0.13083368024E+02 -0.40165654062E+02  0.26920458571E+01  0.42328493905E+02  0.51100000000E-03 0. -1.
        -11    1    3    3    0    0  0.33840901971E+01  0.17276823323E+01 -0.79850714369E+01  0.88429813308E+01  0.51100000000E-03 0.  1.
        -12    1    3    3    0    0  0.94378959851E+01  0.37349490170E+02  0.49189459084E+01  0.38836250147E+02  0.00000000000E+00 0.  1.
</event>
<event>
 7    1  0.2090370E-015  0.9000756E+02  0.7816164E-02  0.1186339E+00
        -11   -1    0    0    0    0  0.00000000000E+00  0.00000000000E+00  0.45593999997E+02  0.45594000000E+02  0.51100000000E-03 0.  1.
         11   -1    0    0    0    0 -0.00000000000E+00 -0.00000000000E+00 -0.45593999997E+02  0.45594000000E+02  0.51100000000E-03 0. -1.
    9900012    2    1    2    0    0 -0.62450339081E+00  0.28764871181E+00  0.95953054600E+00  0.90007557229E+02  0.89999816184E+02 0.  0.
         12    1    1    2    0    0  0.62450339081E+00 -0.28764871181E+00 -0.95953054600E+00  0.11804427709E+01  0.00000000000E+00 0. -1.
         11    1    3    3    0    0  0.20435378447E+01  0.36822390967E+01 -0.40324013990E+02  0.40543322955E+02  0.51100000000E-03 0. -1.
        -11    1    3    3    0    0 -0.56078909095E+01 -0.94700014643E+01  0.42136350448E+01  0.11784909365E+02  0.51100000000E-03 0.  1.
        -12    1    3    3    0    0  0.29398496739E+01  0.60754110794E+01  0.37069909492E+02  0.37679324909E+02  0.00000000000E+00 0.  1.
</event>
<event>
 7    1  0.2090370E-015  0.9000768E+02  0.7816164E-02  0.1186339E+00
        -11   -1    0    0    0    0  0.00000000000E+00  0.00000000000E+00  0.45593999997E+02  0.45594000000E+02  0.51100000000E-03 0.  1.
         11   -1    0    0    0    0 -0.00000000000E+00 -0.00000000000E+00 -0.45593999997E+02  0.45594000000E+02  0.51100000000E-03 0. -1.
    9900012    2    1    2    0    0  0.20185118824E+00  0.73413230806E+00  0.90192139976E+00  0.90007679552E+02  0.89999940122E+02 0.  0.
         12    1    1    2    0    0 -0.20185118824E+00 -0.73413230806E+00 -0.90192139976E+00  0.11803204477E+01  0.00000000000E+00 0. -1.
         11    1    3    3    0    0  0.72515161501E+01  0.69567928976E+01 -0.26924348539E+01  0.10403396541E+02  0.51100000000E-03 0. -1.
        -11    1    3    3    0    0  0.18227752025E+02 -0.31195163485E+00  0.34634706326E+02  0.39139636435E+02  0.51100000000E-03 0.  1.
         12    1    3    3    0    0 -0.25277416987E+02 -0.59107089547E+01 -0.31040350073E+02  0.40464646576E+02  0.00000000000E+00 0. -1.
</event>
<event>
 7    1  0.2090370E-015  0.9000773E+02  0.7816164E-02  0.1186339E+00
        -11   -1    0    0    0    0  0.00000000000E+00  0.00000000000E+00  0.45593999997E+02  0.45594000000E+02  0.51100000000E-03 0. -1.
         11   -1    0    0    0    0 -0.00000000000E+00 -0.00000000000E+00 -0.45593999997E+02  0.45594000000E+02  0.51100000000E-03 0.  1.
    9900012    2    1    2    0    0  0.52985619217E+00  0.75985850539E+00 -0.73137911031E+00  0.90007725483E+02  0.89999986659E+02 0.  0.
         12    1    1    2    0    0 -0.52985619217E+00 -0.75985850539E+00  0.73137911031E+00  0.11802745170E+01  0.00000000000E+00 0. -1.
         11    1    3    3    0    0 -0.76560847317E+01 -0.50663277733E+01  0.37838326361E+01  0.99297885277E+01  0.51100000000E-03 0. -1.
        -11    1    3    3    0    0 -0.21028910022E+02  0.44212712120E+01 -0.32915926638E+02  0.39309298169E+02  0.51100000000E-03 0.  1.
         12    1    3    3    0    0  0.29214850946E+02  0.14049150667E+01  0.28400714892E+02  0.40768638786E+02  0.00000000000E+00 0. -1.
</event>
<event>
 7    1  0.2090370E-015  0.9000771E+02  0.7816164E-02  0.1186339E+00
        -11   -1    0    0    0    0  0.00000000000E+00  0.00000000000E+00  0.45593999997E+02  0.45594000000E+02  0.51100000000E-03 0. -1.
         11   -1    0    0    0    0 -0.00000000000E+00 -0.00000000000E+00 -0.45593999997E+02  0.45594000000E+02  0.51100000000E-03 0.  1.
    9900012    2    1    2    0    0  0.76697304608E+00 -0.10928813635E+00 -0.89045066167E+00  0.90007705998E+02  0.89999966917E+02 0.  0.
         12    1    1    2    0    0 -0.76697304608E+00  0.10928813635E+00  0.89045066167E+00  0.11802940019E+01  0.00000000000E+00 0. -1.
         11    1    3    3    0    0  0.92110877387E+01  0.26049692985E+02  0.22000342656E+02  0.35319197601E+02  0.51100000000E-03 0. -1.
        -11    1    3    3    0    0 -0.34063572409E+01  0.89763238100E+01  0.37510787349E+01  0.10307679212E+02  0.51100000000E-03 0.  1.
        -12    1    3    3    0    0 -0.50377574518E+01 -0.35135304931E+02 -0.26641872052E+02  0.44380829186E+02  0.00000000000E+00 0.  1.
</event>
<event>
 7    1  0.2090370E-015  0.9000779E+02  0.7816164E-02  0.1186339E+00
        -11   -1    0    0    0    0  0.00000000000E+00  0.00000000000E+00  0.45593999997E+02  0.45594000000E+02  0.51100000000E-03 0.  1.
         11   -1    0    0    0    0 -0.00000000000E+00 -0.00000000000E+00 -0.45593999997E+02  0.45594000000E+02  0.51100000000E-03 0. -1.
    9900012    2    1    2    0    0  0.30592427277E+00 -0.11360833210E+01 -0.92801835477E-01  0.90007793597E+02  0.90000055673E+02 0.  0.
         12    1    1    2    0    0 -0.30592427277E+00  0.11360833210E+01  0.92801835477E-01  0.11802064029E+01  0.00000000000E+00 0. -1.
         11    1    3    3    0    0  0.18832759208E+02 -0.38049287140E+02  0.79068408708E+01  0.43184941867E+02  0.51100000000E-03 0. -1.
        -11    1    3    3    0    0 -0.13091695318E+02  0.87974962389E+01 -0.90170850408E+01  0.18168551105E+02  0.51100000000E-03 0.  1.
        -12    1    3    3    0    0 -0.54351396167E+01  0.28115707580E+02  0.10174423345E+01  0.28654300625E+02  0.00000000000E+00 0.  1.
</event>
<event>
 7    1  0.2090370E-015  0.9000771E+02  0.7816164E-02  0.1186339E+00
        -11   -1    0    0    0    0  0.00000000000E+00  0.00000000000E+00  0.45593999997E+02  0.45594000000E+02  0.51100000000E-03 0.  1.
         11   -1    0    0    0    0 -0.00000000000E+00 -0.00000000000E+00 -0.45593999997E+02  0.45594000000E+02  0.51100000000E-03 0. -1.
    9900012    2    1    2    0    0 -0.92889025453E+00 -0.80529468434E-01  0.72371665148E+00  0.90007708556E+02  0.89999969509E+02 0.  0.
         12    1    1    2    0    0  0.92889025453E+00  0.80529468434E-01 -0.72371665148E+00  0.11802914436E+01  0.00000000000E+00 0. -1.
         11    1    3    3    0    0  0.36619408294E+02  0.14359289416E+02  0.98203580043E+01  0.40541456411E+02  0.51100000000E-03 0. -1.
        -11    1    3    3    0    0 -0.25058070788E+01 -0.37042768885E+01  0.78913126750E+01  0.90704769653E+01  0.51100000000E-03 0.  1.
        -12    1    3    3    0    0 -0.35042491470E+02 -0.10735541996E+02 -0.16987954028E+02  0.40395775180E+02  0.00000000000E+00 0.  1.
</event>
<event>
 7    1  0.2090370E-015  0.9000775E+02  0.7816164E-02  0.1186339E+00
        -11   -1    0    0    0    0  0.00000000000E+00  0.00000000000E+00  0.45593999997E+02  0.45594000000E+02  0.51100000000E-03 0. -1.
         11   -1    0    0    0    0 -0.00000000000E+00 -0.00000000000E+00 -0.45593999997E+02  0.45594000000E+02  0.51100000000E-03 0.  1.
    9900012    2    1    2    0    0 -0.68144687234E+00  0.15466765617E+00 -0.95115204506E+00  0.90007753358E+02  0.90000014902E+02 0.  0.
         12    1    1    2    0    0  0.68144687234E+00 -0.15466765617E+00  0.95115204506E+00  0.11802466422E+01  0.00000000000E+00 0. -1.
         11    1    3    3    0    0 -0.46798313856E+01  0.88378611540E+00  0.89633184972E+01  0.10150023568E+02  0.51100000000E-03 0. -1.
        -11    1    3    3    0    0 -0.30236026691E+02 -0.94259060049E+01 -0.26065999585E+02  0.41018305044E+02  0.51100000000E-03 0.  1.
         12    1    3    3    0    0  0.34234411205E+02  0.86967875457E+01  0.16151529042E+02  0.38839424745E+02  0.00000000000E+00 0. -1.
</event>
<event>
 7    1  0.2090370E-015  0.9000771E+02  0.7816164E-02  0.1186339E+00
        -11   -1    0    0    0    0  0.00000000000E+00  0.00000000000E+00  0.45593999997E+02  0.45594000000E+02  0.51100000000E-03 0.  1.
         11   -1    0    0    0    0 -0.00000000000E+00 -0.00000000000E+00 -0.45593999997E+02  0.45594000000E+02  0.51100000000E-03 0. -1.
    9900012    2    1    2    0    0  0.62229311102E-01 -0.57037327982E+00  0.10314500863E+01  0.90007708745E+02  0.89999969701E+02 0.  0.
         12    1    1    2    0    0 -0.62229311102E-01  0.57037327982E+00 -0.10314500863E+01  0.11802912548E+01  0.00000000000E+00 0. -1.
         11    1    3    3    0    0 -0.35552390725E+01 -0.68722181583E+01 -0.33267394064E+01  0.84222504485E+01  0.51100000000E-03 0. -1.
        -11    1    3    3    0    0 -0.25453265693E+02  0.32515844915E+02 -0.42316156757E+01  0.41509703401E+02  0.51100000000E-03 0.  1.
         12    1    3    3    0    0  0.29070734076E+02 -0.26214000036E+02  0.85898051684E+01  0.40075754896E+02  0.00000000000E+00 0. -1.
</event>
<event>
 7    1  0.2090370E-015  0.9000744E+02  0.7816164E-02  0.1186340E+00
        -11   -1    0    0    0    0  0.00000000000E+00  0.00000000000E+00  0.45593999997E+02  0.45594000000E+02  0.51100000000E-03 0.  1.
         11   -1    0    0    0    0 -0.00000000000E+00 -0.00000000000E+00 -0.45593999997E+02  0.45594000000E+02  0.51100000000E-03 0. -1.
    9900012    2    1    2    0    0 -0.90108583409E-01 -0.10874388074E+01 -0.45065222754E+00  0.90007436513E+02  0.89999693874E+02 0.  0.
         12    1    1    2    0    0  0.90108583409E-01  0.10874388074E+01  0.45065222754E+00  0.11805634870E+01  0.00000000000E+00 0. -1.
         11    1    3    3    0    0 -0.34673682697E+01  0.99037859466E+01 -0.16143062098E+01  0.10616666313E+02  0.51100000000E-03 0. -1.
        -11    1    3    3    0    0 -0.27048682294E+02 -0.74370898714E+01  0.27284740383E+02  0.39133088015E+02  0.51100000000E-03 0.  1.
         12    1    3    3    0    0  0.30425941980E+02 -0.35541348826E+01 -0.26121086401E+02  0.40257682185E+02  0.00000000000E+00 0. -1.
</event>
<event>
 7    1  0.2090370E-015  0.9000740E+02  0.7816164E-02  0.1186340E+00
        -11   -1    0    0    0    0  0.00000000000E+00  0.00000000000E+00  0.45593999997E+02  0.45594000000E+02  0.51100000000E-03 0. -1.
         11   -1    0    0    0    0 -0.00000000000E+00 -0.00000000000E+00 -0.45593999997E+02  0.45594000000E+02  0.51100000000E-03 0.  1.
    9900012    2    1    2    0    0  0.33198627602E+00 -0.10489642271E+01 -0.42809820115E+00  0.90007403156E+02  0.89999660077E+02 0.  0.
         12    1    1    2    0    0 -0.33198627602E+00  0.10489642271E+01  0.42809820115E+00  0.11805968436E+01  0.00000000000E+00 0. -1.
         11    1    3    3    0    0 -0.21721648636E+02  0.25022317915E+02 -0.76208220971E+01  0.34000343277E+02  0.51100000000E-03 0. -1.
        -11    1    3    3    0    0 -0.55379593831E+01  0.10464300932E+01 -0.11675288032E+02  0.12964426750E+02  0.51100000000E-03 0.  1.
        -12    1    3    3    0    0  0.27591594295E+02 -0.27117712235E+02  0.18868011928E+02  0.43042633129E+02  0.00000000000E+00 0.  1.
</event>
<event>
 7    1  0.2090370E-015  0.9000782E+02  0.7816164E-02  0.1186339E+00
        -11   -1    0    0    0    0  0.00000000000E+00  0.00000000000E+00  0.45593999997E+02  0.45594000000E+02  0.51100000000E-03 0.  1.
         11   -1    0    0    0    0 -0.00000000000E+00 -0.00000000000E+00 -0.45593999997E+02  0.45594000000E+02  0.51100000000E-03 0. -1.
    9900012    2    1    2    0    0  0.75947853912E-01 -0.11274570681E+01  0.34043735623E+00  0.90007819882E+02  0.90000082305E+02 0.  0.
         12    1    1    2    0    0 -0.75947853912E-01  0.11274570681E+01 -0.34043735623E+00  0.11801801178E+01  0.00000000000E+00 0. -1.
         11    1    3    3    0    0 -0.59157976056E+01  0.52350333197E+01 -0.48707734149E+01  0.92804455222E+01  0.51100000000E-03 0. -1.
        -11    1    3    3    0    0 -0.17034104516E+02 -0.16028999981E+02  0.34849384913E+02  0.41971051763E+02  0.51100000000E-03 0.  1.
         12    1    3    3    0    0  0.23025849976E+02  0.96665095932E+01 -0.29638174141E+02  0.38756322597E+02  0.00000000000E+00 0. -1.
</event>
<event>
 7    1  0.2090370E-015  0.9000768E+02  0.7816164E-02  0.1186339E+00
        -11   -1    0    0    0    0  0.00000000000E+00  0.00000000000E+00  0.45593999997E+02  0.45594000000E+02  0.51100000000E-03 0.  1.
         11   -1    0    0    0    0 -0.00000000000E+00 -0.00000000000E+00 -0.45593999997E+02  0.45594000000E+02  0.51100000000E-03 0. -1.
    9900012    2    1    2    0    0  0.25936505071E+00 -0.81114243328E+00  0.81727140016E+00  0.90007680205E+02  0.89999940784E+02 0.  0.
         12    1    1    2    0    0 -0.25936505071E+00  0.81114243328E+00 -0.81727140016E+00  0.11803197948E+01  0.00000000000E+00 0. -1.
         11    1    3    3    0    0 -0.60635928109E+01  0.74025661640E+01  0.65167762599E+01  0.11577284512E+02  0.51100000000E-03 0. -1.
        -11    1    3    3    0    0  0.12491611280E+01  0.11563297751E+02  0.32827869042E+02  0.34827277305E+02  0.51100000000E-03 0.  1.
         12    1    3    3    0    0  0.50737967335E+01 -0.19777006349E+02 -0.38527373901E+02  0.43603118388E+02  0.00000000000E+00 0. -1.
</event>
<event>
 7    1  0.2090370E-015  0.9000769E+02  0.7816164E-02  0.1186339E+00
        -11   -1    0    0    0    0  0.00000000000E+00  0.00000000000E+00  0.45593999997E+02  0.45594000000E+02  0.51100000000E-03 0. -1.
         11   -1    0    0    0    0 -0.00000000000E+00 -0.00000000000E+00 -0.45593999997E+02  0.45594000000E+02  0.51100000000E-03 0.  1.
    9900012    2    1    2    0    0 -0.44832056880E+00 -0.10603779587E+01 -0.26025088648E+00  0.90007693569E+02  0.89999954324E+02 0.  0.
         12    1    1    2    0    0  0.44832056880E+00  0.10603779587E+01  0.26025088648E+00  0.11803064312E+01  0.00000000000E+00 0. -1.
         11    1    3    3    0    0 -0.66472935390E+01  0.32285322759E+02  0.24847910906E+02  0.41278895984E+02  0.51100000000E-03 0. -1.
        -11    1    3    3    0    0  0.13027283593E+01  0.38727651183E+01 -0.13504009222E+01  0.43033700458E+01  0.51100000000E-03 0.  1.
        -12    1    3    3    0    0  0.48962446110E+01 -0.37218465835E+02 -0.23757760870E+02  0.44425427539E+02  0.00000000000E+00 0.  1.
</event>
<event>
 7    1  0.2090370E-015  0.9000790E+02  0.7816164E-02  0.1186339E+00
        -11   -1    0    0    0    0  0.00000000000E+00  0.00000000000E+00  0.45593999997E+02  0.45594000000E+02  0.51100000000E-03 0.  1.
         11   -1    0    0    0    0 -0.00000000000E+00 -0.00000000000E+00 -0.45593999997E+02  0.45594000000E+02  0.51100000000E-03 0. -1.
    9900012    2    1    2    0    0  0.95021935998E+00 -0.22904609599E+00  0.66124639619E+00  0.90007904350E+02  0.90000167887E+02 0.  0.
         12    1    1    2    0    0 -0.95021935998E+00  0.22904609599E+00 -0.66124639619E+00  0.11800956498E+01  0.00000000000E+00 0. -1.
         11    1    3    3    0    0  0.32347276857E+01  0.80326055263E+01 -0.29992952512E+01  0.91641686479E+01  0.51100000000E-03 0. -1.
        -11    1    3    3    0    0  0.71243323906E+01  0.26715116412E+01  0.40537887737E+02  0.41245768618E+02  0.51100000000E-03 0.  1.
         12    1    3    3    0    0 -0.94088407162E+01 -0.10933163263E+02 -0.36877346090E+02  0.39597967084E+02  0.00000000000E+00 0. -1.
</event>
<event>
 7    1  0.2090370E-015  0.9000769E+02  0.7816164E-02  0.1186339E+00
        -11   -1    0    0    0    0  0.00000000000E+00  0.00000000000E+00  0.45593999997E+02  0.45594000000E+02  0.51100000000E-03 0. -1.
         11   -1    0    0    0    0 -0.00000000000E+00 -0.00000000000E+00 -0.45593999997E+02  0.45594000000E+02  0.51100000000E-03 0.  1.
    9900012    2    1    2    0    0 -0.86258598846E+00 -0.72699496074E+00 -0.34722098086E+00  0.90007687046E+02  0.89999947715E+02 0.  0.
         12    1    1    2    0    0  0.86258598846E+00  0.72699496074E+00  0.34722098086E+00  0.11803129543E+01  0.00000000000E+00 0. -1.
         11    1    3    3    0    0  0.26665812417E+02 -0.82307318170E+01  0.24365158091E+02  0.37046881477E+02  0.51100000000E-03 0. -1.
        -11    1    3    3    0    0  0.88907740861E+01  0.39384236594E+01 -0.85843370534E+01  0.12971040347E+02  0.51100000000E-03 0.  1.
        -12    1    3    3    0    0 -0.36419172492E+02  0.35653131969E+01 -0.16128042018E+02  0.39989765222E+02  0.00000000000E+00 0.  1.
</event>
<event>
 7    1  0.2090370E-015  0.9000778E+02  0.7816164E-02  0.1186339E+00
        -11   -1    0    0    0    0  0.00000000000E+00  0.00000000000E+00  0.45593999997E+02  0.45594000000E+02  0.51100000000E-03 0. -1.
         11   -1    0    0    0    0 -0.00000000000E+00 -0.00000000000E+00 -0.45593999997E+02  0.45594000000E+02  0.51100000000E-03 0.  1.
    9900012    2    1    2    0    0  0.86465005229E-01 -0.38199352941E-01 -0.11764303785E+01  0.90007778062E+02  0.90000039932E+02 0.  0.
         12    1    1    2    0    0 -0.86465005229E-01  0.38199352941E-01  0.11764303785E+01  0.11802219381E+01  0.00000000000E+00 0. -1.
         11    1    3    3    0    0  0.17961898340E+02  0.17968521548E+02  0.32576757542E+02  0.41312742475E+02  0.51100000000E-03 0. -1.
        -11    1    3    3    0    0  0.30728332976E+01 -0.75083841673E+01 -0.65101478643E+00  0.81389162541E+01  0.51100000000E-03 0.  1.
        -12    1    3    3    0    0 -0.20948266632E+02 -0.10498336734E+02 -0.33102173135E+02  0.40556119332E+02  0.00000000000E+00 0.  1.
</event>
<event>
 7    1  0.2090370E-015  0.9000788E+02  0.7816164E-02  0.1186339E+00
        -11   -1    0    0    0    0  0.00000000000E+00  0.00000000000E+00  0.45593999997E+02  0.45594000000E+02  0.51100000000E-03 0. -1.
         11   -1    0    0    0    0 -0.00000000000E+00 -0.00000000000E+00 -0.45593999997E+02  0.45594000000E+02  0.51100000000E-03 0.  1.
    9900012    2    1    2    0    0  0.58899384069E+00 -0.35031919521E+00  0.96074692404E+00  0.90007884779E+02  0.90000148058E+02 0.  0.
         12    1    1    2    0    0 -0.58899384069E+00  0.35031919521E+00 -0.96074692404E+00  0.11801152211E+01  0.00000000000E+00 0. -1.
         11    1    3    3    0    0  0.18891541980E+02  0.30836622995E+02  0.54358120876E+01  0.36569601166E+02  0.51100000000E-03 0. -1.
        -11    1    3    3    0    0  0.24444463241E+01  0.53290604384E+01  0.77305348100E+01  0.97023384654E+01  0.51100000000E-03 0.  1.
        -12    1    3    3    0    0 -0.20746994463E+02 -0.36516002629E+02 -0.12205599974E+02  0.43735945148E+02  0.00000000000E+00 0.  1.
</event>
<event>
 7    1  0.2090370E-015  0.9000772E+02  0.7816164E-02  0.1186339E+00
        -11   -1    0    0    0    0  0.00000000000E+00  0.00000000000E+00  0.45593999997E+02  0.45594000000E+02  0.51100000000E-03 0. -1.
         11   -1    0    0    0    0 -0.00000000000E+00 -0.00000000000E+00 -0.45593999997E+02  0.45594000000E+02  0.51100000000E-03 0.  1.
    9900012    2    1    2    0    0 -0.67334570937E+00  0.30366475300E+00  0.92056758208E+00  0.90007724015E+02  0.89999985172E+02 0.  0.
         12    1    1    2    0    0  0.67334570937E+00 -0.30366475300E+00 -0.92056758208E+00  0.11802759846E+01  0.00000000000E+00 0. -1.
         11    1    3    3    0    0 -0.17027908204E+02 -0.26184883217E+02  0.16156310065E+02  0.35165666808E+02  0.51100000000E-03 0. -1.
        -11    1    3    3    0    0  0.43785179612E+00 -0.98143573959E+01  0.42125023473E+01  0.10689176843E+02  0.51100000000E-03 0.  1.
        -12    1    3    3    0    0  0.15916710699E+02  0.36302905366E+02 -0.19448244830E+02  0.44152880364E+02  0.00000000000E+00 0.  1.
</event>
<event>
 7    1  0.2090370E-015  0.9000775E+02  0.7816164E-02  0.1186339E+00
        -11   -1    0    0    0    0  0.00000000000E+00  0.00000000000E+00  0.45593999997E+02  0.45594000000E+02  0.51100000000E-03 0.  1.
         11   -1    0    0    0    0 -0.00000000000E+00 -0.00000000000E+00 -0.45593999997E+02  0.45594000000E+02  0.51100000000E-03 0. -1.
    9900012    2    1    2    0    0  0.82041442873E+00 -0.15475885356E+00  0.83424644428E+00  0.90007746948E+02  0.90000008407E+02 0.  0.
         12    1    1    2    0    0 -0.82041442873E+00  0.15475885356E+00 -0.83424644428E+00  0.11802530523E+01  0.00000000000E+00 0. -1.
         11    1    3    3    0    0 -0.23547693849E+02  0.18584115810E+02 -0.22298723074E+02  0.37377751364E+02  0.51100000000E-03 0. -1.
        -11    1    3    3    0    0 -0.85585766262E+01  0.11374321315E+01  0.25220940880E+01  0.89946620042E+01  0.51100000000E-03 0.  1.
        -12    1    3    3    0    0  0.32926684904E+02 -0.19876306796E+02  0.20610875430E+02  0.43635333579E+02  0.00000000000E+00 0.  1.
</event>
