<event>
 7    1  0.2886818E-013  0.7246155E+02  0.7816164E-02  0.1226708E+00
        -11   -1    0    0    0    0  0.00000000000E+00  0.00000000000E+00  0.45593999997E+02  0.45594000000E+02  0.51100000000E-03 0.  1.
         11   -1    0    0    0    0 -0.00000000000E+00 -0.00000000000E+00 -0.45593999997E+02  0.45594000000E+02  0.51100000000E-03 0. -1.
    9900012    2    1    2    0    0  0.11261638907E+02  0.14585548581E+02  0.33342312557E+01  0.72461552490E+02  0.69999976807E+02 0.  0.
         12    1    1    2    0    0 -0.11261638907E+02 -0.14585548581E+02 -0.33342312557E+01  0.18726447510E+02  0.00000000000E+00 0. -1.
         11    1    3    3    0    0  0.18759337776E+01  0.34099120203E+01 -0.15747097054E+02  0.16220902978E+02  0.51100000000E-03 0. -1.
        -11    1    3    3    0    0  0.92194675894E+01  0.15135002626E+02 -0.14209292821E+02  0.22714992623E+02  0.51100000000E-03 0.  1.
        -12    1    3    3    0    0  0.16623754013E+00 -0.39593660655E+01  0.33290621131E+02  0.33525656889E+02  0.00000000000E+00 0.  1.
</event>
<event>
 7    1  0.2886818E-013  0.7246164E+02  0.7816164E-02  0.1226708E+00
        -11   -1    0    0    0    0  0.00000000000E+00  0.00000000000E+00  0.45593999997E+02  0.45594000000E+02  0.51100000000E-03 0. -1.
         11   -1    0    0    0    0 -0.00000000000E+00 -0.00000000000E+00 -0.45593999997E+02  0.45594000000E+02  0.51100000000E-03 0.  1.
    9900012    2    1    2    0    0 -0.15850383778E+01 -0.18099267751E+02 -0.45366183359E+01  0.72461635011E+02  0.70000084305E+02 0.  0.
         12    1    1    2    0    0  0.15850383778E+01  0.18099267751E+02  0.45366183359E+01  0.18726364989E+02  0.00000000000E+00 0. -1.
         11    1    3    3    0    0 -0.20409768062E+02 -0.72241443044E+01  0.41539550457E+01  0.22045458400E+02  0.51100000000E-03 0. -1.
        -11    1    3    3    0    0 -0.10515830907E+02 -0.11428934633E+02 -0.13622849123E+02  0.20658781788E+02  0.51100000000E-03 0.  1.
         12    1    3    3    0    0  0.29340560591E+02  0.55381118648E+00  0.49322757410E+01  0.29757394822E+02  0.00000000000E+00 0. -1.
</event>
<event>
 7    1  0.2886818E-013  0.7246159E+02  0.7816164E-02  0.1226708E+00
        -11   -1    0    0    0    0  0.00000000000E+00  0.00000000000E+00  0.45593999997E+02  0.45594000000E+02  0.51100000000E-03 0.  1.
         11   -1    0    0    0    0 -0.00000000000E+00 -0.00000000000E+00 -0.45593999997E+02  0.45594000000E+02  0.51100000000E-03 0. -1.
    9900012    2    1    2    0    0 -0.46139863657E+01 -0.17425033218E+02  0.50752123868E+01  0.72461589944E+02  0.70000025597E+02 0.  0.
         12    1    1    2    0    0  0.46139863657E+01  0.17425033218E+02 -0.50752123868E+01  0.18726410056E+02  0.00000000000E+00 0. -1.
         11    1    3    3    0    0  0.13629353381E+02  0.42228092886E+01 -0.13516405168E+02  0.19654124269E+02  0.51100000000E-03 0. -1.
        -11    1    3    3    0    0 -0.14268245988E+02 -0.21321007222E+01 -0.10292926967E+02  0.17722106051E+02  0.51100000000E-03 0.  1.
        -12    1    3    3    0    0 -0.39750937588E+01 -0.19515741784E+02  0.28884544522E+02  0.35085359625E+02  0.00000000000E+00 0.  1.
</event>
<event>
 7    1  0.2886818E-013  0.7246156E+02  0.7816164E-02  0.1226708E+00
        -11   -1    0    0    0    0  0.00000000000E+00  0.00000000000E+00  0.45593999997E+02  0.45594000000E+02  0.51100000000E-03 0. -1.
         11   -1    0    0    0    0 -0.00000000000E+00 -0.00000000000E+00 -0.45593999997E+02  0.45594000000E+02  0.51100000000E-03 0.  1.
    9900012    2    1    2    0    0 -0.91224911667E+01 -0.13959994115E+02 -0.85192959377E+01  0.72461556556E+02  0.69999982104E+02 0.  0.
         12    1    1    2    0    0  0.91224911667E+01  0.13959994115E+02  0.85192959377E+01  0.18726443444E+02  0.00000000000E+00 0. -1.
         11    1    3    3    0    0  0.67188783711E+01 -0.12621748267E+02  0.16516437994E+02  0.21845928228E+02  0.51100000000E-03 0. -1.
        -11    1    3    3    0    0 -0.84718104964E+01 -0.10469181929E+02  0.79265713103E+01  0.15627087904E+02  0.51100000000E-03 0.  1.
        -12    1    3    3    0    0 -0.73695590414E+01  0.91309360815E+01 -0.32962305242E+02  0.34988540425E+02  0.00000000000E+00 0.  1.
</event>
<event>
 7    1  0.2886818E-013  0.7246160E+02  0.7816164E-02  0.1226708E+00
        -11   -1    0    0    0    0  0.00000000000E+00  0.00000000000E+00  0.45593999997E+02  0.45594000000E+02  0.51100000000E-03 0.  1.
         11   -1    0    0    0    0 -0.00000000000E+00 -0.00000000000E+00 -0.45593999997E+02  0.45594000000E+02  0.51100000000E-03 0. -1.
    9900012    2    1    2    0    0 -0.10919840936E+02 -0.14963600732E+02  0.27433203787E+01  0.72461599395E+02  0.70000037909E+02 0.  0.
         12    1    1    2    0    0  0.10919840936E+02  0.14963600732E+02 -0.27433203787E+01  0.18726400605E+02  0.00000000000E+00 0. -1.
         11    1    3    3    0    0 -0.10283442395E+02 -0.21327375474E+02 -0.80196589022E+01  0.24998421176E+02  0.51100000000E-03 0. -1.
        -11    1    3    3    0    0 -0.14724429265E+02  0.20045486400E+02 -0.39693665877E+00  0.24875447758E+02  0.51100000000E-03 0.  1.
         12    1    3    3    0    0  0.14088030724E+02 -0.13681711658E+02  0.11159915940E+02  0.22587730461E+02  0.00000000000E+00 0. -1.
</event>
<event>
 7    1  0.2886818E-013  0.7246158E+02  0.7816164E-02  0.1226708E+00
        -11   -1    0    0    0    0  0.00000000000E+00  0.00000000000E+00  0.45593999997E+02  0.45594000000E+02  0.51100000000E-03 0.  1.
         11   -1    0    0    0    0 -0.00000000000E+00 -0.00000000000E+00 -0.45593999997E+02  0.45594000000E+02  0.51100000000E-03 0. -1.
    9900012    2    1    2    0    0 -0.11523339883E+01  0.15210604252E+02 -0.10862245355E+02  0.72461582044E+02  0.70000015306E+02 0.  0.
         12    1    1    2    0    0  0.11523339883E+01 -0.15210604252E+02  0.10862245355E+02  0.18726417956E+02  0.00000000000E+00 0. -1.
         11    1    3    3    0    0 -0.45614873958E+01  0.40104072862E+00  0.69857619649E+00  0.46320632434E+01  0.51100000000E-03 0. -1.
        -11    1    3    3    0    0 -0.99311116272E+01 -0.11985714193E+02  0.19328432549E+02  0.24816781176E+02  0.51100000000E-03 0.  1.
         12    1    3    3    0    0  0.13340265035E+02  0.26795277716E+02 -0.30889254100E+02  0.43012737625E+02  0.00000000000E+00 0. -1.
</event>
<event>
 7    1  0.2886818E-013  0.7246163E+02  0.7816164E-02  0.1226708E+00
        -11   -1    0    0    0    0  0.00000000000E+00  0.00000000000E+00  0.45593999997E+02  0.45594000000E+02  0.51100000000E-03 0.  1.
         11   -1    0    0    0    0 -0.00000000000E+00 -0.00000000000E+00 -0.45593999997E+02  0.45594000000E+02  0.51100000000E-03 0. -1.
    9900012    2    1    2    0    0 -0.28746149872E+00  0.18481157251E+02 -0.30068534294E+01  0.72461628888E+02  0.70000076330E+02 0.  0.
         12    1    1    2    0    0  0.28746149872E+00 -0.18481157251E+02  0.30068534294E+01  0.18726371112E+02  0.00000000000E+00 0. -1.
         11    1    3    3    0    0 -0.10424560676E+02  0.18372753465E+02 -0.83008729173E+01  0.22696564203E+02  0.51100000000E-03 0. -1.
        -11    1    3    3    0    0  0.97484620638E+01  0.21579629387E+02 -0.74128068690E+01  0.24812549709E+02  0.51100000000E-03 0.  1.
        -12    1    3    3    0    0  0.38863711333E+00 -0.21471225601E+02  0.12706826357E+02  0.24952514977E+02  0.00000000000E+00 0.  1.
</event>
<event>
 7    1  0.2886818E-013  0.7246132E+02  0.7816164E-02  0.1226709E+00
        -11   -1    0    0    0    0  0.00000000000E+00  0.00000000000E+00  0.45593999997E+02  0.45594000000E+02  0.51100000000E-03 0. -1.
         11   -1    0    0    0    0 -0.00000000000E+00 -0.00000000000E+00 -0.45593999997E+02  0.45594000000E+02  0.51100000000E-03 0.  1.
    9900012    2    1    2    0    0  0.66543965605E+01  0.50749605875E+01 -0.16752685737E+02  0.72461315885E+02  0.69999668584E+02 0.  0.
         12    1    1    2    0    0 -0.66543965605E+01 -0.50749605875E+01  0.16752685737E+02  0.18726684115E+02  0.00000000000E+00 0. -1.
         11    1    3    3    0    0  0.56121594026E+01  0.39119694888E+01  0.96896782555E+01  0.11861269047E+02  0.51100000000E-03 0. -1.
        -11    1    3    3    0    0  0.15416465093E+02 -0.21789638600E+02 -0.81106023025E+01  0.27896910514E+02  0.51100000000E-03 0.  1.
         12    1    3    3    0    0 -0.14374227935E+02  0.22952629698E+02 -0.18331761690E+02  0.32703136324E+02  0.00000000000E+00 0. -1.
</event>
<event>
 7    1  0.2886818E-013  0.7246155E+02  0.7816164E-02  0.1226708E+00
        -11   -1    0    0    0    0  0.00000000000E+00  0.00000000000E+00  0.45593999997E+02  0.45594000000E+02  0.51100000000E-03 0. -1.
         11   -1    0    0    0    0 -0.00000000000E+00 -0.00000000000E+00 -0.45593999997E+02  0.45594000000E+02  0.51100000000E-03 0.  1.
    9900012    2    1    2    0    0  0.10040007488E+02  0.76922127889E+01 -0.13809710931E+02  0.72461548016E+02  0.69999970978E+02 0.  0.
         12    1    1    2    0    0 -0.10040007488E+02 -0.76922127889E+01  0.13809710931E+02  0.18726451984E+02  0.00000000000E+00 0. -1.
         11    1    3    3    0    0  0.10573645349E+02  0.27476154479E+02 -0.17699447523E+01  0.29493622118E+02  0.51100000000E-03 0. -1.
        -11    1    3    3    0    0  0.13663352534E+02 -0.42302109079E+01 -0.16084465031E+02  0.21524216650E+02  0.51100000000E-03 0.  1.
        -12    1    3    3    0    0 -0.14196990395E+02 -0.15553730782E+02  0.40446988525E+01  0.21443709248E+02  0.00000000000E+00 0.  1.
</event>
<event>
 7    1  0.2886818E-013  0.7246160E+02  0.7816164E-02  0.1226708E+00
        -11   -1    0    0    0    0  0.00000000000E+00  0.00000000000E+00  0.45593999997E+02  0.45594000000E+02  0.51100000000E-03 0. -1.
         11   -1    0    0    0    0 -0.00000000000E+00 -0.00000000000E+00 -0.45593999997E+02  0.45594000000E+02  0.51100000000E-03 0.  1.
    9900012    2    1    2    0    0 -0.18723626069E+02 -0.15071965459E+00  0.28521875749E+00  0.72461595131E+02  0.70000032354E+02 0.  0.
         12    1    1    2    0    0  0.18723626069E+02  0.15071965459E+00 -0.28521875749E+00  0.18726404869E+02  0.00000000000E+00 0. -1.
         11    1    3    3    0    0  0.14137720077E+01  0.30655050592E+01 -0.17120299513E+02  0.17449949233E+02  0.51100000000E-03 0. -1.
        -11    1    3    3    0    0  0.13365735340E+02 -0.11075026991E+02  0.26091966999E+01  0.17552977289E+02  0.51100000000E-03 0.  1.
        -12    1    3    3    0    0 -0.33503133416E+02  0.78588022770E+01  0.14796321571E+02  0.37458668609E+02  0.00000000000E+00 0.  1.
</event>
<event>
 7    1  0.2886818E-013  0.7246161E+02  0.7816164E-02  0.1226708E+00
        -11   -1    0    0    0    0  0.00000000000E+00  0.00000000000E+00  0.45593999997E+02  0.45594000000E+02  0.51100000000E-03 0.  1.
         11   -1    0    0    0    0 -0.00000000000E+00 -0.00000000000E+00 -0.45593999997E+02  0.45594000000E+02  0.51100000000E-03 0. -1.
    9900012    2    1    2    0    0  0.13578677677E+02 -0.74327319509E+01  0.10538113192E+02  0.72461606291E+02  0.70000046892E+02 0.  0.
         12    1    1    2    0    0 -0.13578677677E+02  0.74327319509E+01 -0.10538113192E+02  0.18726393709E+02  0.00000000000E+00 0. -1.
         11    1    3    3    0    0  0.84351363065E+01 -0.60847929983E+01 -0.36104732279E+01  0.11009620681E+02  0.51100000000E-03 0. -1.
        -11    1    3    3    0    0  0.53180364826E+01 -0.29905617087E+02  0.20722625685E+01  0.30445389106E+02  0.51100000000E-03 0.  1.
        -12    1    3    3    0    0 -0.17449511232E+00  0.28557678135E+02  0.12076323852E+02  0.31006596504E+02  0.00000000000E+00 0.  1.
</event>
<event>
 7    1  0.2886818E-013  0.7246164E+02  0.7816164E-02  0.1226708E+00
        -11   -1    0    0    0    0  0.00000000000E+00  0.00000000000E+00  0.45593999997E+02  0.45594000000E+02  0.51100000000E-03 0.  1.
         11   -1    0    0    0    0 -0.00000000000E+00 -0.00000000000E+00 -0.45593999997E+02  0.45594000000E+02  0.51100000000E-03 0. -1.
    9900012    2    1    2    0    0 -0.50821759228E+01 -0.20438379198E+01  0.17907287634E+02  0.72461635271E+02  0.70000084644E+02 0.  0.
         12    1    1    2    0    0  0.50821759228E+01  0.20438379198E+01 -0.17907287634E+02  0.18726364729E+02  0.00000000000E+00 0. -1.
         11    1    3    3    0    0  0.27207563244E+02  0.23617461422E+01  0.23239919202E+02  0.35859771155E+02  0.51100000000E-03 0. -1.
        -11    1    3    3    0    0 -0.51179540469E+01 -0.17217660370E+00 -0.74285078544E+01  0.90225178090E+01  0.51100000000E-03 0.  1.
        -12    1    3    3    0    0 -0.27171785120E+02 -0.42334074583E+01  0.20958762861E+01  0.27579346307E+02  0.00000000000E+00 0.  1.
</event>
<event>
 7    1  0.2886818E-013  0.7246152E+02  0.7816164E-02  0.1226708E+00
        -11   -1    0    0    0    0  0.00000000000E+00  0.00000000000E+00  0.45593999997E+02  0.45594000000E+02  0.51100000000E-03 0.  1.
         11   -1    0    0    0    0 -0.00000000000E+00 -0.00000000000E+00 -0.45593999997E+02  0.45594000000E+02  0.51100000000E-03 0. -1.
    9900012    2    1    2    0    0 -0.10666947180E+02  0.75884695991E+01  0.13390764560E+02  0.72461515853E+02  0.69999929080E+02 0.  0.
         12    1    1    2    0    0  0.10666947180E+02 -0.75884695991E+01 -0.13390764560E+02  0.18726484147E+02  0.00000000000E+00 0. -1.
         11    1    3    3    0    0 -0.37142316212E+01 -0.21526659920E+02 -0.85317441948E-02  0.21844740257E+02  0.51100000000E-03 0. -1.
        -11    1    3    3    0    0  0.67326858711E+01 -0.67911595606E+01  0.65350499791E+01  0.11582563866E+02  0.51100000000E-03 0.  1.
        -12    1    3    3    0    0 -0.13685401429E+02  0.35906289080E+02  0.68642463254E+01  0.39034211730E+02  0.00000000000E+00 0.  1.
</event>
<event>
 7    1  0.2886818E-013  0.7246156E+02  0.7816164E-02  0.1226708E+00
        -11   -1    0    0    0    0  0.00000000000E+00  0.00000000000E+00  0.45593999997E+02  0.45594000000E+02  0.51100000000E-03 0.  1.
         11   -1    0    0    0    0 -0.00000000000E+00 -0.00000000000E+00 -0.45593999997E+02  0.45594000000E+02  0.51100000000E-03 0. -1.
    9900012    2    1    2    0    0  0.19273876559E+01 -0.15854493514E+02  0.97775184217E+01  0.72461557352E+02  0.69999983141E+02 0.  0.
         12    1    1    2    0    0 -0.19273876559E+01  0.15854493514E+02 -0.97775184217E+01  0.18726442648E+02  0.00000000000E+00 0. -1.
         11    1    3    3    0    0  0.12095345082E+02 -0.22415744506E+02 -0.17864173876E+02  0.31110957603E+02  0.51100000000E-03 0. -1.
        -11    1    3    3    0    0 -0.22715232453E+01 -0.28528719919E+00 -0.58415598683E+01  0.62741556082E+01  0.51100000000E-03 0.  1.
        -12    1    3    3    0    0 -0.78964341806E+01  0.68465381915E+01  0.33483252166E+02  0.35076444142E+02  0.00000000000E+00 0.  1.
</event>
<event>
 7    1  0.2886818E-013  0.7246147E+02  0.7816164E-02  0.1226708E+00
        -11   -1    0    0    0    0  0.00000000000E+00  0.00000000000E+00  0.45593999997E+02  0.45594000000E+02  0.51100000000E-03 0.  1.
         11   -1    0    0    0    0 -0.00000000000E+00 -0.00000000000E+00 -0.45593999997E+02  0.45594000000E+02  0.51100000000E-03 0. -1.
    9900012    2    1    2    0    0  0.51287194322E+01 -0.17813808245E+02 -0.26547201987E+01  0.72461466243E+02  0.69999864454E+02 0.  0.
         12    1    1    2    0    0 -0.51287194322E+01  0.17813808245E+02  0.26547201987E+01  0.18726533757E+02  0.00000000000E+00 0. -1.
         11    1    3    3    0    0  0.35907919494E+01 -0.12139020219E+02 -0.40437370502E+01  0.13289146259E+02  0.51100000000E-03 0.  1.
        -11    1    3    3    0    0  0.25408245644E+02 -0.74836680156E+01 -0.14734626922E+02  0.30309956524E+02  0.51100000000E-03 0. -1.
        -12    1    3    3    0    0 -0.23870318162E+02  0.18088799897E+01  0.16123643774E+02  0.28862363460E+02  0.00000000000E+00 0.  1.
</event>
<event>
 7    1  0.2886818E-013  0.7246158E+02  0.7816164E-02  0.1226708E+00
        -11   -1    0    0    0    0  0.00000000000E+00  0.00000000000E+00  0.45593999997E+02  0.45594000000E+02  0.51100000000E-03 0.  1.
         11   -1    0    0    0    0 -0.00000000000E+00 -0.00000000000E+00 -0.45593999997E+02  0.45594000000E+02  0.51100000000E-03 0. -1.
    9900012    2    1    2    0    0 -0.13734773764E+02 -0.12632407489E+02  0.15675033712E+01  0.72461580264E+02  0.70000012987E+02 0.  0.
         12    1    1    2    0    0  0.13734773764E+02  0.12632407489E+02 -0.15675033712E+01  0.18726419736E+02  0.00000000000E+00 0. -1.
         11    1    3    3    0    0  0.39020099764E+01 -0.21819258436E+00  0.17360636715E+00  0.39119597764E+01  0.51100000000E-03 0. -1.
        -11    1    3    3    0    0 -0.36241363601E+01 -0.94013520095E+01 -0.31284050636E+02  0.32866572812E+02  0.51100000000E-03 0.  1.
        -12    1    3    3    0    0 -0.14012647380E+02 -0.30128628953E+01  0.32677947640E+02  0.35683047675E+02  0.00000000000E+00 0.  1.
</event>
<event>
 7    1  0.2886818E-013  0.7246152E+02  0.7816164E-02  0.1226708E+00
        -11   -1    0    0    0    0  0.00000000000E+00  0.00000000000E+00  0.45593999997E+02  0.45594000000E+02  0.51100000000E-03 0. -1.
         11   -1    0    0    0    0 -0.00000000000E+00 -0.00000000000E+00 -0.45593999997E+02  0.45594000000E+02  0.51100000000E-03 0.  1.
    9900012    2    1    2    0    0 -0.10533787770E+02 -0.11963177462E+02 -0.98286737507E+01  0.72461518017E+02  0.69999931899E+02 0.  0.
         12    1    1    2    0    0  0.10533787770E+02  0.11963177462E+02  0.98286737507E+01  0.18726481983E+02  0.00000000000E+00 0. -1.
         11    1    3    3    0    0 -0.19951071387E+02 -0.56693235186E+01  0.10153726475E+02  0.23092956507E+02  0.51100000000E-03 0.  1.
        -11    1    3    3    0    0  0.84362524362E+01 -0.24835867884E+02 -0.86668338103E+01  0.27624349717E+02  0.51100000000E-03 0. -1.
         12    1    3    3    0    0  0.98103118100E+00  0.18542013941E+02 -0.11315566415E+02  0.21744211793E+02  0.00000000000E+00 0. -1.
</event>
<event>
 7    1  0.2886818E-013  0.7246164E+02  0.7816164E-02  0.1226708E+00
        -11   -1    0    0    0    0  0.00000000000E+00  0.00000000000E+00  0.45593999997E+02  0.45594000000E+02  0.51100000000E-03 0. -1.
         11   -1    0    0    0    0 -0.00000000000E+00 -0.00000000000E+00 -0.45593999997E+02  0.45594000000E+02  0.51100000000E-03 0.  1.
    9900012    2    1    2    0    0 -0.13019777218E+02 -0.11769718829E+02  0.65295968287E+01  0.72461641174E+02  0.70000092334E+02 0.  0.
         12    1    1    2    0    0  0.13019777218E+02  0.11769718829E+02 -0.65295968287E+01  0.18726358826E+02  0.00000000000E+00 0. -1.
         11    1    3    3    0    0 -0.21829645859E+02  0.70845070596E+01  0.34149689883E+01  0.23203139703E+02  0.51100000000E-03 0. -1.
        -11    1    3    3    0    0 -0.14747556016E+02 -0.20824928989E+02  0.13825240909E+01  0.25555419170E+02  0.51100000000E-03 0.  1.
        -12    1    3    3    0    0  0.23557424657E+02  0.19707031002E+01  0.17321037495E+01  0.23703082302E+02  0.00000000000E+00 0.  1.
</event>
<event>
 7    1  0.2886818E-013  0.7246161E+02  0.7816164E-02  0.1226708E+00
        -11   -1    0    0    0    0  0.00000000000E+00  0.00000000000E+00  0.45593999997E+02  0.45594000000E+02  0.51100000000E-03 0. -1.
         11   -1    0    0    0    0 -0.00000000000E+00 -0.00000000000E+00 -0.45593999997E+02  0.45594000000E+02  0.51100000000E-03 0.  1.
    9900012    2    1    2    0    0 -0.85475783786E+01 -0.13404004664E+02 -0.98969401193E+01  0.72461605235E+02  0.70000045517E+02 0.  0.
         12    1    1    2    0    0  0.85475783786E+01  0.13404004664E+02  0.98969401193E+01  0.18726394765E+02  0.00000000000E+00 0. -1.
         11    1    3    3    0    0  0.81874585889E+01 -0.62782396587E+01  0.12464324984E+02  0.16180549092E+02  0.51100000000E-03 0. -1.
        -11    1    3    3    0    0 -0.30048569836E+02 -0.17318924876E+02 -0.12733240789E+02  0.36945867554E+02  0.51100000000E-03 0.  1.
         12    1    3    3    0    0  0.13313532868E+02  0.10193159871E+02 -0.96280243138E+01  0.19335188589E+02  0.00000000000E+00 0. -1.
</event>
<event>
 7    1  0.2886818E-013  0.7246155E+02  0.7816164E-02  0.1226708E+00
        -11   -1    0    0    0    0  0.00000000000E+00  0.00000000000E+00  0.45593999997E+02  0.45594000000E+02  0.51100000000E-03 0. -1.
         11   -1    0    0    0    0 -0.00000000000E+00 -0.00000000000E+00 -0.45593999997E+02  0.45594000000E+02  0.51100000000E-03 0.  1.
    9900012    2    1    2    0    0 -0.83132125698E+01 -0.79626166889E+01 -0.14770481354E+02  0.72461551132E+02  0.69999975037E+02 0.  0.
         12    1    1    2    0    0  0.83132125698E+01  0.79626166889E+01  0.14770481354E+02  0.18726448868E+02  0.00000000000E+00 0. -1.
         11    1    3    3    0    0 -0.49634795957E+01  0.13824916859E+02 -0.12812620626E+02  0.19491734233E+02  0.51100000000E-03 0. -1.
        -11    1    3    3    0    0 -0.16336195027E+02 -0.32930958475E+01 -0.18548497432E+02  0.24935166041E+02  0.51100000000E-03 0.  1.
         12    1    3    3    0    0  0.12986462053E+02 -0.18494437700E+02  0.16590636704E+02  0.28034650858E+02  0.00000000000E+00 0. -1.
</event>
<event>
 7    1  0.2886818E-013  0.7246141E+02  0.7816164E-02  0.1226708E+00
        -11   -1    0    0    0    0  0.00000000000E+00  0.00000000000E+00  0.45593999997E+02  0.45594000000E+02  0.51100000000E-03 0. -1.
         11   -1    0    0    0    0 -0.00000000000E+00 -0.00000000000E+00 -0.45593999997E+02  0.45594000000E+02  0.51100000000E-03 0.  1.
    9900012    2    1    2    0    0 -0.12265676533E+02  0.17977483793E+01 -0.14035899884E+02  0.72461409130E+02  0.69999790053E+02 0.  0.
         12    1    1    2    0    0  0.12265676533E+02 -0.17977483793E+01  0.14035899884E+02  0.18726590870E+02  0.00000000000E+00 0. -1.
         11    1    3    3    0    0  0.78637405219E+01  0.80256183103E+00 -0.21696052733E+02  0.23091150360E+02  0.51100000000E-03 0. -1.
        -11    1    3    3    0    0  0.85093913028E+01 -0.13705617349E+02  0.57341399828E+01  0.17121157930E+02  0.51100000000E-03 0.  1.
         12    1    3    3    0    0 -0.28638808358E+02  0.14700803897E+02  0.19260128660E+01  0.32249100840E+02  0.00000000000E+00 0. -1.
</event>
<event>
 7    1  0.2886818E-013  0.7246159E+02  0.7816164E-02  0.1226708E+00
        -11   -1    0    0    0    0  0.00000000000E+00  0.00000000000E+00  0.45593999997E+02  0.45594000000E+02  0.51100000000E-03 0.  1.
         11   -1    0    0    0    0 -0.00000000000E+00 -0.00000000000E+00 -0.45593999997E+02  0.45594000000E+02  0.51100000000E-03 0. -1.
    9900012    2    1    2    0    0 -0.97030428035E+01 -0.45326837703E+01  0.15361780281E+02  0.72461586697E+02  0.70000021367E+02 0.  0.
         12    1    1    2    0    0  0.97030428035E+01  0.45326837703E+01 -0.15361780281E+02  0.18726413303E+02  0.00000000000E+00 0. -1.
         11    1    3    3    0    0 -0.11041023648E+02 -0.10231690760E+02 -0.49879203290E+01  0.15857838708E+02  0.51100000000E-03 0. -1.
        -11    1    3    3    0    0 -0.12362367950E+02 -0.11223153104E+02 -0.98407698104E+01  0.19381126326E+02  0.51100000000E-03 0.  1.
        -12    1    3    3    0    0  0.13700348794E+02  0.16922160094E+02  0.30190470420E+02  0.37222621664E+02  0.00000000000E+00 0.  1.
</event>
<event>
 7    1  0.2886818E-013  0.7246152E+02  0.7816164E-02  0.1226708E+00
        -11   -1    0    0    0    0  0.00000000000E+00  0.00000000000E+00  0.45593999997E+02  0.45594000000E+02  0.51100000000E-03 0. -1.
         11   -1    0    0    0    0 -0.00000000000E+00 -0.00000000000E+00 -0.45593999997E+02  0.45594000000E+02  0.51100000000E-03 0.  1.
    9900012    2    1    2    0    0  0.84758022871E+01  0.15956565244E+02 -0.49223916639E+01  0.72461517723E+02  0.69999931515E+02 0.  0.
         12    1    1    2    0    0 -0.84758022871E+01 -0.15956565244E+02  0.49223916639E+01  0.18726482277E+02  0.00000000000E+00 0. -1.
         11    1    3    3    0    0  0.23903637370E+02  0.19099811243E+02  0.24081930010E+01  0.30691791457E+02  0.51100000000E-03 0. -1.
        -11    1    3    3    0    0 -0.21015715503E+02  0.11433937123E+02  0.12464939556E+01  0.23957231970E+02  0.51100000000E-03 0.  1.
         12    1    3    3    0    0  0.55878804209E+01 -0.14577183122E+02 -0.85770786205E+01  0.17812494295E+02  0.00000000000E+00 0. -1.
</event>
<event>
 7    1  0.2886818E-013  0.7246151E+02  0.7816164E-02  0.1226708E+00
        -11   -1    0    0    0    0  0.00000000000E+00  0.00000000000E+00  0.45593999997E+02  0.45594000000E+02  0.51100000000E-03 0.  1.
         11   -1    0    0    0    0 -0.00000000000E+00 -0.00000000000E+00 -0.45593999997E+02  0.45594000000E+02  0.51100000000E-03 0. -1.
    9900012    2    1    2    0    0  0.71762881918E+01  0.17292852099E+02 -0.37364635796E+00  0.72461509204E+02  0.69999920418E+02 0.  0.
         12    1    1    2    0    0 -0.71762881918E+01 -0.17292852099E+02  0.37364635796E+00  0.18726490796E+02  0.00000000000E+00 0. -1.
         11    1    3    3    0    0 -0.50619215846E+01  0.61186748584E+00  0.13446945308E+02  0.14381160256E+02  0.51100000000E-03 0. -1.
        -11    1    3    3    0    0 -0.34244784209E+01  0.28576185815E+02  0.68117985584E+01  0.29575767920E+02  0.51100000000E-03 0.  1.
         12    1    3    3    0    0  0.15662688197E+02 -0.11895201202E+02 -0.20632390224E+02  0.28504581028E+02  0.00000000000E+00 0. -1.
</event>
<event>
 7    1  0.2886818E-013  0.7246199E+02  0.7816164E-02  0.1226707E+00
        -11   -1    0    0    0    0  0.00000000000E+00  0.00000000000E+00  0.45593999997E+02  0.45594000000E+02  0.51100000000E-03 0.  1.
         11   -1    0    0    0    0 -0.00000000000E+00 -0.00000000000E+00 -0.45593999997E+02  0.45594000000E+02  0.51100000000E-03 0. -1.
    9900012    2    1    2    0    0  0.16079333034E+02  0.95520678269E+01  0.93629556031E+00  0.72461986010E+02  0.70000541544E+02 0.  0.
         12    1    1    2    0    0 -0.16079333034E+02 -0.95520678269E+01 -0.93629556031E+00  0.18726013990E+02  0.00000000000E+00 0. -1.
         11    1    3    3    0    0 -0.14737365956E+02  0.51938841514E+01  0.76908837919E+01  0.17415972028E+02  0.51100000000E-03 0. -1.
        -11    1    3    3    0    0  0.14156589344E+02  0.76200720136E+01  0.18566970683E+02  0.24560271170E+02  0.51100000000E-03 0.  1.
         12    1    3    3    0    0  0.16660109646E+02 -0.32618883381E+01 -0.25321558914E+02  0.30485742812E+02  0.00000000000E+00 0. -1.
</event>
<event>
 7    1  0.2886818E-013  0.7246155E+02  0.7816164E-02  0.1226708E+00
        -11   -1    0    0    0    0  0.00000000000E+00  0.00000000000E+00  0.45593999997E+02  0.45594000000E+02  0.51100000000E-03 0. -1.
         11   -1    0    0    0    0 -0.00000000000E+00 -0.00000000000E+00 -0.45593999997E+02  0.45594000000E+02  0.51100000000E-03 0.  1.
    9900012    2    1    2    0    0 -0.14754822570E+02 -0.15527138230E+01 -0.11426470735E+02  0.72461549649E+02  0.69999973105E+02 0.  0.
         12    1    1    2    0    0  0.14754822570E+02  0.15527138230E+01  0.11426470735E+02  0.18726450351E+02  0.00000000000E+00 0. -1.
         11    1    3    3    0    0  0.41635033465E+01 -0.19878818698E+01  0.66386894471E+01  0.80844685838E+01  0.51100000000E-03 0. -1.
        -11    1    3    3    0    0  0.13014768359E+02  0.18660676953E+02  0.13629215720E+01  0.22791722517E+02  0.51100000000E-03 0.  1.
        -12    1    3    3    0    0 -0.31933094276E+02 -0.18225508907E+02 -0.19428081754E+02  0.41585358548E+02  0.00000000000E+00 0.  1.
</event>
<event>
 7    1  0.2886818E-013  0.7246156E+02  0.7816164E-02  0.1226708E+00
        -11   -1    0    0    0    0  0.00000000000E+00  0.00000000000E+00  0.45593999997E+02  0.45594000000E+02  0.51100000000E-03 0. -1.
         11   -1    0    0    0    0 -0.00000000000E+00 -0.00000000000E+00 -0.45593999997E+02  0.45594000000E+02  0.51100000000E-03 0.  1.
    9900012    2    1    2    0    0 -0.12517866262E+02 -0.29136630804E+00 -0.13924714891E+02  0.72461560005E+02  0.69999986596E+02 0.  0.
         12    1    1    2    0    0  0.12517866262E+02  0.29136630804E+00  0.13924714891E+02  0.18726439995E+02  0.00000000000E+00 0. -1.
         11    1    3    3    0    0  0.10863565391E+02 -0.30888589386E+01 -0.81360441044E+01  0.13919530038E+02  0.51100000000E-03 0. -1.
        -11    1    3    3    0    0  0.12354531004E+01  0.50704166028E+01 -0.26056633885E+02  0.26574115951E+02  0.51100000000E-03 0.  1.
        -12    1    3    3    0    0 -0.24616884754E+02 -0.22729239723E+01  0.20267963098E+02  0.31967914016E+02  0.00000000000E+00 0.  1.
</event>
<event>
 7    1  0.2886818E-013  0.7246108E+02  0.7816164E-02  0.1226709E+00
        -11   -1    0    0    0    0  0.00000000000E+00  0.00000000000E+00  0.45593999997E+02  0.45594000000E+02  0.51100000000E-03 0. -1.
         11   -1    0    0    0    0 -0.00000000000E+00 -0.00000000000E+00 -0.45593999997E+02  0.45594000000E+02  0.51100000000E-03 0.  1.
    9900012    2    1    2    0    0  0.24895840300E+01 -0.45352826273E+01 -0.17998079690E+02  0.72461075809E+02  0.69999355838E+02 0.  0.
         12    1    1    2    0    0 -0.24895840300E+01  0.45352826273E+01  0.17998079690E+02  0.18726924191E+02  0.00000000000E+00 0. -1.
         11    1    3    3    0    0  0.16548619006E+02 -0.11462953188E+01 -0.24358672269E+01  0.16766163346E+02  0.51100000000E-03 0. -1.
        -11    1    3    3    0    0 -0.10455585545E+02  0.29793389378E+01  0.18172213316E+02  0.21176049364E+02  0.51100000000E-03 0.  1.
         12    1    3    3    0    0 -0.36034494308E+01 -0.63683262464E+01 -0.33734425779E+02  0.34518863098E+02  0.00000000000E+00 0. -1.
</event>
<event>
 7    1  0.2886818E-013  0.7246162E+02  0.7816164E-02  0.1226708E+00
        -11   -1    0    0    0    0  0.00000000000E+00  0.00000000000E+00  0.45593999997E+02  0.45594000000E+02  0.51100000000E-03 0.  1.
         11   -1    0    0    0    0 -0.00000000000E+00 -0.00000000000E+00 -0.45593999997E+02  0.45594000000E+02  0.51100000000E-03 0. -1.
    9900012    2    1    2    0    0  0.10481505973E+02 -0.12777243849E+02 -0.88066664025E+01  0.72461620186E+02  0.70000064993E+02 0.  0.
         12    1    1    2    0    0 -0.10481505973E+02  0.12777243849E+02  0.88066664025E+01  0.18726379814E+02  0.00000000000E+00 0. -1.
         11    1    3    3    0    0  0.21019880128E+01  0.60594622454E+01 -0.19052965242E+01  0.66907093358E+01  0.51100000000E-03 0. -1.
        -11    1    3    3    0    0  0.27640925255E+02 -0.19183702536E+02  0.14796057849E+02  0.36755387634E+02  0.51100000000E-03 0.  1.
         12    1    3    3    0    0 -0.19261407295E+02  0.34699644168E+00 -0.21697427728E+02  0.29015523216E+02  0.00000000000E+00 0. -1.
</event>
<event>
 7    1  0.2886818E-013  0.7246153E+02  0.7816164E-02  0.1226708E+00
        -11   -1    0    0    0    0  0.00000000000E+00  0.00000000000E+00  0.45593999997E+02  0.45594000000E+02  0.51100000000E-03 0.  1.
         11   -1    0    0    0    0 -0.00000000000E+00 -0.00000000000E+00 -0.45593999997E+02  0.45594000000E+02  0.51100000000E-03 0. -1.
    9900012    2    1    2    0    0  0.64910855663E+01  0.17503462727E+02 -0.14748302580E+01  0.72461534141E+02  0.69999952903E+02 0.  0.
         12    1    1    2    0    0 -0.64910855663E+01 -0.17503462727E+02  0.14748302580E+01  0.18726465859E+02  0.00000000000E+00 0. -1.
         11    1    3    3    0    0 -0.63534221959E+01  0.36650341950E+02  0.11006232390E+02  0.38791116126E+02  0.51100000000E-03 0. -1.
        -11    1    3    3    0    0 -0.34537796479E+01  0.17060478161E+01  0.98352493739E+00  0.39757407575E+01  0.51100000000E-03 0.  1.
        -12    1    3    3    0    0  0.16298287410E+02 -0.20852927038E+02 -0.13464587585E+02  0.29694677257E+02  0.00000000000E+00 0.  1.
</event>
<event>
 7    1  0.2886818E-013  0.7246157E+02  0.7816164E-02  0.1226708E+00
        -11   -1    0    0    0    0  0.00000000000E+00  0.00000000000E+00  0.45593999997E+02  0.45594000000E+02  0.51100000000E-03 0.  1.
         11   -1    0    0    0    0 -0.00000000000E+00 -0.00000000000E+00 -0.45593999997E+02  0.45594000000E+02  0.51100000000E-03 0. -1.
    9900012    2    1    2    0    0  0.14253798978E+02  0.46526010239E+01  0.11218802397E+02  0.72461574585E+02  0.70000005590E+02 0.  0.
         12    1    1    2    0    0 -0.14253798978E+02 -0.46526010239E+01 -0.11218802397E+02  0.18726425415E+02  0.00000000000E+00 0. -1.
         11    1    3    3    0    0 -0.67016262674E+00 -0.23150525461E+02  0.33609540593E+01  0.23402819478E+02  0.51100000000E-03 0. -1.
        -11    1    3    3    0    0  0.62500945945E+01  0.92655874377E+01 -0.14786943904E+02  0.18535600969E+02  0.51100000000E-03 0.  1.
        -12    1    3    3    0    0  0.86738670105E+01  0.18537539047E+02  0.22644792242E+02  0.30523154138E+02  0.00000000000E+00 0.  1.
</event>
<event>
 7    1  0.2886818E-013  0.7246158E+02  0.7816164E-02  0.1226708E+00
        -11   -1    0    0    0    0  0.00000000000E+00  0.00000000000E+00  0.45593999997E+02  0.45594000000E+02  0.51100000000E-03 0.  1.
         11   -1    0    0    0    0 -0.00000000000E+00 -0.00000000000E+00 -0.45593999997E+02  0.45594000000E+02  0.51100000000E-03 0. -1.
    9900012    2    1    2    0    0 -0.13701266883E+02 -0.42730398872E+01  0.12028937500E+02  0.72461576918E+02  0.70000008629E+02 0.  0.
         12    1    1    2    0    0  0.13701266883E+02  0.42730398872E+01 -0.12028937500E+02  0.18726423082E+02  0.00000000000E+00 0. -1.
         11    1    3    3    0    0 -0.24763014389E+01  0.20865817070E+02  0.21129061231E+02  0.29798517070E+02  0.51100000000E-03 0. -1.
        -11    1    3    3    0    0 -0.17090343325E+02 -0.61766860678E+01  0.43511407815E+01  0.18685922832E+02  0.51100000000E-03 0.  1.
        -12    1    3    3    0    0  0.58653778809E+01 -0.18962170889E+02 -0.13451264512E+02  0.23977137016E+02  0.00000000000E+00 0.  1.
</event>
<event>
 7    1  0.2886818E-013  0.7246157E+02  0.7816164E-02  0.1226708E+00
        -11   -1    0    0    0    0  0.00000000000E+00  0.00000000000E+00  0.45593999997E+02  0.45594000000E+02  0.51100000000E-03 0.  1.
         11   -1    0    0    0    0 -0.00000000000E+00 -0.00000000000E+00 -0.45593999997E+02  0.45594000000E+02  0.51100000000E-03 0. -1.
    9900012    2    1    2    0    0  0.24525805669E+00 -0.56442190282E+01  0.17853896867E+02  0.72461575000E+02  0.70000006130E+02 0.  0.
         12    1    1    2    0    0 -0.24525805669E+00  0.56442190282E+01 -0.17853896867E+02  0.18726425000E+02  0.00000000000E+00 0. -1.
         11    1    3    3    0    0 -0.14754180217E+02  0.17973546637E+02  0.11649847155E+02  0.26008712993E+02  0.51100000000E-03 0. -1.
        -11    1    3    3    0    0  0.15344810169E+01 -0.38875457312E+01  0.18931082471E+02  0.19386942193E+02  0.51100000000E-03 0.  1.
         12    1    3    3    0    0  0.13464957256E+02 -0.19730219934E+02 -0.12727032759E+02  0.27065919814E+02  0.00000000000E+00 0. -1.
</event>
<event>
 7    1  0.2886818E-013  0.7246152E+02  0.7816164E-02  0.1226708E+00
        -11   -1    0    0    0    0  0.00000000000E+00  0.00000000000E+00  0.45593999997E+02  0.45594000000E+02  0.51100000000E-03 0. -1.
         11   -1    0    0    0    0 -0.00000000000E+00 -0.00000000000E+00 -0.45593999997E+02  0.45594000000E+02  0.51100000000E-03 0.  1.
    9900012    2    1    2    0    0  0.75391315145E+00 -0.52440998928E+01 -0.17961405060E+02  0.72461520340E+02  0.69999934926E+02 0.  0.
         12    1    1    2    0    0 -0.75391315145E+00  0.52440998928E+01  0.17961405060E+02  0.18726479660E+02  0.00000000000E+00 0. -1.
         11    1    3    3    0    0 -0.18198588443E+01 -0.99681377267E+01 -0.73189278740E+01  0.12499694454E+02  0.51100000000E-03 0.  1.
        -11    1    3    3    0    0 -0.26292158681E+01  0.27875842310E+02  0.87300365818E+01  0.29328977131E+02  0.51100000000E-03 0. -1.
         12    1    3    3    0    0  0.52029878639E+01 -0.23151804476E+02 -0.19372513767E+02  0.30632848756E+02  0.00000000000E+00 0. -1.
</event>
<event>
 7    1  0.2886818E-013  0.7246158E+02  0.7816164E-02  0.1226708E+00
        -11   -1    0    0    0    0  0.00000000000E+00  0.00000000000E+00  0.45593999997E+02  0.45594000000E+02  0.51100000000E-03 0. -1.
         11   -1    0    0    0    0 -0.00000000000E+00 -0.00000000000E+00 -0.45593999997E+02  0.45594000000E+02  0.51100000000E-03 0.  1.
    9900012    2    1    2    0    0  0.15451112094E+01  0.18028761993E+02 -0.48223625235E+01  0.72461579948E+02  0.70000012576E+02 0.  0.
         12    1    1    2    0    0 -0.15451112094E+01 -0.18028761993E+02  0.48223625235E+01  0.18726420052E+02  0.00000000000E+00 0. -1.
         11    1    3    3    0    0  0.13495798876E+02 -0.16413476186E+01 -0.19467160395E+02  0.23744492907E+02  0.51100000000E-03 0. -1.
        -11    1    3    3    0    0 -0.52873260705E+01 -0.12439979864E+02  0.60893749517E+01  0.14825296070E+02  0.51100000000E-03 0.  1.
        -12    1    3    3    0    0 -0.66633615959E+01  0.32110089476E+02  0.85554229198E+01  0.33891790971E+02  0.00000000000E+00 0.  1.
</event>
<event>
 7    1  0.2886818E-013  0.7246153E+02  0.7816164E-02  0.1226708E+00
        -11   -1    0    0    0    0  0.00000000000E+00  0.00000000000E+00  0.45593999997E+02  0.45594000000E+02  0.51100000000E-03 0.  1.
         11   -1    0    0    0    0 -0.00000000000E+00 -0.00000000000E+00 -0.45593999997E+02  0.45594000000E+02  0.51100000000E-03 0. -1.
    9900012    2    1    2    0    0  0.14085783876E+02 -0.12084731838E+02 -0.24961491968E+01  0.72461526445E+02  0.69999942878E+02 0.  0.
         12    1    1    2    0    0 -0.14085783876E+02  0.12084731838E+02  0.24961491968E+01  0.18726473555E+02  0.00000000000E+00 0. -1.
         11    1    3    3    0    0  0.16015097101E+01 -0.12081590205E+02  0.50715196060E+01  0.13200377518E+02  0.51100000000E-03 0. -1.
        -11    1    3    3    0    0 -0.13010229956E+02 -0.10852485015E+01 -0.25106073322E+02  0.28297681278E+02  0.51100000000E-03 0.  1.
         12    1    3    3    0    0  0.25494504123E+02  0.10821068686E+01  0.17538404519E+02  0.30963467648E+02  0.00000000000E+00 0. -1.
</event>
<event>
 7    1  0.2888082E-013  0.7246159E+02  0.7816164E-02  0.1226708E+00
        -11   -1    0    0    0    0  0.00000000000E+00  0.00000000000E+00  0.45593999997E+02  0.45594000000E+02  0.51100000000E-03 0. -1.
         11   -1    0    0    0    0 -0.00000000000E+00 -0.00000000000E+00 -0.45593999997E+02  0.45594000000E+02  0.51100000000E-03 0.  1.
    9900012    2    1    2    0    0 -0.10803864633E+02  0.94209553336E+01 -0.12049925520E+02  0.72461585622E+02  0.70000019967E+02 0.  0.
         12    1    1    2    0    0  0.10803864633E+02 -0.94209553336E+01  0.12049925520E+02  0.18726414378E+02  0.00000000000E+00 0. -1.
         11    1    3    3    0    0 -0.74306552274E+01 -0.25969606079E+01  0.22857309425E+01  0.81965485243E+01  0.51100000000E-03 0. -1.
        -11    1    3    3    0    0 -0.23028692574E+02 -0.50722599441E+01 -0.26538982464E+02  0.35501635076E+02  0.51100000000E-03 0.  1.
         12    1    3    3    0    0  0.19655483168E+02  0.17090175886E+02  0.12203326001E+02  0.28763402022E+02  0.00000000000E+00 0. -1.
</event>
<event>
 7    1  0.2886818E-013  0.7246157E+02  0.7816164E-02  0.1226708E+00
        -11   -1    0    0    0    0  0.00000000000E+00  0.00000000000E+00  0.45593999997E+02  0.45594000000E+02  0.51100000000E-03 0.  1.
         11   -1    0    0    0    0 -0.00000000000E+00 -0.00000000000E+00 -0.45593999997E+02  0.45594000000E+02  0.51100000000E-03 0. -1.
    9900012    2    1    2    0    0 -0.39453412223E+00  0.12502932350E+02  0.13935579502E+02  0.72461565460E+02  0.69999993703E+02 0.  0.
         12    1    1    2    0    0  0.39453412223E+00 -0.12502932350E+02 -0.13935579502E+02  0.18726434540E+02  0.00000000000E+00 0. -1.
         11    1    3    3    0    0 -0.15351516166E+02  0.29294699465E+02  0.17791408294E+02  0.37555061905E+02  0.51100000000E-03 0. -1.
        -11    1    3    3    0    0  0.72153298012E+01  0.41947175791E+01  0.61844378084E+01  0.10387680731E+02  0.51100000000E-03 0.  1.
        -12    1    3    3    0    0  0.77416522428E+01 -0.20986484694E+02 -0.10040266600E+02  0.24518822824E+02  0.00000000000E+00 0.  1.
</event>
<event>
 7    1  0.2886818E-013  0.7246175E+02  0.7816164E-02  0.1226708E+00
        -11   -1    0    0    0    0  0.00000000000E+00  0.00000000000E+00  0.45593999997E+02  0.45594000000E+02  0.51100000000E-03 0.  1.
         11   -1    0    0    0    0 -0.00000000000E+00 -0.00000000000E+00 -0.45593999997E+02  0.45594000000E+02  0.51100000000E-03 0. -1.
    9900012    2    1    2    0    0 -0.13374248887E+02 -0.49436519173E+01  0.12139284451E+02  0.72461749586E+02  0.70000233561E+02 0.  0.
         12    1    1    2    0    0  0.13374248887E+02  0.49436519173E+01 -0.12139284451E+02  0.18726250414E+02  0.00000000000E+00 0. -1.
         11    1    3    3    0    0  0.14079551561E+02 -0.22510413827E+01  0.18656460935E+02  0.23481151896E+02  0.51100000000E-03 0. -1.
        -11    1    3    3    0    0 -0.32644620406E+02  0.35960219367E+00  0.76985970428E+01  0.33542047521E+02  0.51100000000E-03 0.  1.
         12    1    3    3    0    0  0.51908199580E+01 -0.30522127283E+01 -0.14215773527E+02  0.15438550170E+02  0.00000000000E+00 0. -1.
</event>
<event>
 7    1  0.2886818E-013  0.7246157E+02  0.7816164E-02  0.1226708E+00
        -11   -1    0    0    0    0  0.00000000000E+00  0.00000000000E+00  0.45593999997E+02  0.45594000000E+02  0.51100000000E-03 0. -1.
         11   -1    0    0    0    0 -0.00000000000E+00 -0.00000000000E+00 -0.45593999997E+02  0.45594000000E+02  0.51100000000E-03 0.  1.
    9900012    2    1    2    0    0 -0.10697692171E+02  0.34140165268E+01 -0.14986093625E+02  0.72461571382E+02  0.70000001417E+02 0.  0.
         12    1    1    2    0    0  0.10697692171E+02 -0.34140165268E+01  0.14986093625E+02  0.18726428618E+02  0.00000000000E+00 0. -1.
         11    1    3    3    0    0  0.45828761643E+01  0.27400223258E+02  0.69229988354E+01  0.28630454094E+02  0.51100000000E-03 0. -1.
        -11    1    3    3    0    0 -0.21844390114E+01  0.11098572440E+01 -0.14314151564E+02  0.14522344582E+02  0.51100000000E-03 0.  1.
         12    1    3    3    0    0 -0.13096129324E+02 -0.25096063975E+02 -0.75949408962E+01  0.29308772706E+02  0.00000000000E+00 0. -1.
</event>
<event>
 7    1  0.2886818E-013  0.7246157E+02  0.7816164E-02  0.1226708E+00
        -11   -1    0    0    0    0  0.00000000000E+00  0.00000000000E+00  0.45593999997E+02  0.45594000000E+02  0.51100000000E-03 0. -1.
         11   -1    0    0    0    0 -0.00000000000E+00 -0.00000000000E+00 -0.45593999997E+02  0.45594000000E+02  0.51100000000E-03 0.  1.
    9900012    2    1    2    0    0 -0.16655640811E+02 -0.19345786091E+00  0.85575328040E+01  0.72461570429E+02  0.70000000176E+02 0.  0.
         12    1    1    2    0    0  0.16655640811E+02  0.19345786091E+00 -0.85575328040E+01  0.18726429571E+02  0.00000000000E+00 0. -1.
         11    1    3    3    0    0 -0.21403897259E+01  0.66944861700E+01  0.17056958899E+01  0.72323448473E+01  0.51100000000E-03 0. -1.
        -11    1    3    3    0    0 -0.10878014867E+02  0.21715458036E+02 -0.15442856600E+02  0.28781489631E+02  0.51100000000E-03 0.  1.
         12    1    3    3    0    0 -0.36372362186E+01 -0.28603402067E+02  0.22294693514E+02  0.36447735951E+02  0.00000000000E+00 0. -1.
</event>
<event>
 7    1  0.2886818E-013  0.7246160E+02  0.7816164E-02  0.1226708E+00
        -11   -1    0    0    0    0  0.00000000000E+00  0.00000000000E+00  0.45593999997E+02  0.45594000000E+02  0.51100000000E-03 0. -1.
         11   -1    0    0    0    0 -0.00000000000E+00 -0.00000000000E+00 -0.45593999997E+02  0.45594000000E+02  0.51100000000E-03 0.  1.
    9900012    2    1    2    0    0 -0.95526832759E+01 -0.19186603625E+01 -0.15991967520E+02  0.72461600439E+02  0.70000039269E+02 0.  0.
         12    1    1    2    0    0  0.95526832759E+01  0.19186603625E+01  0.15991967520E+02  0.18726399561E+02  0.00000000000E+00 0. -1.
         11    1    3    3    0    0  0.32770106904E+01 -0.22618108991E+02 -0.43262931184E+01  0.23260147588E+02  0.51100000000E-03 0. -1.
        -11    1    3    3    0    0 -0.98856543572E+00 -0.52918521925E+01  0.11322993514E+02  0.12537589227E+02  0.51100000000E-03 0.  1.
        -12    1    3    3    0    0 -0.11841128531E+02  0.25991300821E+02 -0.22988667916E+02  0.36663863624E+02  0.00000000000E+00 0.  1.
</event>
<event>
 7    1  0.2886818E-013  0.7246103E+02  0.7816164E-02  0.1226709E+00
        -11   -1    0    0    0    0  0.00000000000E+00  0.00000000000E+00  0.45593999997E+02  0.45594000000E+02  0.51100000000E-03 0. -1.
         11   -1    0    0    0    0 -0.00000000000E+00 -0.00000000000E+00 -0.45593999997E+02  0.45594000000E+02  0.51100000000E-03 0.  1.
    9900012    2    1    2    0    0 -0.10057472143E+02 -0.14784106123E+02 -0.55656771352E+01  0.72461032767E+02  0.69999299768E+02 0.  0.
         12    1    1    2    0    0  0.10057472143E+02  0.14784106123E+02  0.55656771352E+01  0.18726967233E+02  0.00000000000E+00 0. -1.
         11    1    3    3    0    0  0.25312772172E+02 -0.94820278022E+01 -0.11991870425E+02  0.29571104863E+02  0.51100000000E-03 0. -1.
        -11    1    3    3    0    0 -0.47636067403E+01 -0.36372426948E+01 -0.71809661124E+01  0.93534890904E+01  0.51100000000E-03 0.  1.
        -12    1    3    3    0    0 -0.30606637575E+02 -0.16648356258E+01  0.13607159402E+02  0.33536438814E+02  0.00000000000E+00 0.  1.
</event>
<event>
 7    1  0.2886818E-013  0.7246157E+02  0.7816164E-02  0.1226708E+00
        -11   -1    0    0    0    0  0.00000000000E+00  0.00000000000E+00  0.45593999997E+02  0.45594000000E+02  0.51100000000E-03 0. -1.
         11   -1    0    0    0    0 -0.00000000000E+00 -0.00000000000E+00 -0.45593999997E+02  0.45594000000E+02  0.51100000000E-03 0.  1.
    9900012    2    1    2    0    0 -0.15233447350E+02 -0.48445773093E+01  0.97545518426E+01  0.72461571373E+02  0.70000001405E+02 0.  0.
         12    1    1    2    0    0  0.15233447350E+02  0.48445773093E+01 -0.97545518426E+01  0.18726428627E+02  0.00000000000E+00 0. -1.
         11    1    3    3    0    0 -0.12219041812E+02  0.10144862846E+02  0.66250935718E+01  0.17207994947E+02  0.51100000000E-03 0. -1.
        -11    1    3    3    0    0 -0.49901091222E+01 -0.34834470627E+01  0.27535012649E+02  0.28199512661E+02  0.51100000000E-03 0.  1.
        -12    1    3    3    0    0  0.19757035845E+01 -0.11505993093E+02 -0.24405554378E+02  0.27054063765E+02  0.00000000000E+00 0.  1.
</event>
<event>
 7    1  0.2886818E-013  0.7246158E+02  0.7816164E-02  0.1226708E+00
        -11   -1    0    0    0    0  0.00000000000E+00  0.00000000000E+00  0.45593999997E+02  0.45594000000E+02  0.51100000000E-03 0. -1.
         11   -1    0    0    0    0 -0.00000000000E+00 -0.00000000000E+00 -0.45593999997E+02  0.45594000000E+02  0.51100000000E-03 0.  1.
    9900012    2    1    2    0    0 -0.16018918950E+02  0.12633817251E+00 -0.96982948625E+01  0.72461584195E+02  0.70000018108E+02 0.  0.
         12    1    1    2    0    0  0.16018918950E+02 -0.12633817251E+00  0.96982948625E+01  0.18726415805E+02  0.00000000000E+00 0. -1.
         11    1    3    3    0    0 -0.35015317793E+02 -0.11344491132E+01 -0.86137751721E+01  0.36077092149E+02  0.51100000000E-03 0. -1.
        -11    1    3    3    0    0 -0.64316989798E+01 -0.47547816305E+01 -0.57375296330E+01  0.98434722873E+01  0.51100000000E-03 0.  1.
        -12    1    3    3    0    0  0.25428097823E+02  0.60155689162E+01  0.46530099426E+01  0.26541019758E+02  0.00000000000E+00 0.  1.
</event>
<event>
 7    1  0.2886818E-013  0.7246156E+02  0.7816164E-02  0.1226708E+00
        -11   -1    0    0    0    0  0.00000000000E+00  0.00000000000E+00  0.45593999997E+02  0.45594000000E+02  0.51100000000E-03 0.  1.
         11   -1    0    0    0    0 -0.00000000000E+00 -0.00000000000E+00 -0.45593999997E+02  0.45594000000E+02  0.51100000000E-03 0. -1.
    9900012    2    1    2    0    0  0.13935704936E+02  0.51440671019E+01  0.11402383262E+02  0.72461557666E+02  0.69999983550E+02 0.  0.
         12    1    1    2    0    0 -0.13935704936E+02 -0.51440671019E+01 -0.11402383262E+02  0.18726442334E+02  0.00000000000E+00 0. -1.
         11    1    3    3    0    0 -0.87904300837E+01 -0.16386258839E+02  0.22261848879E+02  0.29006396804E+02  0.51100000000E-03 0. -1.
        -11    1    3    3    0    0  0.12816038961E+02  0.95625275452E+01  0.89139015744E+01  0.18307114170E+02  0.51100000000E-03 0.  1.
        -12    1    3    3    0    0  0.99100960591E+01  0.11967798395E+02 -0.19773367192E+02  0.25148046692E+02  0.00000000000E+00 0.  1.
</event>
<event>
 7    1  0.2886818E-013  0.7246162E+02  0.7816164E-02  0.1226708E+00
        -11   -1    0    0    0    0  0.00000000000E+00  0.00000000000E+00  0.45593999997E+02  0.45594000000E+02  0.51100000000E-03 0.  1.
         11   -1    0    0    0    0 -0.00000000000E+00 -0.00000000000E+00 -0.45593999997E+02  0.45594000000E+02  0.51100000000E-03 0. -1.
    9900012    2    1    2    0    0  0.16636259285E+02  0.83174124471E+01 -0.21755414673E+01  0.72461616113E+02  0.70000059687E+02 0.  0.
         12    1    1    2    0    0 -0.16636259285E+02 -0.83174124471E+01  0.21755414673E+01  0.18726383887E+02  0.00000000000E+00 0. -1.
         11    1    3    3    0    0  0.64740178879E+01 -0.73951196114E+01 -0.41733998066E+01  0.10677919642E+02  0.51100000000E-03 0. -1.
        -11    1    3    3    0    0 -0.15132830680E+02 -0.14172525634E+02 -0.64822768992E+01  0.21722867244E+02  0.51100000000E-03 0.  1.
         12    1    3    3    0    0  0.25295072077E+02  0.29885057693E+02  0.84801352385E+01  0.40060829227E+02  0.00000000000E+00 0. -1.
</event>
<event>
 7    1  0.2886818E-013  0.7246155E+02  0.7816164E-02  0.1226708E+00
        -11   -1    0    0    0    0  0.00000000000E+00  0.00000000000E+00  0.45593999997E+02  0.45594000000E+02  0.51100000000E-03 0. -1.
         11   -1    0    0    0    0 -0.00000000000E+00 -0.00000000000E+00 -0.45593999997E+02  0.45594000000E+02  0.51100000000E-03 0.  1.
    9900012    2    1    2    0    0 -0.13467665275E+02  0.66279315425E+01 -0.11196975702E+02  0.72461554812E+02  0.69999979831E+02 0.  0.
         12    1    1    2    0    0  0.13467665275E+02 -0.66279315425E+01  0.11196975702E+02  0.18726445188E+02  0.00000000000E+00 0. -1.
         11    1    3    3    0    0  0.72551649896E+00 -0.22457850053E+02  0.14554001035E+02  0.26771259768E+02  0.51100000000E-03 0. -1.
        -11    1    3    3    0    0 -0.86619011232E+00 -0.13472027916E+01 -0.77303992405E+01  0.78945749316E+01  0.51100000000E-03 0.  1.
        -12    1    3    3    0    0 -0.13326991662E+02  0.30432984387E+02 -0.18020577496E+02  0.37795720112E+02  0.00000000000E+00 0.  1.
</event>
<event>
 7    1  0.2886818E-013  0.7246158E+02  0.7816164E-02  0.1226708E+00
        -11   -1    0    0    0    0  0.00000000000E+00  0.00000000000E+00  0.45593999997E+02  0.45594000000E+02  0.51100000000E-03 0. -1.
         11   -1    0    0    0    0 -0.00000000000E+00 -0.00000000000E+00 -0.45593999997E+02  0.45594000000E+02  0.51100000000E-03 0.  1.
    9900012    2    1    2    0    0 -0.40760696796E+01  0.16745411713E+02  0.73250053511E+01  0.72461578536E+02  0.70000010736E+02 0.  0.
         12    1    1    2    0    0  0.40760696796E+01 -0.16745411713E+02 -0.73250053511E+01  0.18726421464E+02  0.00000000000E+00 0. -1.
         11    1    3    3    0    0 -0.13839151052E+02  0.76063243247E+01  0.30105233668E+02  0.33995637456E+02  0.51100000000E-03 0. -1.
        -11    1    3    3    0    0 -0.75809784328E+01  0.57403835050E+01 -0.17673094962E+02  0.20068919317E+02  0.51100000000E-03 0.  1.
        -12    1    3    3    0    0  0.17344059805E+02  0.33987038832E+01 -0.51071333553E+01  0.18397021762E+02  0.00000000000E+00 0.  1.
</event>
<event>
 7    1  0.2886818E-013  0.7246156E+02  0.7816164E-02  0.1226708E+00
        -11   -1    0    0    0    0  0.00000000000E+00  0.00000000000E+00  0.45593999997E+02  0.45594000000E+02  0.51100000000E-03 0. -1.
         11   -1    0    0    0    0 -0.00000000000E+00 -0.00000000000E+00 -0.45593999997E+02  0.45594000000E+02  0.51100000000E-03 0.  1.
    9900012    2    1    2    0    0 -0.78886919391E+01  0.16732282300E+02  0.29118238536E+01  0.72461562816E+02  0.69999990258E+02 0.  0.
         12    1    1    2    0    0  0.78886919391E+01 -0.16732282300E+02 -0.29118238536E+01  0.18726437184E+02  0.00000000000E+00 0. -1.
         11    1    3    3    0    0  0.70975247521E+00 -0.69491739307E+01  0.59690107845E+01  0.91882455834E+01  0.51100000000E-03 0. -1.
        -11    1    3    3    0    0  0.15303624257E+02  0.24012319071E+02  0.16036253507E+02  0.32679562564E+02  0.51100000000E-03 0.  1.
         12    1    3    3    0    0 -0.23902068671E+02 -0.33086284075E+00 -0.19093440437E+02  0.30593754668E+02  0.00000000000E+00 0. -1.
</event>
<event>
 7    1  0.2886818E-013  0.7246159E+02  0.7816164E-02  0.1226708E+00
        -11   -1    0    0    0    0  0.00000000000E+00  0.00000000000E+00  0.45593999997E+02  0.45594000000E+02  0.51100000000E-03 0.  1.
         11   -1    0    0    0    0 -0.00000000000E+00 -0.00000000000E+00 -0.45593999997E+02  0.45594000000E+02  0.51100000000E-03 0. -1.
    9900012    2    1    2    0    0 -0.10546559282E+02 -0.12745708787E+01  0.15421548689E+02  0.72461585298E+02  0.70000019546E+02 0.  0.
         12    1    1    2    0    0  0.10546559282E+02  0.12745708787E+01 -0.15421548689E+02  0.18726414702E+02  0.00000000000E+00 0. -1.
         11    1    3    3    0    0  0.88509888907E+01 -0.18047172909E+01  0.85889482934E+01  0.12464631639E+02  0.51100000000E-03 0. -1.
        -11    1    3    3    0    0  0.69803390755E+01  0.16796108367E+02  0.19366163748E+02  0.26568452881E+02  0.51100000000E-03 0.  1.
         12    1    3    3    0    0 -0.26377887248E+02 -0.16265961955E+02 -0.12533563353E+02  0.33428500779E+02  0.00000000000E+00 0. -1.
</event>
<event>
 7    1  0.2886818E-013  0.7246156E+02  0.7816164E-02  0.1226708E+00
        -11   -1    0    0    0    0  0.00000000000E+00  0.00000000000E+00  0.45593999997E+02  0.45594000000E+02  0.51100000000E-03 0.  1.
         11   -1    0    0    0    0 -0.00000000000E+00 -0.00000000000E+00 -0.45593999997E+02  0.45594000000E+02  0.51100000000E-03 0. -1.
    9900012    2    1    2    0    0 -0.10536564557E+02  0.91836413512E+01  0.12462786725E+02  0.72461561094E+02  0.69999988015E+02 0.  0.
         12    1    1    2    0    0  0.10536564557E+02 -0.91836413512E+01 -0.12462786725E+02  0.18726438906E+02  0.00000000000E+00 0. -1.
         11    1    3    3    0    0 -0.20928234644E+02  0.23911318208E+02 -0.96705357661E+01  0.33215379058E+02  0.51100000000E-03 0. -1.
        -11    1    3    3    0    0 -0.58064016165E+01 -0.57003610571E+01 -0.24089257141E+01  0.84859495209E+01  0.51100000000E-03 0.  1.
        -12    1    3    3    0    0  0.16198071703E+02 -0.90273157992E+01  0.24542248205E+02  0.30760232515E+02  0.00000000000E+00 0.  1.
</event>
<event>
 7    1  0.2886818E-013  0.7246157E+02  0.7816164E-02  0.1226708E+00
        -11   -1    0    0    0    0  0.00000000000E+00  0.00000000000E+00  0.45593999997E+02  0.45594000000E+02  0.51100000000E-03 0. -1.
         11   -1    0    0    0    0 -0.00000000000E+00 -0.00000000000E+00 -0.45593999997E+02  0.45594000000E+02  0.51100000000E-03 0.  1.
    9900012    2    1    2    0    0 -0.14121740483E+01  0.16024523451E+02  0.95864199507E+01  0.72461573891E+02  0.70000004685E+02 0.  0.
         12    1    1    2    0    0  0.14121740483E+01 -0.16024523451E+02 -0.95864199507E+01  0.18726426109E+02  0.00000000000E+00 0. -1.
         11    1    3    3    0    0 -0.29318758894E+02  0.51880290248E+01 -0.73463432198E+01  0.30667148991E+02  0.51100000000E-03 0. -1.
        -11    1    3    3    0    0  0.78074232070E+01  0.12738541626E+02 -0.74566620680E+00  0.14959355543E+02  0.51100000000E-03 0.  1.
        -12    1    3    3    0    0  0.20099161639E+02 -0.19020472006E+01  0.17678429377E+02  0.26835069357E+02  0.00000000000E+00 0.  1.
</event>
<event>
 7    1  0.2886818E-013  0.7246161E+02  0.7816164E-02  0.1226708E+00
        -11   -1    0    0    0    0  0.00000000000E+00  0.00000000000E+00  0.45593999997E+02  0.45594000000E+02  0.51100000000E-03 0.  1.
         11   -1    0    0    0    0 -0.00000000000E+00 -0.00000000000E+00 -0.45593999997E+02  0.45594000000E+02  0.51100000000E-03 0. -1.
    9900012    2    1    2    0    0 -0.31060205436E+01  0.18402232818E+02  0.15454132044E+01  0.72461605839E+02  0.70000046303E+02 0.  0.
         12    1    1    2    0    0  0.31060205436E+01 -0.18402232818E+02 -0.15454132044E+01  0.18726394161E+02  0.00000000000E+00 0. -1.
         11    1    3    3    0    0 -0.56862392847E+01  0.12506238572E+02 -0.24568048084E+02  0.28148326901E+02  0.51100000000E-03 0. -1.
        -11    1    3    3    0    0 -0.14312984298E+02  0.67575366988E+01  0.37376427185E+01  0.16263326692E+02  0.51100000000E-03 0.  1.
        -12    1    3    3    0    0  0.16893203039E+02 -0.86154245269E+00  0.22375818570E+02  0.28049952246E+02  0.00000000000E+00 0.  1.
</event>
<event>
 7    1  0.2886818E-013  0.7246131E+02  0.7816164E-02  0.1226709E+00
        -11   -1    0    0    0    0  0.00000000000E+00  0.00000000000E+00  0.45593999997E+02  0.45594000000E+02  0.51100000000E-03 0.  1.
         11   -1    0    0    0    0 -0.00000000000E+00 -0.00000000000E+00 -0.45593999997E+02  0.45594000000E+02  0.51100000000E-03 0. -1.
    9900012    2    1    2    0    0 -0.90722455347E+01 -0.86360365548E+01  0.13921278151E+02  0.72461314448E+02  0.69999666711E+02 0.  0.
         12    1    1    2    0    0  0.90722455347E+01  0.86360365548E+01 -0.13921278151E+02  0.18726685552E+02  0.00000000000E+00 0. -1.
         11    1    3    3    0    0 -0.14322499803E+02 -0.95813646619E+01  0.65406990941E+01  0.18431421385E+02  0.51100000000E-03 0. -1.
        -11    1    3    3    0    0 -0.18652400615E+02 -0.42596674300E+01  0.18985712718E+02  0.26953925558E+02  0.51100000000E-03 0.  1.
         12    1    3    3    0    0  0.23902654883E+02  0.52049955371E+01 -0.11605133661E+02  0.27075967504E+02  0.00000000000E+00 0. -1.
</event>
<event>
 7    1  0.2886818E-013  0.7246159E+02  0.7816164E-02  0.1226708E+00
        -11   -1    0    0    0    0  0.00000000000E+00  0.00000000000E+00  0.45593999997E+02  0.45594000000E+02  0.51100000000E-03 0. -1.
         11   -1    0    0    0    0 -0.00000000000E+00 -0.00000000000E+00 -0.45593999997E+02  0.45594000000E+02  0.51100000000E-03 0.  1.
    9900012    2    1    2    0    0  0.92604168893E+01 -0.48018355293E+01 -0.15552027718E+02  0.72461587862E+02  0.70000022886E+02 0.  0.
         12    1    1    2    0    0 -0.92604168893E+01  0.48018355293E+01  0.15552027718E+02  0.18726412138E+02  0.00000000000E+00 0. -1.
         11    1    3    3    0    0 -0.17199410519E+02  0.17610244670E+02 -0.21847598129E+02  0.32912884769E+02  0.51100000000E-03 0. -1.
        -11    1    3    3    0    0  0.43313010833E+01  0.10546747262E+01  0.57678630566E+01  0.72897703910E+01  0.51100000000E-03 0.  1.
        -12    1    3    3    0    0  0.22128526325E+02 -0.23466754926E+02  0.52770735468E+00  0.32258932703E+02  0.00000000000E+00 0.  1.
</event>
<event>
 7    1  0.2886818E-013  0.7246155E+02  0.7816164E-02  0.1226708E+00
        -11   -1    0    0    0    0  0.00000000000E+00  0.00000000000E+00  0.45593999997E+02  0.45594000000E+02  0.51100000000E-03 0. -1.
         11   -1    0    0    0    0 -0.00000000000E+00 -0.00000000000E+00 -0.45593999997E+02  0.45594000000E+02  0.51100000000E-03 0.  1.
    9900012    2    1    2    0    0 -0.42376790056E+01 -0.53681323700E+01 -0.17432880454E+02  0.72461545733E+02  0.69999968005E+02 0.  0.
         12    1    1    2    0    0  0.42376790056E+01  0.53681323700E+01  0.17432880454E+02  0.18726454267E+02  0.00000000000E+00 0. -1.
         11    1    3    3    0    0  0.53712681968E+01 -0.11825751882E+02 -0.39381620219E+01  0.13572326624E+02  0.51100000000E-03 0. -1.
        -11    1    3    3    0    0  0.21677347553E+02  0.10189335918E+02  0.14908883148E+01  0.23999014805E+02  0.51100000000E-03 0.  1.
        -12    1    3    3    0    0 -0.31286294755E+02 -0.37317164064E+01 -0.14985606747E+02  0.34890204305E+02  0.00000000000E+00 0.  1.
</event>
<event>
 7    1  0.2886818E-013  0.7246157E+02  0.7816164E-02  0.1226708E+00
        -11   -1    0    0    0    0  0.00000000000E+00  0.00000000000E+00  0.45593999997E+02  0.45594000000E+02  0.51100000000E-03 0.  1.
         11   -1    0    0    0    0 -0.00000000000E+00 -0.00000000000E+00 -0.45593999997E+02  0.45594000000E+02  0.51100000000E-03 0. -1.
    9900012    2    1    2    0    0  0.85770202901E+01  0.43137172963E+01  0.16078108186E+02  0.72461574906E+02  0.70000006007E+02 0.  0.
         12    1    1    2    0    0 -0.85770202901E+01 -0.43137172963E+01 -0.16078108186E+02  0.18726425094E+02  0.00000000000E+00 0. -1.
         11    1    3    3    0    0  0.91655123037E+01  0.85378732270E+01  0.17094189750E+02  0.21192291488E+02  0.51100000000E-03 0. -1.
        -11    1    3    3    0    0  0.18182450067E+02 -0.42785471913E+01  0.16996021081E+02  0.25254151923E+02  0.51100000000E-03 0.  1.
         12    1    3    3    0    0 -0.18770942081E+02  0.54391260660E-01 -0.18012102645E+02  0.26015131495E+02  0.00000000000E+00 0. -1.
</event>
<event>
 7    1  0.2886818E-013  0.7246156E+02  0.7816164E-02  0.1226708E+00
        -11   -1    0    0    0    0  0.00000000000E+00  0.00000000000E+00  0.45593999997E+02  0.45594000000E+02  0.51100000000E-03 0.  1.
         11   -1    0    0    0    0 -0.00000000000E+00 -0.00000000000E+00 -0.45593999997E+02  0.45594000000E+02  0.51100000000E-03 0. -1.
    9900012    2    1    2    0    0  0.73576550801E+01 -0.40646985243E+01  0.16733877176E+02  0.72461561264E+02  0.69999988237E+02 0.  0.
         12    1    1    2    0    0 -0.73576550801E+01  0.40646985243E+01 -0.16733877176E+02  0.18726438736E+02  0.00000000000E+00 0. -1.
         11    1    3    3    0    0  0.10435563343E+02 -0.59617914962E+01 -0.16657673795E+02  0.20540740898E+02  0.51100000000E-03 0. -1.
        -11    1    3    3    0    0  0.94618812768E+01  0.46506328507E+01 -0.48328700555E+01  0.11597940181E+02  0.51100000000E-03 0.  1.
        -12    1    3    3    0    0 -0.12539789540E+02 -0.27535398787E+01  0.38224421027E+02  0.40322880185E+02  0.00000000000E+00 0.  1.
</event>
<event>
 7    1  0.2886818E-013  0.7246151E+02  0.7816164E-02  0.1226708E+00
        -11   -1    0    0    0    0  0.00000000000E+00  0.00000000000E+00  0.45593999997E+02  0.45594000000E+02  0.51100000000E-03 0.  1.
         11   -1    0    0    0    0 -0.00000000000E+00 -0.00000000000E+00 -0.45593999997E+02  0.45594000000E+02  0.51100000000E-03 0. -1.
    9900012    2    1    2    0    0  0.79412748911E+01 -0.96055069064E+01  0.13976837213E+02  0.72461505713E+02  0.69999915870E+02 0.  0.
         12    1    1    2    0    0 -0.79412748911E+01  0.96055069064E+01 -0.13976837213E+02  0.18726494287E+02  0.00000000000E+00 0. -1.
         11    1    3    3    0    0  0.12116893580E+02  0.45389869142E+01  0.10346648403E+01  0.12980448522E+02  0.51100000000E-03 0. -1.
        -11    1    3    3    0    0 -0.19550286589E+02  0.14644089742E+02  0.10992169388E+02  0.26786019827E+02  0.51100000000E-03 0.  1.
         12    1    3    3    0    0  0.15374667900E+02 -0.28788583562E+02  0.19500029848E+01  0.32695037363E+02  0.00000000000E+00 0. -1.
</event>
<event>
 7    1  0.2886818E-013  0.7246162E+02  0.7816164E-02  0.1226708E+00
        -11   -1    0    0    0    0  0.00000000000E+00  0.00000000000E+00  0.45593999997E+02  0.45594000000E+02  0.51100000000E-03 0.  1.
         11   -1    0    0    0    0 -0.00000000000E+00 -0.00000000000E+00 -0.45593999997E+02  0.45594000000E+02  0.51100000000E-03 0. -1.
    9900012    2    1    2    0    0  0.11427087226E+02  0.13567394869E+02 -0.60020564457E+01  0.72461622679E+02  0.70000068240E+02 0.  0.
         12    1    1    2    0    0 -0.11427087226E+02 -0.13567394869E+02  0.60020564457E+01  0.18726377321E+02  0.00000000000E+00 0. -1.
         11    1    3    3    0    0 -0.16444074183E+01 -0.63260556958E+01  0.68711159843E+01  0.94834219327E+01  0.51100000000E-03 0. -1.
        -11    1    3    3    0    0 -0.85483029872E+01  0.28173208821E+02  0.93465286938E+01  0.30889493006E+02  0.51100000000E-03 0.  1.
         12    1    3    3    0    0  0.21619797632E+02 -0.82797582566E+01 -0.22219701124E+02  0.32088707740E+02  0.00000000000E+00 0. -1.
</event>
<event>
 7    1  0.2886818E-013  0.7246156E+02  0.7816164E-02  0.1226708E+00
        -11   -1    0    0    0    0  0.00000000000E+00  0.00000000000E+00  0.45593999997E+02  0.45594000000E+02  0.51100000000E-03 0.  1.
         11   -1    0    0    0    0 -0.00000000000E+00 -0.00000000000E+00 -0.45593999997E+02  0.45594000000E+02  0.51100000000E-03 0. -1.
    9900012    2    1    2    0    0  0.77496346315E+01  0.15153259747E+02  0.78103322763E+01  0.72461563923E+02  0.69999991700E+02 0.  0.
         12    1    1    2    0    0 -0.77496346315E+01 -0.15153259747E+02 -0.78103322763E+01  0.18726436077E+02  0.00000000000E+00 0. -1.
         11    1    3    3    0    0 -0.13783979150E+01 -0.43595977303E+01  0.43132706626E+01  0.62857280606E+01  0.51100000000E-03 0. -1.
        -11    1    3    3    0    0 -0.16211377451E+02  0.25461575997E+02  0.19203889227E+02  0.35775549930E+02  0.51100000000E-03 0.  1.
         12    1    3    3    0    0  0.25339409998E+02 -0.59487185196E+01 -0.15706827613E+02  0.30400285932E+02  0.00000000000E+00 0. -1.
</event>
<event>
 7    1  0.2886818E-013  0.7246166E+02  0.7816164E-02  0.1226708E+00
        -11   -1    0    0    0    0  0.00000000000E+00  0.00000000000E+00  0.45593999997E+02  0.45594000000E+02  0.51100000000E-03 0.  1.
         11   -1    0    0    0    0 -0.00000000000E+00 -0.00000000000E+00 -0.45593999997E+02  0.45594000000E+02  0.51100000000E-03 0. -1.
    9900012    2    1    2    0    0 -0.11446879211E+02  0.84322711222E+00  0.14796410842E+02  0.72461658942E+02  0.70000115479E+02 0.  0.
         12    1    1    2    0    0  0.11446879211E+02 -0.84322711222E+00 -0.14796410842E+02  0.18726341058E+02  0.00000000000E+00 0. -1.
         11    1    3    3    0    0 -0.19930018914E+01 -0.22830944375E+01 -0.15900457063E+02  0.16186695519E+02  0.51100000000E-03 0. -1.
        -11    1    3    3    0    0 -0.39068432836E+01  0.20966097413E+02  0.12016073765E+01  0.21360817534E+02  0.51100000000E-03 0.  1.
        -12    1    3    3    0    0 -0.55470340363E+01 -0.17839775863E+02  0.29495260529E+02  0.34914145888E+02  0.00000000000E+00 0.  1.
</event>
<event>
 7    1  0.2886818E-013  0.7246156E+02  0.7816164E-02  0.1226708E+00
        -11   -1    0    0    0    0  0.00000000000E+00  0.00000000000E+00  0.45593999997E+02  0.45594000000E+02  0.51100000000E-03 0.  1.
         11   -1    0    0    0    0 -0.00000000000E+00 -0.00000000000E+00 -0.45593999997E+02  0.45594000000E+02  0.51100000000E-03 0. -1.
    9900012    2    1    2    0    0 -0.83721555209E+01 -0.73177342826E+01  0.15067762484E+02  0.72461556414E+02  0.69999981919E+02 0.  0.
         12    1    1    2    0    0  0.83721555209E+01  0.73177342826E+01 -0.15067762484E+02  0.18726443586E+02  0.00000000000E+00 0. -1.
         11    1    3    3    0    0  0.20765637765E+02  0.19810627941E+01 -0.31834881945E+01  0.21101443527E+02  0.51100000000E-03 0.  1.
        -11    1    3    3    0    0 -0.19656833076E+02  0.18186216220E+01 -0.80131096889E+01  0.21305126105E+02  0.51100000000E-03 0. -1.
        -12    1    3    3    0    0 -0.94809602093E+01 -0.11117418699E+02  0.26264360367E+02  0.30054986783E+02  0.00000000000E+00 0.  1.
</event>
<event>
 7    1  0.2886818E-013  0.7246110E+02  0.7816164E-02  0.1226709E+00
        -11   -1    0    0    0    0  0.00000000000E+00  0.00000000000E+00  0.45593999997E+02  0.45594000000E+02  0.51100000000E-03 0. -1.
         11   -1    0    0    0    0 -0.00000000000E+00 -0.00000000000E+00 -0.45593999997E+02  0.45594000000E+02  0.51100000000E-03 0.  1.
    9900012    2    1    2    0    0 -0.64925736964E+01  0.10842999683E+02 -0.13819290494E+02  0.72461095688E+02  0.69999381735E+02 0.  0.
         12    1    1    2    0    0  0.64925736964E+01 -0.10842999683E+02  0.13819290494E+02  0.18726904312E+02  0.00000000000E+00 0. -1.
         11    1    3    3    0    0  0.60032054641E+00  0.17110758332E+02 -0.64177174557E+01  0.18284570902E+02  0.51100000000E-03 0. -1.
        -11    1    3    3    0    0  0.77625744318E+01 -0.18222627747E+02 -0.22411069684E+02  0.29909492949E+02  0.51100000000E-03 0.  1.
         12    1    3    3    0    0 -0.14855468675E+02  0.11954869098E+02  0.15009496645E+02  0.24267031838E+02  0.00000000000E+00 0. -1.
</event>
<event>
 7    1  0.2886818E-013  0.7246158E+02  0.7816164E-02  0.1226708E+00
        -11   -1    0    0    0    0  0.00000000000E+00  0.00000000000E+00  0.45593999997E+02  0.45594000000E+02  0.51100000000E-03 0.  1.
         11   -1    0    0    0    0 -0.00000000000E+00 -0.00000000000E+00 -0.45593999997E+02  0.45594000000E+02  0.51100000000E-03 0. -1.
    9900012    2    1    2    0    0 -0.17545818295E+02 -0.64994531972E+01 -0.76174714054E+00  0.72461577752E+02  0.70000009715E+02 0.  0.
         12    1    1    2    0    0  0.17545818295E+02  0.64994531972E+01  0.76174714054E+00  0.18726422248E+02  0.00000000000E+00 0. -1.
         11    1    3    3    0    0 -0.78797170275E+01 -0.17126565024E+02 -0.14340674786E+02  0.23686792174E+02  0.51100000000E-03 0. -1.
        -11    1    3    3    0    0  0.11002731303E+01  0.37171530372E+01  0.28704197189E+02  0.28964784898E+02  0.51100000000E-03 0.  1.
        -12    1    3    3    0    0 -0.10766374398E+02  0.69099587893E+01 -0.15125269544E+02  0.19810000680E+02  0.00000000000E+00 0.  1.
</event>
<event>
 7    1  0.2886818E-013  0.7246156E+02  0.7816164E-02  0.1226708E+00
        -11   -1    0    0    0    0  0.00000000000E+00  0.00000000000E+00  0.45593999997E+02  0.45594000000E+02  0.51100000000E-03 0. -1.
         11   -1    0    0    0    0 -0.00000000000E+00 -0.00000000000E+00 -0.45593999997E+02  0.45594000000E+02  0.51100000000E-03 0.  1.
    9900012    2    1    2    0    0  0.17318907249E+02  0.68403774326E+01  0.19860226136E+01  0.72461558866E+02  0.69999985113E+02 0.  0.
         12    1    1    2    0    0 -0.17318907249E+02 -0.68403774326E+01 -0.19860226136E+01  0.18726441134E+02  0.00000000000E+00 0. -1.
         11    1    3    3    0    0  0.20210977089E+02 -0.24816089478E+00  0.99843292100E+01  0.22544001614E+02  0.51100000000E-03 0. -1.
        -11    1    3    3    0    0  0.15976150962E+02 -0.12410220194E+02  0.33523728106E+01  0.20505837426E+02  0.51100000000E-03 0.  1.
         12    1    3    3    0    0 -0.18868220803E+02  0.19498758521E+02 -0.11350679407E+02  0.29411719826E+02  0.00000000000E+00 0. -1.
</event>
<event>
 7    1  0.2886818E-013  0.7246156E+02  0.7816164E-02  0.1226708E+00
        -11   -1    0    0    0    0  0.00000000000E+00  0.00000000000E+00  0.45593999997E+02  0.45594000000E+02  0.51100000000E-03 0.  1.
         11   -1    0    0    0    0 -0.00000000000E+00 -0.00000000000E+00 -0.45593999997E+02  0.45594000000E+02  0.51100000000E-03 0. -1.
    9900012    2    1    2    0    0  0.57655092226E+00 -0.12999484432E+02  0.13467021725E+02  0.72461556648E+02  0.69999982224E+02 0.  0.
         12    1    1    2    0    0 -0.57655092226E+00  0.12999484432E+02 -0.13467021725E+02  0.18726443352E+02  0.00000000000E+00 0. -1.
         11    1    3    3    0    0 -0.29091402073E+01  0.63779241309E+01 -0.45091488951E+01  0.83350727042E+01  0.51100000000E-03 0. -1.
        -11    1    3    3    0    0 -0.12700488561E+02  0.53594015713E+01  0.29370612773E+02  0.32444698947E+02  0.51100000000E-03 0.  1.
        -12    1    3    3    0    0  0.16186179690E+02 -0.24736810135E+02 -0.11394442153E+02  0.31681784997E+02  0.00000000000E+00 0.  1.
</event>
<event>
 7    1  0.2886818E-013  0.7246156E+02  0.7816164E-02  0.1226708E+00
        -11   -1    0    0    0    0  0.00000000000E+00  0.00000000000E+00  0.45593999997E+02  0.45594000000E+02  0.51100000000E-03 0.  1.
         11   -1    0    0    0    0 -0.00000000000E+00 -0.00000000000E+00 -0.45593999997E+02  0.45594000000E+02  0.51100000000E-03 0. -1.
    9900012    2    1    2    0    0 -0.46670407010E+01  0.37738269139E+01  0.17738562078E+02  0.72461558185E+02  0.69999984225E+02 0.  0.
         12    1    1    2    0    0  0.46670407010E+01 -0.37738269139E+01 -0.17738562078E+02  0.18726441815E+02  0.00000000000E+00 0. -1.
         11    1    3    3    0    0  0.27438159913E+02  0.26070448304E+01 -0.39613311870E+01  0.27844953712E+02  0.51100000000E-03 0. -1.
        -11    1    3    3    0    0 -0.76704846886E+01  0.28594265470E+01 -0.40028327755E+01  0.91123721404E+01  0.51100000000E-03 0.  1.
        -12    1    3    3    0    0 -0.24434715926E+02 -0.16926444634E+01  0.25702726040E+02  0.35504232333E+02  0.00000000000E+00 0.  1.
</event>
<event>
 7    1  0.2886818E-013  0.7246157E+02  0.7816164E-02  0.1226708E+00
        -11   -1    0    0    0    0  0.00000000000E+00  0.00000000000E+00  0.45593999997E+02  0.45594000000E+02  0.51100000000E-03 0.  1.
         11   -1    0    0    0    0 -0.00000000000E+00 -0.00000000000E+00 -0.45593999997E+02  0.45594000000E+02  0.51100000000E-03 0. -1.
    9900012    2    1    2    0    0 -0.60110276598E+01  0.77062376321E+01  0.15973745966E+02  0.72461571826E+02  0.70000001996E+02 0.  0.
         12    1    1    2    0    0  0.60110276598E+01 -0.77062376321E+01 -0.15973745966E+02  0.18726428174E+02  0.00000000000E+00 0. -1.
         11    1    3    3    0    0  0.13510752775E+02 -0.16205798871E+02  0.13064914737E+02  0.24816533902E+02  0.51100000000E-03 0.  1.
        -11    1    3    3    0    0 -0.25879379256E+02  0.34274732920E+01  0.18320371864E+01  0.26169566377E+02  0.51100000000E-03 0. -1.
        -12    1    3    3    0    0  0.63575988219E+01  0.20484563211E+02  0.10767940424E+01  0.21475471547E+02  0.00000000000E+00 0.  1.
</event>
<event>
 7    1  0.2886818E-013  0.7246195E+02  0.7816164E-02  0.1226707E+00
        -11   -1    0    0    0    0  0.00000000000E+00  0.00000000000E+00  0.45593999997E+02  0.45594000000E+02  0.51100000000E-03 0.  1.
         11   -1    0    0    0    0 -0.00000000000E+00 -0.00000000000E+00 -0.45593999997E+02  0.45594000000E+02  0.51100000000E-03 0. -1.
    9900012    2    1    2    0    0 -0.16297165637E+02  0.81592216155E+01 -0.43005071441E+01  0.72461952182E+02  0.70000497478E+02 0.  0.
         12    1    1    2    0    0  0.16297165637E+02 -0.81592216155E+01  0.43005071441E+01  0.18726047818E+02  0.00000000000E+00 0. -1.
         11    1    3    3    0    0  0.60378633577E+01  0.10314255138E+02  0.11272314161E+00  0.11952086000E+02  0.51100000000E-03 0. -1.
        -11    1    3    3    0    0 -0.18945968361E+02  0.99344339478E+01  0.22356012004E+02  0.30942429898E+02  0.51100000000E-03 0.  1.
         12    1    3    3    0    0 -0.33890606339E+01 -0.12089467471E+02 -0.26769242289E+02  0.29567436285E+02  0.00000000000E+00 0. -1.
</event>
<event>
 7    1  0.2886818E-013  0.7246154E+02  0.7816164E-02  0.1226708E+00
        -11   -1    0    0    0    0  0.00000000000E+00  0.00000000000E+00  0.45593999997E+02  0.45594000000E+02  0.51100000000E-03 0.  1.
         11   -1    0    0    0    0 -0.00000000000E+00 -0.00000000000E+00 -0.45593999997E+02  0.45594000000E+02  0.51100000000E-03 0. -1.
    9900012    2    1    2    0    0 -0.67594224373E+00 -0.16731952666E+02  0.83824354435E+01  0.72461538458E+02  0.69999958527E+02 0.  0.
         12    1    1    2    0    0  0.67594224373E+00  0.16731952666E+02 -0.83824354435E+01  0.18726461542E+02  0.00000000000E+00 0. -1.
         11    1    3    3    0    0  0.23832198455E+01 -0.16761939696E+02 -0.16501862979E+02  0.23642204661E+02  0.51100000000E-03 0. -1.
        -11    1    3    3    0    0  0.87021249883E+01  0.37349636344E+01 -0.88133000601E+01  0.12936428830E+02  0.51100000000E-03 0.  1.
        -12    1    3    3    0    0 -0.11761287078E+02 -0.37049766041E+01  0.33697598483E+02  0.35882904967E+02  0.00000000000E+00 0.  1.
</event>
<event>
 7    1  0.2886818E-013  0.7246146E+02  0.7816164E-02  0.1226708E+00
        -11   -1    0    0    0    0  0.00000000000E+00  0.00000000000E+00  0.45593999997E+02  0.45594000000E+02  0.51100000000E-03 0.  1.
         11   -1    0    0    0    0 -0.00000000000E+00 -0.00000000000E+00 -0.45593999997E+02  0.45594000000E+02  0.51100000000E-03 0. -1.
    9900012    2    1    2    0    0 -0.92934183464E+01  0.15260640347E+02  0.56061154285E+01  0.72461460049E+02  0.69999856384E+02 0.  0.
         12    1    1    2    0    0  0.92934183464E+01 -0.15260640347E+02 -0.56061154285E+01  0.18726539951E+02  0.00000000000E+00 0. -1.
         11    1    3    3    0    0  0.65705113060E+01 -0.11412288268E+02  0.10151265498E+00  0.13168988094E+02  0.51100000000E-03 0. -1.
        -11    1    3    3    0    0  0.15565028604E+02  0.13191673572E+02  0.13118749279E+02  0.24256791832E+02  0.51100000000E-03 0.  1.
         12    1    3    3    0    0 -0.31428958257E+02  0.13481255043E+02 -0.76141465050E+01  0.35035680122E+02  0.00000000000E+00 0. -1.
</event>
<event>
 7    1  0.2886818E-013  0.7246156E+02  0.7816164E-02  0.1226708E+00
        -11   -1    0    0    0    0  0.00000000000E+00  0.00000000000E+00  0.45593999997E+02  0.45594000000E+02  0.51100000000E-03 0. -1.
         11   -1    0    0    0    0 -0.00000000000E+00 -0.00000000000E+00 -0.45593999997E+02  0.45594000000E+02  0.51100000000E-03 0.  1.
    9900012    2    1    2    0    0  0.11633122092E+02 -0.13855018766E+02 -0.48361676380E+01  0.72461559013E+02  0.69999985304E+02 0.  0.
         12    1    1    2    0    0 -0.11633122092E+02  0.13855018766E+02  0.48361676380E+01  0.18726440987E+02  0.00000000000E+00 0. -1.
         11    1    3    3    0    0  0.17941343702E+02  0.14437507634E+02  0.27553630765E+01  0.23193220270E+02  0.51100000000E-03 0. -1.
        -11    1    3    3    0    0  0.71084659615E+01  0.58290030690E+01 -0.86022122370E+01  0.12589901538E+02  0.51100000000E-03 0.  1.
         12    1    3    3    0    0 -0.13416687571E+02 -0.34121529469E+02  0.10106815224E+01  0.36678437205E+02  0.00000000000E+00 0. -1.
</event>
<event>
 7    1  0.2886818E-013  0.7246155E+02  0.7816164E-02  0.1226708E+00
        -11   -1    0    0    0    0  0.00000000000E+00  0.00000000000E+00  0.45593999997E+02  0.45594000000E+02  0.51100000000E-03 0.  1.
         11   -1    0    0    0    0 -0.00000000000E+00 -0.00000000000E+00 -0.45593999997E+02  0.45594000000E+02  0.51100000000E-03 0. -1.
    9900012    2    1    2    0    0 -0.12083400921E+02 -0.57565346820E+01  0.13097080379E+02  0.72461553893E+02  0.69999978634E+02 0.  0.
         12    1    1    2    0    0  0.12083400921E+02  0.57565346820E+01 -0.13097080379E+02  0.18726446107E+02  0.00000000000E+00 0. -1.
         11    1    3    3    0    0  0.18411330756E+02  0.73166854506E+01 -0.12394123675E+01  0.19850620380E+02  0.51100000000E-03 0. -1.
        -11    1    3    3    0    0  0.18016555928E+01 -0.83092093276E+01 -0.90769505050E+01  0.12437039570E+02  0.51100000000E-03 0.  1.
        -12    1    3    3    0    0 -0.32296387270E+02 -0.47640108050E+01  0.23413443251E+02  0.40173893943E+02  0.00000000000E+00 0.  1.
</event>
<event>
 7    1  0.2886818E-013  0.7246157E+02  0.7816164E-02  0.1226708E+00
        -11   -1    0    0    0    0  0.00000000000E+00  0.00000000000E+00  0.45593999997E+02  0.45594000000E+02  0.51100000000E-03 0. -1.
         11   -1    0    0    0    0 -0.00000000000E+00 -0.00000000000E+00 -0.45593999997E+02  0.45594000000E+02  0.51100000000E-03 0.  1.
    9900012    2    1    2    0    0  0.36692603244E-01 -0.16874134240E+01 -0.18650210618E+02  0.72461573045E+02  0.70000003583E+02 0.  0.
         12    1    1    2    0    0 -0.36692603244E-01  0.16874134240E+01  0.18650210618E+02  0.18726426955E+02  0.00000000000E+00 0. -1.
         11    1    3    3    0    0 -0.71708463520E+01  0.10905145062E+02  0.21123528520E+02  0.24830358105E+02  0.51100000000E-03 0. -1.
        -11    1    3    3    0    0 -0.14102167244E+01  0.57480030316E+01 -0.98589423626E+01  0.11498999732E+02  0.51100000000E-03 0.  1.
        -12    1    3    3    0    0  0.86177556796E+01 -0.18340561518E+02 -0.29914796775E+02  0.36132215208E+02  0.00000000000E+00 0.  1.
</event>
<event>
 7    1  0.2886818E-013  0.7246159E+02  0.7816164E-02  0.1226708E+00
        -11   -1    0    0    0    0  0.00000000000E+00  0.00000000000E+00  0.45593999997E+02  0.45594000000E+02  0.51100000000E-03 0.  1.
         11   -1    0    0    0    0 -0.00000000000E+00 -0.00000000000E+00 -0.45593999997E+02  0.45594000000E+02  0.51100000000E-03 0. -1.
    9900012    2    1    2    0    0  0.11656857246E+02 -0.11037745271E+02  0.96418004911E+01  0.72461589286E+02  0.70000024740E+02 0.  0.
         12    1    1    2    0    0 -0.11656857246E+02  0.11037745271E+02 -0.96418004911E+01  0.18726410714E+02  0.00000000000E+00 0. -1.
         11    1    3    3    0    0  0.89583972484E+01  0.38064532566E+01 -0.20158317284E+02  0.22385256837E+02  0.51100000000E-03 0. -1.
        -11    1    3    3    0    0  0.15363587060E+02 -0.20848614600E+02  0.16206640812E+02  0.30550936888E+02  0.51100000000E-03 0.  1.
        -12    1    3    3    0    0 -0.12665127062E+02  0.60044160719E+01  0.13593476963E+02  0.19525395561E+02  0.00000000000E+00 0.  1.
</event>
<event>
 7    1  0.2886818E-013  0.7246158E+02  0.7816164E-02  0.1226708E+00
        -11   -1    0    0    0    0  0.00000000000E+00  0.00000000000E+00  0.45593999997E+02  0.45594000000E+02  0.51100000000E-03 0.  1.
         11   -1    0    0    0    0 -0.00000000000E+00 -0.00000000000E+00 -0.45593999997E+02  0.45594000000E+02  0.51100000000E-03 0. -1.
    9900012    2    1    2    0    0  0.12974983276E+02 -0.82037689522E+01  0.10725060812E+02  0.72461576277E+02  0.70000007793E+02 0.  0.
         12    1    1    2    0    0 -0.12974983276E+02  0.82037689522E+01 -0.10725060812E+02  0.18726423723E+02  0.00000000000E+00 0. -1.
         11    1    3    3    0    0  0.83692586768E+01 -0.11427990560E+02 -0.78504063163E+01  0.16194824439E+02  0.51100000000E-03 0. -1.
        -11    1    3    3    0    0  0.17219434252E+02  0.53265946946E+01  0.32622552053E+02  0.37270798619E+02  0.51100000000E-03 0.  1.
         12    1    3    3    0    0 -0.12613709653E+02 -0.21023730872E+01 -0.14047084924E+02  0.18995953218E+02  0.00000000000E+00 0. -1.
</event>
<event>
 7    1  0.2886818E-013  0.7246161E+02  0.7816164E-02  0.1226708E+00
        -11   -1    0    0    0    0  0.00000000000E+00  0.00000000000E+00  0.45593999997E+02  0.45594000000E+02  0.51100000000E-03 0. -1.
         11   -1    0    0    0    0 -0.00000000000E+00 -0.00000000000E+00 -0.45593999997E+02  0.45594000000E+02  0.51100000000E-03 0.  1.
    9900012    2    1    2    0    0 -0.70608449557E+01 -0.16207693929E+02 -0.61751737335E+01  0.72461611009E+02  0.70000053039E+02 0.  0.
         12    1    1    2    0    0  0.70608449557E+01  0.16207693929E+02  0.61751737335E+01  0.18726388991E+02  0.00000000000E+00 0. -1.
         11    1    3    3    0    0  0.82468116597E+01 -0.57601731205E+01  0.22518444454E+02  0.24663127090E+02  0.51100000000E-03 0. -1.
        -11    1    3    3    0    0 -0.17936686048E+02 -0.34400079770E+01 -0.12319707861E+00  0.18263995703E+02  0.51100000000E-03 0.  1.
        -12    1    3    3    0    0  0.26290294327E+01 -0.70075128315E+01 -0.28570421109E+02  0.29534488216E+02  0.00000000000E+00 0.  1.
</event>
<event>
 7    1  0.2886818E-013  0.7246145E+02  0.7816164E-02  0.1226708E+00
        -11   -1    0    0    0    0  0.00000000000E+00  0.00000000000E+00  0.45593999997E+02  0.45594000000E+02  0.51100000000E-03 0. -1.
         11   -1    0    0    0    0 -0.00000000000E+00 -0.00000000000E+00 -0.45593999997E+02  0.45594000000E+02  0.51100000000E-03 0.  1.
    9900012    2    1    2    0    0 -0.81735152396E+00  0.16786600824E+02 -0.82598769386E+01  0.72461452059E+02  0.69999845977E+02 0.  0.
         12    1    1    2    0    0  0.81735152396E+00 -0.16786600824E+02  0.82598769386E+01  0.18726547941E+02  0.00000000000E+00 0. -1.
         11    1    3    3    0    0  0.62039546036E+01 -0.12467713500E+02  0.66451404257E+01  0.15430191968E+02  0.51100000000E-03 0. -1.
        -11    1    3    3    0    0  0.12625981878E+02  0.12354809964E+02  0.10656664787E+02  0.20630590207E+02  0.51100000000E-03 0.  1.
        -12    1    3    3    0    0 -0.19647288006E+02  0.16899504360E+02 -0.25561682152E+02  0.36400669884E+02  0.00000000000E+00 0.  1.
</event>
<event>
 7    1  0.2886818E-013  0.7246159E+02  0.7816164E-02  0.1226708E+00
        -11   -1    0    0    0    0  0.00000000000E+00  0.00000000000E+00  0.45593999997E+02  0.45594000000E+02  0.51100000000E-03 0.  1.
         11   -1    0    0    0    0 -0.00000000000E+00 -0.00000000000E+00 -0.45593999997E+02  0.45594000000E+02  0.51100000000E-03 0. -1.
    9900012    2    1    2    0    0  0.12201066572E+02  0.14204794599E+02  0.19007004006E+00  0.72461592397E+02  0.70000028793E+02 0.  0.
         12    1    1    2    0    0 -0.12201066572E+02 -0.14204794599E+02 -0.19007004006E+00  0.18726407603E+02  0.00000000000E+00 0. -1.
         11    1    3    3    0    0  0.94851423143E+01 -0.62350494883E+01 -0.65182715806E+01  0.13089370936E+02  0.51100000000E-03 0. -1.
        -11    1    3    3    0    0  0.53008693236E+01 -0.17575238743E+02  0.10387095731E+02  0.21092178419E+02  0.51100000000E-03 0.  1.
         12    1    3    3    0    0 -0.25849450660E+01  0.38015082830E+02 -0.36787541105E+01  0.38280043043E+02  0.00000000000E+00 0. -1.
</event>
<event>
 7    1  0.2886818E-013  0.7246156E+02  0.7816164E-02  0.1226708E+00
        -11   -1    0    0    0    0  0.00000000000E+00  0.00000000000E+00  0.45593999997E+02  0.45594000000E+02  0.51100000000E-03 0.  1.
         11   -1    0    0    0    0 -0.00000000000E+00 -0.00000000000E+00 -0.45593999997E+02  0.45594000000E+02  0.51100000000E-03 0. -1.
    9900012    2    1    2    0    0 -0.96215036465E+01 -0.15164414707E+02  0.53053579406E+01  0.72461558034E+02  0.69999984028E+02 0.  0.
         12    1    1    2    0    0  0.96215036465E+01  0.15164414707E+02 -0.53053579406E+01  0.18726441966E+02  0.00000000000E+00 0. -1.
         11    1    3    3    0    0  0.86223398815E+01 -0.19741642268E+02 -0.20897696873E+02  0.30013179094E+02  0.51100000000E-03 0. -1.
        -11    1    3    3    0    0  0.91468436315E+00 -0.59807246157E+01 -0.23399330903E+01  0.64869870927E+01  0.51100000000E-03 0.  1.
        -12    1    3    3    0    0 -0.19158527891E+02  0.10557952176E+02  0.28542987904E+02  0.35961391847E+02  0.00000000000E+00 0.  1.
</event>
<event>
 7    1  0.2886818E-013  0.7246156E+02  0.7816164E-02  0.1226708E+00
        -11   -1    0    0    0    0  0.00000000000E+00  0.00000000000E+00  0.45593999997E+02  0.45594000000E+02  0.51100000000E-03 0. -1.
         11   -1    0    0    0    0 -0.00000000000E+00 -0.00000000000E+00 -0.45593999997E+02  0.45594000000E+02  0.51100000000E-03 0.  1.
    9900012    2    1    2    0    0  0.13999287544E+02  0.65568907219E+01  0.10569145280E+02  0.72461556140E+02  0.69999981562E+02 0.  0.
         12    1    1    2    0    0 -0.13999287544E+02 -0.65568907219E+01 -0.10569145280E+02  0.18726443860E+02  0.00000000000E+00 0. -1.
         11    1    3    3    0    0  0.12020371988E+02 -0.85762188514E+01  0.24905151683E+02  0.28953539561E+02  0.51100000000E-03 0. -1.
        -11    1    3    3    0    0  0.67459535518E+01  0.64287930504E+01  0.12098933092E+02  0.15271589689E+02  0.51100000000E-03 0.  1.
        -12    1    3    3    0    0 -0.47670379957E+01  0.87043165229E+01 -0.26434939495E+02  0.28236426890E+02  0.00000000000E+00 0.  1.
</event>
<event>
 7    1  0.2886818E-013  0.7246157E+02  0.7816164E-02  0.1226708E+00
        -11   -1    0    0    0    0  0.00000000000E+00  0.00000000000E+00  0.45593999997E+02  0.45594000000E+02  0.51100000000E-03 0.  1.
         11   -1    0    0    0    0 -0.00000000000E+00 -0.00000000000E+00 -0.45593999997E+02  0.45594000000E+02  0.51100000000E-03 0. -1.
    9900012    2    1    2    0    0  0.57051535242E+01 -0.17524198793E+02  0.33215569076E+01  0.72461573209E+02  0.70000003797E+02 0.  0.
         12    1    1    2    0    0 -0.57051535242E+01  0.17524198793E+02 -0.33215569076E+01  0.18726426791E+02  0.00000000000E+00 0. -1.
         11    1    3    3    0    0  0.18574377397E+01 -0.60738868470E+01  0.68437286305E+01  0.93369587241E+01  0.51100000000E-03 0. -1.
        -11    1    3    3    0    0 -0.17820016758E+02 -0.12057170229E+02  0.21227462000E+02  0.30224716614E+02  0.51100000000E-03 0.  1.
         12    1    3    3    0    0  0.21667732543E+02  0.60685828301E+00 -0.24749633723E+02  0.32899897871E+02  0.00000000000E+00 0. -1.
</event>
<event>
 7    1  0.2886818E-013  0.7246230E+02  0.7816164E-02  0.1226706E+00
        -11   -1    0    0    0    0  0.00000000000E+00  0.00000000000E+00  0.45593999997E+02  0.45594000000E+02  0.51100000000E-03 0. -1.
         11   -1    0    0    0    0 -0.00000000000E+00 -0.00000000000E+00 -0.45593999997E+02  0.45594000000E+02  0.51100000000E-03 0.  1.
    9900012    2    1    2    0    0  0.83458461907E+01 -0.16191002492E+02  0.43416743585E+01  0.72462299838E+02  0.70000950359E+02 0.  0.
         12    1    1    2    0    0 -0.83458461907E+01  0.16191002492E+02 -0.43416743585E+01  0.18725700162E+02  0.00000000000E+00 0. -1.
         11    1    3    3    0    0 -0.80261783055E+01 -0.15241962124E+02  0.31530983298E+02  0.35929651482E+02  0.51100000000E-03 0. -1.
        -11    1    3    3    0    0  0.69046227059E+01  0.26177699362E-01  0.81745981511E+00  0.69528944183E+01  0.51100000000E-03 0.  1.
        -12    1    3    3    0    0  0.94674017904E+01 -0.97521806732E+00 -0.28006768755E+02  0.29579753938E+02  0.00000000000E+00 0.  1.
</event>
<event>
 7    1  0.2886818E-013  0.7246158E+02  0.7816164E-02  0.1226708E+00
        -11   -1    0    0    0    0  0.00000000000E+00  0.00000000000E+00  0.45593999997E+02  0.45594000000E+02  0.51100000000E-03 0.  1.
         11   -1    0    0    0    0 -0.00000000000E+00 -0.00000000000E+00 -0.45593999997E+02  0.45594000000E+02  0.51100000000E-03 0. -1.
    9900012    2    1    2    0    0  0.15457025222E+02 -0.57655058321E+01  0.88610362393E+01  0.72461584181E+02  0.70000018089E+02 0.  0.
         12    1    1    2    0    0 -0.15457025222E+02  0.57655058321E+01 -0.88610362393E+01  0.18726415819E+02  0.00000000000E+00 0. -1.
         11    1    3    3    0    0 -0.11875983550E+01  0.41240928148E+01 -0.90268245131E+00  0.43855863083E+01  0.51100000000E-03 0. -1.
        -11    1    3    3    0    0  0.78247517571E+01 -0.26935648725E+02  0.29388930856E+02  0.40625917459E+02  0.51100000000E-03 0.  1.
         12    1    3    3    0    0  0.88198718198E+01  0.17046050078E+02 -0.19625212165E+02  0.27450080413E+02  0.00000000000E+00 0. -1.
</event>
<event>
 7    1  0.2886818E-013  0.7246150E+02  0.7816164E-02  0.1226708E+00
        -11   -1    0    0    0    0  0.00000000000E+00  0.00000000000E+00  0.45593999997E+02  0.45594000000E+02  0.51100000000E-03 0.  1.
         11   -1    0    0    0    0 -0.00000000000E+00 -0.00000000000E+00 -0.45593999997E+02  0.45594000000E+02  0.51100000000E-03 0. -1.
    9900012    2    1    2    0    0  0.20274537233E+01 -0.65460912150E+01  0.17427559566E+02  0.72461502430E+02  0.69999911594E+02 0.  0.
         12    1    1    2    0    0 -0.20274537233E+01  0.65460912150E+01 -0.17427559566E+02  0.18726497570E+02  0.00000000000E+00 0. -1.
         11    1    3    3    0    0 -0.17687974757E+02  0.26281464845E+02  0.65502361400E+01  0.32349427184E+02  0.51100000000E-03 0.  1.
        -11    1    3    3    0    0  0.59002498833E+01 -0.59205152808E+01  0.25961646629E+01  0.87524580030E+01  0.51100000000E-03 0. -1.
        -12    1    3    3    0    0  0.13815178597E+02 -0.26907040779E+02  0.82811587635E+01  0.31359617243E+02  0.00000000000E+00 0.  1.
</event>
<event>
 7    1  0.2886818E-013  0.7246158E+02  0.7816164E-02  0.1226708E+00
        -11   -1    0    0    0    0  0.00000000000E+00  0.00000000000E+00  0.45593999997E+02  0.45594000000E+02  0.51100000000E-03 0.  1.
         11   -1    0    0    0    0 -0.00000000000E+00 -0.00000000000E+00 -0.45593999997E+02  0.45594000000E+02  0.51100000000E-03 0. -1.
    9900012    2    1    2    0    0 -0.16786284827E+02 -0.79334190695E+01  0.24413905851E+01  0.72461577907E+02  0.70000009917E+02 0.  0.
         12    1    1    2    0    0  0.16786284827E+02  0.79334190695E+01 -0.24413905851E+01  0.18726422093E+02  0.00000000000E+00 0. -1.
         11    1    3    3    0    0 -0.22722603735E+01  0.14353367472E+02  0.89253552171E+00  0.14559496726E+02  0.51100000000E-03 0. -1.
        -11    1    3    3    0    0  0.18968078766E+02 -0.12228719676E+02 -0.25080889211E+01  0.22707269921E+02  0.51100000000E-03 0.  1.
        -12    1    3    3    0    0 -0.33482103219E+02 -0.10058066866E+02  0.40569439845E+01  0.35194811259E+02  0.00000000000E+00 0.  1.
</event>
<event>
 7    1  0.2886818E-013  0.7246120E+02  0.7816164E-02  0.1226709E+00
        -11   -1    0    0    0    0  0.00000000000E+00  0.00000000000E+00  0.45593999997E+02  0.45594000000E+02  0.51100000000E-03 0. -1.
         11   -1    0    0    0    0 -0.00000000000E+00 -0.00000000000E+00 -0.45593999997E+02  0.45594000000E+02  0.51100000000E-03 0.  1.
    9900012    2    1    2    0    0 -0.10713271198E+02 -0.88428335015E+01 -0.12558788666E+02  0.72461199503E+02  0.69999516974E+02 0.  0.
         12    1    1    2    0    0  0.10713271198E+02  0.88428335015E+01  0.12558788666E+02  0.18726800497E+02  0.00000000000E+00 0. -1.
         11    1    3    3    0    0 -0.10263849027E+02 -0.15011634179E+02 -0.14771568644E+02  0.23428508233E+02  0.51100000000E-03 0. -1.
        -11    1    3    3    0    0 -0.19000470689E+02  0.30180371726E+01 -0.14321282278E+02  0.23983860430E+02  0.51100000000E-03 0.  1.
         12    1    3    3    0    0  0.18551048518E+02  0.31507635050E+01  0.16534062255E+02  0.25048830840E+02  0.00000000000E+00 0. -1.
</event>
<event>
 7    1  0.2886818E-013  0.7246181E+02  0.7816164E-02  0.1226707E+00
        -11   -1    0    0    0    0  0.00000000000E+00  0.00000000000E+00  0.45593999997E+02  0.45594000000E+02  0.51100000000E-03 0.  1.
         11   -1    0    0    0    0 -0.00000000000E+00 -0.00000000000E+00 -0.45593999997E+02  0.45594000000E+02  0.51100000000E-03 0. -1.
    9900012    2    1    2    0    0 -0.41087700172E+01  0.12690837358E+02  0.13142704089E+02  0.72461814733E+02  0.70000318426E+02 0.  0.
         12    1    1    2    0    0  0.41087700172E+01 -0.12690837358E+02 -0.13142704089E+02  0.18726185267E+02  0.00000000000E+00 0. -1.
         11    1    3    3    0    0  0.41525090027E+01  0.65409881223E+01 -0.10428277573E+02  0.12991413704E+02  0.51100000000E-03 0. -1.
        -11    1    3    3    0    0  0.10927954873E+02  0.25173072147E+02  0.97750569686E+01  0.29131692330E+02  0.51100000000E-03 0.  1.
        -12    1    3    3    0    0 -0.19189233893E+02 -0.19023222912E+02  0.13795924693E+02  0.30338708698E+02  0.00000000000E+00 0.  1.
</event>
<event>
 7    1  0.2886818E-013  0.7246112E+02  0.7816164E-02  0.1226709E+00
        -11   -1    0    0    0    0  0.00000000000E+00  0.00000000000E+00  0.45593999997E+02  0.45594000000E+02  0.51100000000E-03 0. -1.
         11   -1    0    0    0    0 -0.00000000000E+00 -0.00000000000E+00 -0.45593999997E+02  0.45594000000E+02  0.51100000000E-03 0.  1.
    9900012    2    1    2    0    0  0.14633435250E+02  0.11226195643E+02 -0.32451763244E+01  0.72461119181E+02  0.69999412339E+02 0.  0.
         12    1    1    2    0    0 -0.14633435250E+02 -0.11226195643E+02  0.32451763244E+01  0.18726880819E+02  0.00000000000E+00 0. -1.
         11    1    3    3    0    0  0.11487344805E+01 -0.56766732117E+00 -0.21995227042E+00  0.13000832114E+01  0.51100000000E-03 0. -1.
        -11    1    3    3    0    0  0.41108901936E+02  0.75331559875E+00  0.10821401313E+01  0.41130041701E+02  0.51100000000E-03 0.  1.
         12    1    3    3    0    0 -0.27624201167E+02  0.11040547366E+02 -0.41073641854E+01  0.30030994269E+02  0.00000000000E+00 0. -1.
</event>
<event>
 7    1  0.2886818E-013  0.7246159E+02  0.7816164E-02  0.1226708E+00
        -11   -1    0    0    0    0  0.00000000000E+00  0.00000000000E+00  0.45593999997E+02  0.45594000000E+02  0.51100000000E-03 0.  1.
         11   -1    0    0    0    0 -0.00000000000E+00 -0.00000000000E+00 -0.45593999997E+02  0.45594000000E+02  0.51100000000E-03 0. -1.
    9900012    2    1    2    0    0  0.11164189219E+02  0.13143572157E+02  0.72997225728E+01  0.72461586579E+02  0.70000021214E+02 0.  0.
         12    1    1    2    0    0 -0.11164189219E+02 -0.13143572157E+02 -0.72997225728E+01  0.18726413421E+02  0.00000000000E+00 0. -1.
         11    1    3    3    0    0  0.12448353261E+02  0.19773830670E+01 -0.26720354086E+02  0.29544015730E+02  0.51100000000E-03 0. -1.
        -11    1    3    3    0    0  0.47851908508E+00 -0.72887987548E+01  0.12819609137E+02  0.14754590692E+02  0.51100000000E-03 0.  1.
        -12    1    3    3    0    0 -0.17626831267E+01  0.18454987845E+02  0.21200467522E+02  0.28162980157E+02  0.00000000000E+00 0.  1.
</event>
<event>
 7    1  0.2886818E-013  0.7246156E+02  0.7816164E-02  0.1226708E+00
        -11   -1    0    0    0    0  0.00000000000E+00  0.00000000000E+00  0.45593999997E+02  0.45594000000E+02  0.51100000000E-03 0.  1.
         11   -1    0    0    0    0 -0.00000000000E+00 -0.00000000000E+00 -0.45593999997E+02  0.45594000000E+02  0.51100000000E-03 0. -1.
    9900012    2    1    2    0    0 -0.56834808868E-01 -0.18090508705E+02  0.48383836227E+01  0.72461556358E+02  0.69999981846E+02 0.  0.
         12    1    1    2    0    0  0.56834808868E-01  0.18090508705E+02 -0.48383836227E+01  0.18726443642E+02  0.00000000000E+00 0. -1.
         11    1    3    3    0    0 -0.87902666284E+01 -0.22862455485E+02  0.31524476691E+01  0.24696124894E+02  0.51100000000E-03 0. -1.
        -11    1    3    3    0    0 -0.14683481828E+02 -0.10008062064E+02  0.78015961590E+01  0.19406979357E+02  0.51100000000E-03 0.  1.
        -12    1    3    3    0    0  0.23416913647E+02  0.14780008845E+02 -0.61156602054E+01  0.28358452108E+02  0.00000000000E+00 0.  1.
</event>
<event>
 7    1  0.2886818E-013  0.7246154E+02  0.7816164E-02  0.1226708E+00
        -11   -1    0    0    0    0  0.00000000000E+00  0.00000000000E+00  0.45593999997E+02  0.45594000000E+02  0.51100000000E-03 0.  1.
         11   -1    0    0    0    0 -0.00000000000E+00 -0.00000000000E+00 -0.45593999997E+02  0.45594000000E+02  0.51100000000E-03 0. -1.
    9900012    2    1    2    0    0 -0.12291279507E+02  0.62600721051E+01 -0.12665553559E+02  0.72461540067E+02  0.69999960623E+02 0.  0.
         12    1    1    2    0    0  0.12291279507E+02 -0.62600721051E+01  0.12665553559E+02  0.18726459933E+02  0.00000000000E+00 0. -1.
         11    1    3    3    0    0  0.10949078641E+02 -0.24710869860E+01 -0.19331725910E+02  0.22354064975E+02  0.51100000000E-03 0. -1.
        -11    1    3    3    0    0 -0.73703328777E+01 -0.16665272645E+02 -0.33538814919E+01  0.18528400913E+02  0.51100000000E-03 0.  1.
        -12    1    3    3    0    0 -0.15870025270E+02  0.25396431736E+02  0.10020053842E+02  0.31579074179E+02  0.00000000000E+00 0.  1.
</event>
<event>
 7    1  0.2886818E-013  0.7246157E+02  0.7816164E-02  0.1226708E+00
        -11   -1    0    0    0    0  0.00000000000E+00  0.00000000000E+00  0.45593999997E+02  0.45594000000E+02  0.51100000000E-03 0. -1.
         11   -1    0    0    0    0 -0.00000000000E+00 -0.00000000000E+00 -0.45593999997E+02  0.45594000000E+02  0.51100000000E-03 0.  1.
    9900012    2    1    2    0    0  0.64572633894E+01 -0.68988259087E+01 -0.16167536543E+02  0.72461567150E+02  0.69999995904E+02 0.  0.
         12    1    1    2    0    0 -0.64572633894E+01  0.68988259087E+01  0.16167536543E+02  0.18726432850E+02  0.00000000000E+00 0. -1.
         11    1    3    3    0    0 -0.59367025996E+01 -0.96011514386E+01 -0.67015630875E+01  0.13127737611E+02  0.51100000000E-03 0. -1.
        -11    1    3    3    0    0 -0.21755048382E+02 -0.73643091258E+01 -0.33604855622E+01  0.23212239067E+02  0.51100000000E-03 0.  1.
         12    1    3    3    0    0  0.34149014371E+02  0.10066634656E+02 -0.61054878938E+01  0.36121590472E+02  0.00000000000E+00 0. -1.
</event>
<event>
 7    1  0.2886818E-013  0.7246165E+02  0.7816164E-02  0.1226708E+00
        -11   -1    0    0    0    0  0.00000000000E+00  0.00000000000E+00  0.45593999997E+02  0.45594000000E+02  0.51100000000E-03 0. -1.
         11   -1    0    0    0    0 -0.00000000000E+00 -0.00000000000E+00 -0.45593999997E+02  0.45594000000E+02  0.51100000000E-03 0.  1.
    9900012    2    1    2    0    0  0.11677630785E+01  0.13485365542E+02 -0.12940537395E+02  0.72461647913E+02  0.70000101112E+02 0.  0.
         12    1    1    2    0    0 -0.11677630785E+01 -0.13485365542E+02  0.12940537395E+02  0.18726352087E+02  0.00000000000E+00 0. -1.
         11    1    3    3    0    0  0.68708285262E+01 -0.17170214715E+02 -0.22437262526E+02  0.29076714187E+02  0.51100000000E-03 0. -1.
        -11    1    3    3    0    0  0.25906488786E+01  0.39749617132E+01 -0.87926967416E+01  0.99911610178E+01  0.51100000000E-03 0.  1.
        -12    1    3    3    0    0 -0.82937143263E+01  0.26680618544E+02  0.18289421872E+02  0.33393772708E+02  0.00000000000E+00 0.  1.
</event>
<event>
 7    1  0.2886818E-013  0.7246153E+02  0.7816164E-02  0.1226708E+00
        -11   -1    0    0    0    0  0.00000000000E+00  0.00000000000E+00  0.45593999997E+02  0.45594000000E+02  0.51100000000E-03 0. -1.
         11   -1    0    0    0    0 -0.00000000000E+00 -0.00000000000E+00 -0.45593999997E+02  0.45594000000E+02  0.51100000000E-03 0.  1.
    9900012    2    1    2    0    0  0.12985289414E+02 -0.49475351287E+01 -0.12553278012E+02  0.72461531196E+02  0.69999949068E+02 0.  0.
         12    1    1    2    0    0 -0.12985289414E+02  0.49475351287E+01  0.12553278012E+02  0.18726468804E+02  0.00000000000E+00 0. -1.
         11    1    3    3    0    0  0.12110471202E+02  0.61890250224E+01  0.16096833479E+02  0.21073101143E+02  0.51100000000E-03 0. -1.
        -11    1    3    3    0    0 -0.28884691573E+01 -0.57242002571E+00  0.10374573803E+02  0.10784372982E+02  0.51100000000E-03 0.  1.
        -12    1    3    3    0    0  0.37632873689E+01 -0.10564140125E+02 -0.39024685294E+02  0.40604057072E+02  0.00000000000E+00 0.  1.
</event>
<event>
 7    1  0.2886818E-013  0.7246155E+02  0.7816164E-02  0.1226708E+00
        -11   -1    0    0    0    0  0.00000000000E+00  0.00000000000E+00  0.45593999997E+02  0.45594000000E+02  0.51100000000E-03 0. -1.
         11   -1    0    0    0    0 -0.00000000000E+00 -0.00000000000E+00 -0.45593999997E+02  0.45594000000E+02  0.51100000000E-03 0.  1.
    9900012    2    1    2    0    0 -0.94222948268E+00  0.66749158711E+01 -0.17471056026E+02  0.72461545532E+02  0.69999967742E+02 0.  0.
         12    1    1    2    0    0  0.94222948268E+00 -0.66749158711E+01  0.17471056026E+02  0.18726454468E+02  0.00000000000E+00 0. -1.
         11    1    3    3    0    0 -0.18106095694E+02  0.20270539419E+02 -0.13945154094E+02  0.30548204408E+02  0.51100000000E-03 0. -1.
        -11    1    3    3    0    0  0.58315956801E+01  0.12052926489E+02 -0.36291158321E+01  0.13872671953E+02  0.51100000000E-03 0.  1.
        -12    1    3    3    0    0  0.11332270531E+02 -0.25648550037E+02  0.10321389989E+00  0.28040669170E+02  0.00000000000E+00 0.  1.
</event>
<event>
 7    1  0.2886818E-013  0.7246152E+02  0.7816164E-02  0.1226708E+00
        -11   -1    0    0    0    0  0.00000000000E+00  0.00000000000E+00  0.45593999997E+02  0.45594000000E+02  0.51100000000E-03 0. -1.
         11   -1    0    0    0    0 -0.00000000000E+00 -0.00000000000E+00 -0.45593999997E+02  0.45594000000E+02  0.51100000000E-03 0.  1.
    9900012    2    1    2    0    0 -0.28102374173E+01  0.18110067541E+02 -0.38482391234E+01  0.72461523422E+02  0.69999938940E+02 0.  0.
         12    1    1    2    0    0  0.28102374173E+01 -0.18110067541E+02  0.38482391234E+01  0.18726476578E+02  0.00000000000E+00 0. -1.
         11    1    3    3    0    0  0.27601835398E+02  0.87613994429E+01 -0.10959617119E+01  0.28979726877E+02  0.51100000000E-03 0. -1.
        -11    1    3    3    0    0  0.37004263484E+01 -0.46789212558E+01 -0.28184270509E+01  0.65976503833E+01  0.51100000000E-03 0.  1.
        -12    1    3    3    0    0 -0.34112499164E+02  0.14027589354E+02  0.66149639315E-01  0.36884146161E+02  0.00000000000E+00 0.  1.
</event>
<event>
 7    1  0.2886818E-013  0.7246158E+02  0.7816164E-02  0.1226708E+00
        -11   -1    0    0    0    0  0.00000000000E+00  0.00000000000E+00  0.45593999997E+02  0.45594000000E+02  0.51100000000E-03 0.  1.
         11   -1    0    0    0    0 -0.00000000000E+00 -0.00000000000E+00 -0.45593999997E+02  0.45594000000E+02  0.51100000000E-03 0. -1.
    9900012    2    1    2    0    0  0.15944065777E+02  0.54140326674E+01 -0.81947474893E+01  0.72461578301E+02  0.70000010430E+02 0.  0.
         12    1    1    2    0    0 -0.15944065777E+02 -0.54140326674E+01  0.81947474893E+01  0.18726421699E+02  0.00000000000E+00 0. -1.
         11    1    3    3    0    0  0.46663015464E+01  0.33818159723E+02  0.78247649315E+01  0.35023838220E+02  0.51100000000E-03 0. -1.
        -11    1    3    3    0    0  0.43486669396E+01 -0.29137498988E+01 -0.84834049854E+01  0.99684002243E+01  0.51100000000E-03 0.  1.
        -12    1    3    3    0    0  0.69290972913E+01 -0.25490377157E+02 -0.75361074354E+01  0.27469339856E+02  0.00000000000E+00 0.  1.
</event>
<event>
 7    1  0.2886818E-013  0.7246154E+02  0.7816164E-02  0.1226708E+00
        -11   -1    0    0    0    0  0.00000000000E+00  0.00000000000E+00  0.45593999997E+02  0.45594000000E+02  0.51100000000E-03 0.  1.
         11   -1    0    0    0    0 -0.00000000000E+00 -0.00000000000E+00 -0.45593999997E+02  0.45594000000E+02  0.51100000000E-03 0. -1.
    9900012    2    1    2    0    0 -0.18616530676E+02  0.15129451760E+01 -0.13476795053E+01  0.72461535903E+02  0.69999955199E+02 0.  0.
         12    1    1    2    0    0  0.18616530676E+02 -0.15129451760E+01  0.13476795053E+01  0.18726464097E+02  0.00000000000E+00 0. -1.
         11    1    3    3    0    0 -0.18534998174E+02  0.18942783756E+02  0.12566129731E+02  0.29330578420E+02  0.51100000000E-03 0.  1.
        -11    1    3    3    0    0 -0.15377893556E+02 -0.65630786397E+01  0.39974275194E+01  0.17191074384E+02  0.51100000000E-03 0. -1.
         12    1    3    3    0    0  0.15296361054E+02 -0.10866759941E+02 -0.17911236756E+02  0.25939883099E+02  0.00000000000E+00 0. -1.
</event>
<event>
 7    1  0.2886818E-013  0.7246160E+02  0.7816164E-02  0.1226708E+00
        -11   -1    0    0    0    0  0.00000000000E+00  0.00000000000E+00  0.45593999997E+02  0.45594000000E+02  0.51100000000E-03 0.  1.
         11   -1    0    0    0    0 -0.00000000000E+00 -0.00000000000E+00 -0.45593999997E+02  0.45594000000E+02  0.51100000000E-03 0. -1.
    9900012    2    1    2    0    0  0.12269424130E+02 -0.62357504155E+00  0.14133313352E+02  0.72461597232E+02  0.70000035091E+02 0.  0.
         12    1    1    2    0    0 -0.12269424130E+02  0.62357504155E+00 -0.14133313352E+02  0.18726402768E+02  0.00000000000E+00 0. -1.
         11    1    3    3    0    0 -0.53295190406E+00 -0.11394264524E+02 -0.14395862670E+02  0.18367203490E+02  0.51100000000E-03 0. -1.
        -11    1    3    3    0    0  0.41022717255E+01 -0.13643382669E+02 -0.16173011325E+01  0.14338276994E+02  0.51100000000E-03 0.  1.
        -12    1    3    3    0    0  0.87001043087E+01  0.24414072151E+02  0.30146477155E+02  0.39756116747E+02  0.00000000000E+00 0.  1.
</event>
<event>
 7    1  0.2886818E-013  0.7246162E+02  0.7816164E-02  0.1226708E+00
        -11   -1    0    0    0    0  0.00000000000E+00  0.00000000000E+00  0.45593999997E+02  0.45594000000E+02  0.51100000000E-03 0.  1.
         11   -1    0    0    0    0 -0.00000000000E+00 -0.00000000000E+00 -0.45593999997E+02  0.45594000000E+02  0.51100000000E-03 0. -1.
    9900012    2    1    2    0    0 -0.63933724116E+01 -0.87679233847E+01  0.15261902244E+02  0.72461618839E+02  0.70000063239E+02 0.  0.
         12    1    1    2    0    0  0.63933724116E+01  0.87679233847E+01 -0.15261902244E+02  0.18726381161E+02  0.00000000000E+00 0. -1.
         11    1    3    3    0    0 -0.45116340440E+01  0.99744158367E+01  0.12491912810E+02  0.16609987928E+02  0.51100000000E-03 0. -1.
        -11    1    3    3    0    0 -0.27387002907E+01  0.18405163712E+02  0.15880718978E+01  0.18675451886E+02  0.51100000000E-03 0.  1.
         12    1    3    3    0    0  0.85696192303E+00 -0.37147502933E+02  0.11819175358E+01  0.37176179026E+02  0.00000000000E+00 0. -1.
</event>
<event>
 7    1  0.2886818E-013  0.7246159E+02  0.7816164E-02  0.1226708E+00
        -11   -1    0    0    0    0  0.00000000000E+00  0.00000000000E+00  0.45593999997E+02  0.45594000000E+02  0.51100000000E-03 0.  1.
         11   -1    0    0    0    0 -0.00000000000E+00 -0.00000000000E+00 -0.45593999997E+02  0.45594000000E+02  0.51100000000E-03 0. -1.
    9900012    2    1    2    0    0 -0.14768825721E+02  0.77616915410E+01  0.85039103755E+01  0.72461586557E+02  0.70000021185E+02 0.  0.
         12    1    1    2    0    0  0.14768825721E+02 -0.77616915410E+01 -0.85039103755E+01  0.18726413443E+02  0.00000000000E+00 0. -1.
         11    1    3    3    0    0 -0.92852955373E+01  0.19398572398E+01  0.16986026203E+02  0.19455200995E+02  0.51100000000E-03 0. -1.
        -11    1    3    3    0    0  0.51381631319E+01  0.26328980274E+02  0.33898047231E+01  0.27038984799E+02  0.51100000000E-03 0.  1.
         12    1    3    3    0    0 -0.10621693316E+02 -0.20507145972E+02 -0.11871920551E+02  0.25967400763E+02  0.00000000000E+00 0. -1.
</event>
<event>
 7    1  0.2886818E-013  0.7246158E+02  0.7816164E-02  0.1226708E+00
        -11   -1    0    0    0    0  0.00000000000E+00  0.00000000000E+00  0.45593999997E+02  0.45594000000E+02  0.51100000000E-03 0. -1.
         11   -1    0    0    0    0 -0.00000000000E+00 -0.00000000000E+00 -0.45593999997E+02  0.45594000000E+02  0.51100000000E-03 0.  1.
    9900012    2    1    2    0    0  0.15839035344E+02 -0.36111138304E+01  0.93146893428E+01  0.72461584933E+02  0.70000019069E+02 0.  0.
         12    1    1    2    0    0 -0.15839035344E+02  0.36111138304E+01 -0.93146893428E+01  0.18726415067E+02  0.00000000000E+00 0. -1.
         11    1    3    3    0    0  0.73922980335E-01  0.19222294712E+02 -0.12004903587E+01  0.19259887226E+02  0.51100000000E-03 0. -1.
        -11    1    3    3    0    0 -0.22873528567E+01  0.70214049798E+00  0.21454200358E+02  0.21587211438E+02  0.51100000000E-03 0.  1.
        -12    1    3    3    0    0  0.18052465220E+02 -0.23535549040E+02 -0.10939020657E+02  0.31614486269E+02  0.00000000000E+00 0.  1.
</event>
<event>
 7    1  0.2886818E-013  0.7246156E+02  0.7816164E-02  0.1226708E+00
        -11   -1    0    0    0    0  0.00000000000E+00  0.00000000000E+00  0.45593999997E+02  0.45594000000E+02  0.51100000000E-03 0.  1.
         11   -1    0    0    0    0 -0.00000000000E+00 -0.00000000000E+00 -0.45593999997E+02  0.45594000000E+02  0.51100000000E-03 0. -1.
    9900012    2    1    2    0    0  0.70351564524E+01  0.16999271076E+02 -0.34943890056E+01  0.72461564196E+02  0.69999992055E+02 0.  0.
         12    1    1    2    0    0 -0.70351564524E+01 -0.16999271076E+02  0.34943890056E+01  0.18726435804E+02  0.00000000000E+00 0. -1.
         11    1    3    3    0    0  0.26354522989E+02  0.12248523657E+02 -0.15012744885E+02  0.32710391667E+02  0.51100000000E-03 0. -1.
        -11    1    3    3    0    0  0.22756374304E+01 -0.11025911795E+02  0.42846059036E+01  0.12046041036E+02  0.51100000000E-03 0.  1.
         12    1    3    3    0    0 -0.21595003967E+02  0.15776659214E+02  0.72337499762E+01  0.27705131492E+02  0.00000000000E+00 0. -1.
</event>
<event>
 7    1  0.2886818E-013  0.7246160E+02  0.7816164E-02  0.1226708E+00
        -11   -1    0    0    0    0  0.00000000000E+00  0.00000000000E+00  0.45593999997E+02  0.45594000000E+02  0.51100000000E-03 0.  1.
         11   -1    0    0    0    0 -0.00000000000E+00 -0.00000000000E+00 -0.45593999997E+02  0.45594000000E+02  0.51100000000E-03 0. -1.
    9900012    2    1    2    0    0 -0.93535666953E+01  0.11053267422E+02  0.11874931942E+02  0.72461603143E+02  0.70000042791E+02 0.  0.
         12    1    1    2    0    0  0.93535666953E+01 -0.11053267422E+02 -0.11874931942E+02  0.18726396857E+02  0.00000000000E+00 0. -1.
         11    1    3    3    0    0 -0.11959548824E+02 -0.13497411340E+02 -0.23978350118E+01  0.18192320742E+02  0.51100000000E-03 0. -1.
        -11    1    3    3    0    0 -0.33467608573E+01 -0.55781623405E+01  0.21715590389E+02  0.22669000188E+02  0.51100000000E-03 0.  1.
         12    1    3    3    0    0  0.59527429861E+01  0.30128841102E+02 -0.74428234351E+01  0.31600282213E+02  0.00000000000E+00 0. -1.
</event>
<event>
 7    1  0.2886818E-013  0.7246153E+02  0.7816164E-02  0.1226708E+00
        -11   -1    0    0    0    0  0.00000000000E+00  0.00000000000E+00  0.45593999997E+02  0.45594000000E+02  0.51100000000E-03 0. -1.
         11   -1    0    0    0    0 -0.00000000000E+00 -0.00000000000E+00 -0.45593999997E+02  0.45594000000E+02  0.51100000000E-03 0.  1.
    9900012    2    1    2    0    0 -0.36224210718E+00  0.15921607863E+02 -0.98514884981E+01  0.72461530981E+02  0.69999948787E+02 0.  0.
         12    1    1    2    0    0  0.36224210718E+00 -0.15921607863E+02  0.98514884981E+01  0.18726469019E+02  0.00000000000E+00 0. -1.
         11    1    3    3    0    0 -0.76049906338E+01  0.53641561997E+01 -0.77629860354E+01  0.12119158664E+02  0.51100000000E-03 0. -1.
        -11    1    3    3    0    0 -0.23542767833E+02  0.13730916479E+02 -0.88662387129E+01  0.28660254251E+02  0.51100000000E-03 0.  1.
         12    1    3    3    0    0  0.30785516359E+02 -0.31734648153E+01  0.67777362502E+01  0.31682118066E+02  0.00000000000E+00 0. -1.
</event>
<event>
 7    1  0.2886818E-013  0.7246167E+02  0.7816164E-02  0.1226708E+00
        -11   -1    0    0    0    0  0.00000000000E+00  0.00000000000E+00  0.45593999997E+02  0.45594000000E+02  0.51100000000E-03 0.  1.
         11   -1    0    0    0    0 -0.00000000000E+00 -0.00000000000E+00 -0.45593999997E+02  0.45594000000E+02  0.51100000000E-03 0. -1.
    9900012    2    1    2    0    0  0.10555946989E+02 -0.11239769757E+02 -0.10626141281E+02  0.72461673090E+02  0.70000133910E+02 0.  0.
         12    1    1    2    0    0 -0.10555946989E+02  0.11239769757E+02  0.10626141281E+02  0.18726326910E+02  0.00000000000E+00 0. -1.
         11    1    3    3    0    0  0.62500972047E+01 -0.78201756496E+00 -0.96553040462E+01  0.11528233300E+02  0.51100000000E-03 0. -1.
        -11    1    3    3    0    0  0.57775417291E+01 -0.32538562145E+02  0.12145429301E+02  0.35208656152E+02  0.51100000000E-03 0.  1.
         12    1    3    3    0    0 -0.14716919453E+01  0.22080809952E+02 -0.13116266536E+02  0.25724783637E+02  0.00000000000E+00 0. -1.
</event>
<event>
 7    1  0.2886818E-013  0.7246131E+02  0.7816164E-02  0.1226709E+00
        -11   -1    0    0    0    0  0.00000000000E+00  0.00000000000E+00  0.45593999997E+02  0.45594000000E+02  0.51100000000E-03 0.  1.
         11   -1    0    0    0    0 -0.00000000000E+00 -0.00000000000E+00 -0.45593999997E+02  0.45594000000E+02  0.51100000000E-03 0. -1.
    9900012    2    1    2    0    0  0.17492299005E+02 -0.59136538190E+01  0.31204384948E+01  0.72461308825E+02  0.69999659387E+02 0.  0.
         12    1    1    2    0    0 -0.17492299005E+02  0.59136538190E+01 -0.31204384948E+01  0.18726691175E+02  0.00000000000E+00 0. -1.
         11    1    3    3    0    0 -0.28531466875E+01 -0.20412903623E+02 -0.48847168249E+01  0.21182245845E+02  0.51100000000E-03 0. -1.
        -11    1    3    3    0    0 -0.54098160554E+00 -0.14954368426E+01 -0.15752117834E+02  0.15832189014E+02  0.51100000000E-03 0.  1.
        -12    1    3    3    0    0  0.20886427298E+02  0.15994686646E+02  0.23757273154E+02  0.35446873965E+02  0.00000000000E+00 0.  1.
</event>
<event>
 7    1  0.2886818E-013  0.7246163E+02  0.7816164E-02  0.1226708E+00
        -11   -1    0    0    0    0  0.00000000000E+00  0.00000000000E+00  0.45593999997E+02  0.45594000000E+02  0.51100000000E-03 0. -1.
         11   -1    0    0    0    0 -0.00000000000E+00 -0.00000000000E+00 -0.45593999997E+02  0.45594000000E+02  0.51100000000E-03 0.  1.
    9900012    2    1    2    0    0 -0.13548562199E+02  0.12083929563E+02 -0.45925946130E+01  0.72461633118E+02  0.70000081839E+02 0.  0.
         12    1    1    2    0    0  0.13548562199E+02 -0.12083929563E+02  0.45925946130E+01  0.18726366882E+02  0.00000000000E+00 0. -1.
         11    1    3    3    0    0 -0.23059277776E+02 -0.38180707222E+01 -0.76718043670E-01  0.23373357515E+02  0.51100000000E-03 0. -1.
        -11    1    3    3    0    0 -0.11830507774E+02  0.21144332349E+02 -0.10356674721E+02  0.26349656852E+02  0.51100000000E-03 0.  1.
         12    1    3    3    0    0  0.21341223352E+02 -0.52423320637E+01  0.58407981521E+01  0.22738618750E+02  0.00000000000E+00 0. -1.
</event>
<event>
 7    1  0.2886818E-013  0.7246151E+02  0.7816164E-02  0.1226708E+00
        -11   -1    0    0    0    0  0.00000000000E+00  0.00000000000E+00  0.45593999997E+02  0.45594000000E+02  0.51100000000E-03 0. -1.
         11   -1    0    0    0    0 -0.00000000000E+00 -0.00000000000E+00 -0.45593999997E+02  0.45594000000E+02  0.51100000000E-03 0.  1.
    9900012    2    1    2    0    0 -0.31925359473E+01 -0.18290149245E+02 -0.24412328815E+01  0.72461509054E+02  0.69999920222E+02 0.  0.
         12    1    1    2    0    0  0.31925359473E+01  0.18290149245E+02  0.24412328815E+01  0.18726490946E+02  0.00000000000E+00 0. -1.
         11    1    3    3    0    0 -0.12917970745E+02 -0.13711865671E+02  0.15595856693E+01  0.18902950459E+02  0.51100000000E-03 0. -1.
        -11    1    3    3    0    0 -0.18986542945E+02 -0.13434476717E+02 -0.95594246494E-01  0.23259043751E+02  0.51100000000E-03 0.  1.
         12    1    3    3    0    0  0.28711977743E+02  0.88561931432E+01 -0.39052243043E+01  0.30299514843E+02  0.00000000000E+00 0. -1.
</event>
<event>
 7    1  0.2886818E-013  0.7246152E+02  0.7816164E-02  0.1226708E+00
        -11   -1    0    0    0    0  0.00000000000E+00  0.00000000000E+00  0.45593999997E+02  0.45594000000E+02  0.51100000000E-03 0.  1.
         11   -1    0    0    0    0 -0.00000000000E+00 -0.00000000000E+00 -0.45593999997E+02  0.45594000000E+02  0.51100000000E-03 0. -1.
    9900012    2    1    2    0    0 -0.37969062279E+01 -0.17254794860E+02 -0.62077996046E+01  0.72461515586E+02  0.69999928732E+02 0.  0.
         12    1    1    2    0    0  0.37969062279E+01  0.17254794860E+02  0.62077996046E+01  0.18726484414E+02  0.00000000000E+00 0. -1.
         11    1    3    3    0    0  0.25795362234E+02  0.15980802663E+01  0.83694227995E+01  0.27166188757E+02  0.51100000000E-03 0. -1.
        -11    1    3    3    0    0 -0.62914932206E+01 -0.76479833501E+01  0.65776708807E+01  0.11888662277E+02  0.51100000000E-03 0.  1.
         12    1    3    3    0    0 -0.23300775241E+02 -0.11204891777E+02 -0.21154893285E+02  0.33406664552E+02  0.00000000000E+00 0. -1.
</event>
<event>
 7    1  0.2886818E-013  0.7246151E+02  0.7816164E-02  0.1226708E+00
        -11   -1    0    0    0    0  0.00000000000E+00  0.00000000000E+00  0.45593999997E+02  0.45594000000E+02  0.51100000000E-03 0. -1.
         11   -1    0    0    0    0 -0.00000000000E+00 -0.00000000000E+00 -0.45593999997E+02  0.45594000000E+02  0.51100000000E-03 0.  1.
    9900012    2    1    2    0    0 -0.16229790103E+02 -0.54830173753E+01 -0.75638625518E+01  0.72461505853E+02  0.69999916053E+02 0.  0.
         12    1    1    2    0    0  0.16229790103E+02  0.54830173753E+01  0.75638625518E+01  0.18726494147E+02  0.00000000000E+00 0. -1.
         11    1    3    3    0    0  0.68246562665E+01 -0.27173495859E+02 -0.11923023621E+02  0.30448863737E+02  0.51100000000E-03 0. -1.
        -11    1    3    3    0    0  0.19950437632E+01  0.15917978429E+02  0.25400110502E+01  0.16242348761E+02  0.51100000000E-03 0.  1.
        -12    1    3    3    0    0 -0.25049490133E+02  0.57725000541E+01  0.18191500191E+01  0.25770293355E+02  0.00000000000E+00 0.  1.
</event>
<event>
 7    1  0.2886818E-013  0.7246143E+02  0.7816164E-02  0.1226708E+00
        -11   -1    0    0    0    0  0.00000000000E+00  0.00000000000E+00  0.45593999997E+02  0.45594000000E+02  0.51100000000E-03 0. -1.
         11   -1    0    0    0    0 -0.00000000000E+00 -0.00000000000E+00 -0.45593999997E+02  0.45594000000E+02  0.51100000000E-03 0.  1.
    9900012    2    1    2    0    0 -0.78275427597E+01  0.14542170353E+02 -0.88283181634E+01  0.72461432086E+02  0.69999819958E+02 0.  0.
         12    1    1    2    0    0  0.78275427597E+01 -0.14542170353E+02  0.88283181634E+01  0.18726567914E+02  0.00000000000E+00 0. -1.
         11    1    3    3    0    0  0.11506737291E+02 -0.80680125780E+01  0.12974868123E+02  0.19127075916E+02  0.51100000000E-03 0. -1.
        -11    1    3    3    0    0  0.57773215799E+01  0.47717811743E+01  0.76556817200E+01  0.10712460178E+02  0.51100000000E-03 0.  1.
        -12    1    3    3    0    0 -0.25111601631E+02  0.17838401757E+02 -0.29458868006E+02  0.42621895991E+02  0.00000000000E+00 0.  1.
</event>
<event>
 7    1  0.2886818E-013  0.7246155E+02  0.7816164E-02  0.1226708E+00
        -11   -1    0    0    0    0  0.00000000000E+00  0.00000000000E+00  0.45593999997E+02  0.45594000000E+02  0.51100000000E-03 0.  1.
         11   -1    0    0    0    0 -0.00000000000E+00 -0.00000000000E+00 -0.45593999997E+02  0.45594000000E+02  0.51100000000E-03 0. -1.
    9900012    2    1    2    0    0 -0.11747451441E+02 -0.12446274622E+02  0.76004878491E+01  0.72461553918E+02  0.69999978666E+02 0.  0.
         12    1    1    2    0    0  0.11747451441E+02  0.12446274622E+02 -0.76004878491E+01  0.18726446082E+02  0.00000000000E+00 0. -1.
         11    1    3    3    0    0  0.57670047641E+01  0.17157681284E+02 -0.52489991867E+01  0.18846653913E+02  0.51100000000E-03 0. -1.
        -11    1    3    3    0    0 -0.16025460872E+02  0.37820313453E+01 -0.28185051741E+01  0.16705182697E+02  0.51100000000E-03 0.  1.
         12    1    3    3    0    0 -0.14889953333E+01 -0.33385987252E+02  0.15667992210E+02  0.36909717308E+02  0.00000000000E+00 0. -1.
</event>
<event>
 7    1  0.2886818E-013  0.7246135E+02  0.7816164E-02  0.1226709E+00
        -11   -1    0    0    0    0  0.00000000000E+00  0.00000000000E+00  0.45593999997E+02  0.45594000000E+02  0.51100000000E-03 0. -1.
         11   -1    0    0    0    0 -0.00000000000E+00 -0.00000000000E+00 -0.45593999997E+02  0.45594000000E+02  0.51100000000E-03 0.  1.
    9900012    2    1    2    0    0 -0.16921240183E+01  0.17026919768E+02  0.76097505501E+01  0.72461345630E+02  0.69999707332E+02 0.  0.
         12    1    1    2    0    0  0.16921240183E+01 -0.17026919768E+02 -0.76097505501E+01  0.18726654370E+02  0.00000000000E+00 0. -1.
         11    1    3    3    0    0  0.18452752064E+01  0.88929188678E+01  0.66227422220E+01  0.11240540973E+02  0.51100000000E-03 0. -1.
        -11    1    3    3    0    0 -0.31717762165E+02  0.59722179365E+01 -0.39965953423E+01  0.32521632777E+02  0.51100000000E-03 0.  1.
         12    1    3    3    0    0  0.28180362941E+02  0.21617829633E+01  0.49836036703E+01  0.28699171880E+02  0.00000000000E+00 0. -1.
</event>
<event>
 7    1  0.2886818E-013  0.7246161E+02  0.7816164E-02  0.1226708E+00
        -11   -1    0    0    0    0  0.00000000000E+00  0.00000000000E+00  0.45593999997E+02  0.45594000000E+02  0.51100000000E-03 0.  1.
         11   -1    0    0    0    0 -0.00000000000E+00 -0.00000000000E+00 -0.45593999997E+02  0.45594000000E+02  0.51100000000E-03 0. -1.
    9900012    2    1    2    0    0 -0.80098676592E+01  0.92467536261E+01  0.14178061232E+02  0.72461605450E+02  0.70000045797E+02 0.  0.
         12    1    1    2    0    0  0.80098676592E+01 -0.92467536261E+01 -0.14178061232E+02  0.18726394550E+02  0.00000000000E+00 0. -1.
         11    1    3    3    0    0  0.15050822511E+00 -0.76812487921E+01 -0.23296296750E+02  0.24530423524E+02  0.51100000000E-03 0. -1.
        -11    1    3    3    0    0 -0.14261977166E+02  0.64698187791E+01  0.12013511550E+02  0.19737958550E+02  0.51100000000E-03 0.  1.
        -12    1    3    3    0    0  0.61016012816E+01  0.10458183639E+02  0.25460846433E+02  0.28193223375E+02  0.00000000000E+00 0.  1.
</event>
<event>
 7    1  0.2886818E-013  0.7246160E+02  0.7816164E-02  0.1226708E+00
        -11   -1    0    0    0    0  0.00000000000E+00  0.00000000000E+00  0.45593999997E+02  0.45594000000E+02  0.51100000000E-03 0.  1.
         11   -1    0    0    0    0 -0.00000000000E+00 -0.00000000000E+00 -0.45593999997E+02  0.45594000000E+02  0.51100000000E-03 0. -1.
    9900012    2    1    2    0    0  0.13205224657E+02  0.16125900556E+01  0.13179514287E+02  0.72461601474E+02  0.70000040617E+02 0.  0.
         12    1    1    2    0    0 -0.13205224657E+02 -0.16125900556E+01 -0.13179514287E+02  0.18726398526E+02  0.00000000000E+00 0. -1.
         11    1    3    3    0    0 -0.30214025578E+01  0.27983689159E-01  0.50802140282E+01  0.59108570729E+01  0.51100000000E-03 0. -1.
        -11    1    3    3    0    0 -0.35624254837E+01 -0.23752952314E+02  0.21004753982E+02  0.31907574477E+02  0.51100000000E-03 0.  1.
         12    1    3    3    0    0  0.19789052698E+02  0.25337558680E+02 -0.12905453723E+02  0.34643169924E+02  0.00000000000E+00 0. -1.
</event>
<event>
 7    1  0.2886818E-013  0.7246154E+02  0.7816164E-02  0.1226708E+00
        -11   -1    0    0    0    0  0.00000000000E+00  0.00000000000E+00  0.45593999997E+02  0.45594000000E+02  0.51100000000E-03 0. -1.
         11   -1    0    0    0    0 -0.00000000000E+00 -0.00000000000E+00 -0.45593999997E+02  0.45594000000E+02  0.51100000000E-03 0.  1.
    9900012    2    1    2    0    0  0.91285844180E+01 -0.40324750443E+01 -0.15845771612E+02  0.72461537802E+02  0.69999957673E+02 0.  0.
         12    1    1    2    0    0 -0.91285844180E+01  0.40324750443E+01  0.15845771612E+02  0.18726462198E+02  0.00000000000E+00 0. -1.
         11    1    3    3    0    0 -0.14406682297E+02 -0.20437117613E+02  0.75826921543E+01  0.26129016279E+02  0.51100000000E-03 0. -1.
        -11    1    3    3    0    0 -0.49329165117E+01  0.71689029846E+01 -0.10745473030E+02  0.13827220481E+02  0.51100000000E-03 0.  1.
        -12    1    3    3    0    0  0.28468183226E+02  0.92357395843E+01 -0.12682990736E+02  0.32505301043E+02  0.00000000000E+00 0.  1.
</event>
<event>
 7    1  0.2886818E-013  0.7246160E+02  0.7816164E-02  0.1226708E+00
        -11   -1    0    0    0    0  0.00000000000E+00  0.00000000000E+00  0.45593999997E+02  0.45594000000E+02  0.51100000000E-03 0.  1.
         11   -1    0    0    0    0 -0.00000000000E+00 -0.00000000000E+00 -0.45593999997E+02  0.45594000000E+02  0.51100000000E-03 0. -1.
    9900012    2    1    2    0    0 -0.16517866475E+02 -0.59655365714E+01  0.65000511781E+01  0.72461596053E+02  0.70000033555E+02 0.  0.
         12    1    1    2    0    0  0.16517866475E+02  0.59655365714E+01 -0.65000511781E+01  0.18726403947E+02  0.00000000000E+00 0. -1.
         11    1    3    3    0    0 -0.14327081056E+02 -0.20645423063E+02  0.36128915172E+01  0.25388023366E+02  0.51100000000E-03 0. -1.
        -11    1    3    3    0    0 -0.73479487400E+00 -0.16110601679E+02  0.18263211332E+01  0.16230430035E+02  0.51100000000E-03 0.  1.
        -12    1    3    3    0    0 -0.14559905458E+01  0.30790488171E+02  0.10608385278E+01  0.30843142652E+02  0.00000000000E+00 0.  1.
</event>
<event>
 7    1  0.2886818E-013  0.7246167E+02  0.7816164E-02  0.1226708E+00
        -11   -1    0    0    0    0  0.00000000000E+00  0.00000000000E+00  0.45593999997E+02  0.45594000000E+02  0.51100000000E-03 0. -1.
         11   -1    0    0    0    0 -0.00000000000E+00 -0.00000000000E+00 -0.45593999997E+02  0.45594000000E+02  0.51100000000E-03 0.  1.
    9900012    2    1    2    0    0 -0.15328529967E+02  0.32283504247E+01 -0.10261055603E+02  0.72461672557E+02  0.70000133216E+02 0.  0.
         12    1    1    2    0    0  0.15328529967E+02 -0.32283504247E+01  0.10261055603E+02  0.18726327443E+02  0.00000000000E+00 0. -1.
         11    1    3    3    0    0  0.17025589648E+02  0.11794664756E+02 -0.17975092210E+01  0.20789801808E+02  0.51100000000E-03 0. -1.
        -11    1    3    3    0    0  0.52448384943E+01  0.43797509397E+01 -0.97261564401E+01  0.11886491008E+02  0.51100000000E-03 0.  1.
        -12    1    3    3    0    0 -0.37598958109E+02 -0.12946065271E+02  0.12626100577E+01  0.39785379740E+02  0.00000000000E+00 0.  1.
</event>
<event>
 7    1  0.2886818E-013  0.7246155E+02  0.7816164E-02  0.1226708E+00
        -11   -1    0    0    0    0  0.00000000000E+00  0.00000000000E+00  0.45593999997E+02  0.45594000000E+02  0.51100000000E-03 0. -1.
         11   -1    0    0    0    0 -0.00000000000E+00 -0.00000000000E+00 -0.45593999997E+02  0.45594000000E+02  0.51100000000E-03 0.  1.
    9900012    2    1    2    0    0 -0.13451663186E+02  0.32460450417E+00 -0.13024106459E+02  0.72461549198E+02  0.69999972519E+02 0.  0.
         12    1    1    2    0    0  0.13451663186E+02 -0.32460450417E+00  0.13024106459E+02  0.18726450802E+02  0.00000000000E+00 0. -1.
         11    1    3    3    0    0 -0.69657861017E+01  0.98504435914E+01  0.22366468829E+02  0.25412838155E+02  0.51100000000E-03 0. -1.
        -11    1    3    3    0    0 -0.91620145258E+01 -0.55148674260E+01  0.62480931505E+00  0.10711986736E+02  0.51100000000E-03 0.  1.
        -12    1    3    3    0    0  0.26761374415E+01 -0.40109716613E+01 -0.36015384603E+02  0.36336724307E+02  0.00000000000E+00 0.  1.
</event>
<event>
 7    1  0.2886818E-013  0.7246157E+02  0.7816164E-02  0.1226708E+00
        -11   -1    0    0    0    0  0.00000000000E+00  0.00000000000E+00  0.45593999997E+02  0.45594000000E+02  0.51100000000E-03 0. -1.
         11   -1    0    0    0    0 -0.00000000000E+00 -0.00000000000E+00 -0.45593999997E+02  0.45594000000E+02  0.51100000000E-03 0.  1.
    9900012    2    1    2    0    0 -0.11808083966E+02 -0.13116415676E+02  0.62616411726E+01  0.72461565280E+02  0.69999993468E+02 0.  0.
         12    1    1    2    0    0  0.11808083966E+02  0.13116415676E+02 -0.62616411726E+01  0.18726434720E+02  0.00000000000E+00 0. -1.
         11    1    3    3    0    0  0.45264952736E+01 -0.51822033513E+01  0.11807051294E+02  0.13665681525E+02  0.51100000000E-03 0. -1.
        -11    1    3    3    0    0  0.16120672602E+02  0.11516373601E+02 -0.67761893512E+01  0.20938473880E+02  0.51100000000E-03 0.  1.
         12    1    3    3    0    0 -0.32455251841E+02 -0.19450585926E+02  0.12307792299E+01  0.37857409875E+02  0.00000000000E+00 0. -1.
</event>
<event>
 7    1  0.2886818E-013  0.7246161E+02  0.7816164E-02  0.1226708E+00
        -11   -1    0    0    0    0  0.00000000000E+00  0.00000000000E+00  0.45593999997E+02  0.45594000000E+02  0.51100000000E-03 0. -1.
         11   -1    0    0    0    0 -0.00000000000E+00 -0.00000000000E+00 -0.45593999997E+02  0.45594000000E+02  0.51100000000E-03 0.  1.
    9900012    2    1    2    0    0 -0.15597328781E+02 -0.88687095337E+01 -0.53616262401E+01  0.72461609269E+02  0.70000050771E+02 0.  0.
         12    1    1    2    0    0  0.15597328781E+02  0.88687095337E+01  0.53616262401E+01  0.18726390731E+02  0.00000000000E+00 0. -1.
         11    1    3    3    0    0  0.37169204561E+01  0.44448682321E+01  0.22409457581E-02  0.57941657346E+01  0.51100000000E-03 0. -1.
        -11    1    3    3    0    0  0.18395603718E+02 -0.14179986255E+02  0.10819073217E+02  0.25622696811E+02  0.51100000000E-03 0.  1.
         12    1    3    3    0    0 -0.37709852954E+02  0.86640848918E+00 -0.16182940402E+02  0.41044746723E+02  0.00000000000E+00 0. -1.
</event>
<event>
 7    1  0.2886818E-013  0.7246159E+02  0.7816164E-02  0.1226708E+00
        -11   -1    0    0    0    0  0.00000000000E+00  0.00000000000E+00  0.45593999997E+02  0.45594000000E+02  0.51100000000E-03 0. -1.
         11   -1    0    0    0    0 -0.00000000000E+00 -0.00000000000E+00 -0.45593999997E+02  0.45594000000E+02  0.51100000000E-03 0.  1.
    9900012    2    1    2    0    0  0.84189759290E+01  0.15775526956E+02  0.55616430716E+01  0.72461594043E+02  0.70000030936E+02 0.  0.
         12    1    1    2    0    0 -0.84189759290E+01 -0.15775526956E+02 -0.55616430716E+01  0.18726405957E+02  0.00000000000E+00 0. -1.
         11    1    3    3    0    0 -0.24548001007E+01  0.51695017799E+01  0.60137230264E+01  0.83014852338E+01  0.51100000000E-03 0. -1.
        -11    1    3    3    0    0 -0.25612580020E+02  0.69075990738E+01 -0.56429338279E+01  0.27121244121E+02  0.51100000000E-03 0.  1.
         12    1    3    3    0    0  0.36486356050E+02  0.36984261022E+01  0.51908538730E+01  0.37038864688E+02  0.00000000000E+00 0. -1.
</event>
<event>
 7    1  0.2886818E-013  0.7246158E+02  0.7816164E-02  0.1226708E+00
        -11   -1    0    0    0    0  0.00000000000E+00  0.00000000000E+00  0.45593999997E+02  0.45594000000E+02  0.51100000000E-03 0. -1.
         11   -1    0    0    0    0 -0.00000000000E+00 -0.00000000000E+00 -0.45593999997E+02  0.45594000000E+02  0.51100000000E-03 0.  1.
    9900012    2    1    2    0    0  0.94102695975E+01  0.10945750698E+02  0.11929631368E+02  0.72461581848E+02  0.70000015051E+02 0.  0.
         12    1    1    2    0    0 -0.94102695975E+01 -0.10945750698E+02 -0.11929631368E+02  0.18726418152E+02  0.00000000000E+00 0. -1.
         11    1    3    3    0    0  0.77504622040E+01 -0.24634558601E+01  0.89314139089E+00  0.81814412517E+01  0.51100000000E-03 0. -1.
        -11    1    3    3    0    0 -0.14629152472E+02 -0.17254657420E+02 -0.88216423473E+01  0.24280788264E+02  0.51100000000E-03 0.  1.
         12    1    3    3    0    0  0.16288959866E+02  0.30663863978E+02  0.19858132324E+02  0.39999352332E+02  0.00000000000E+00 0. -1.
</event>
<event>
 7    1  0.2886818E-013  0.7246092E+02  0.7816164E-02  0.1226710E+00
        -11   -1    0    0    0    0  0.00000000000E+00  0.00000000000E+00  0.45593999997E+02  0.45594000000E+02  0.51100000000E-03 0.  1.
         11   -1    0    0    0    0 -0.00000000000E+00 -0.00000000000E+00 -0.45593999997E+02  0.45594000000E+02  0.51100000000E-03 0. -1.
    9900012    2    1    2    0    0 -0.16377399723E+02  0.89762239696E+01 -0.13826240655E+01  0.72460921537E+02  0.69999154868E+02 0.  0.
         12    1    1    2    0    0  0.16377399723E+02 -0.89762239696E+01  0.13826240655E+01  0.18727078463E+02  0.00000000000E+00 0. -1.
         11    1    3    3    0    0  0.46088303723E+01  0.19786025907E+02  0.89379069184E+01  0.22194916512E+02  0.51100000000E-03 0. -1.
        -11    1    3    3    0    0 -0.27386264799E+02 -0.28595205208E+01  0.85331488549E+01  0.28827053039E+02  0.51100000000E-03 0.  1.
         12    1    3    3    0    0  0.64000347040E+01 -0.79502814170E+01 -0.18853679839E+02  0.21438951987E+02  0.00000000000E+00 0. -1.
</event>
<event>
 7    1  0.2886818E-013  0.7246157E+02  0.7816164E-02  0.1226708E+00
        -11   -1    0    0    0    0  0.00000000000E+00  0.00000000000E+00  0.45593999997E+02  0.45594000000E+02  0.51100000000E-03 0.  1.
         11   -1    0    0    0    0 -0.00000000000E+00 -0.00000000000E+00 -0.45593999997E+02  0.45594000000E+02  0.51100000000E-03 0. -1.
    9900012    2    1    2    0    0  0.77231346830E+01 -0.13762247749E+02 -0.10081314060E+02  0.72461570399E+02  0.70000000136E+02 0.  0.
         12    1    1    2    0    0 -0.77231346830E+01  0.13762247749E+02  0.10081314060E+02  0.18726429601E+02  0.00000000000E+00 0. -1.
         11    1    3    3    0    0  0.42164972498E+01 -0.13790262550E+01 -0.40309401723E+01  0.59940838669E+01  0.51100000000E-03 0. -1.
        -11    1    3    3    0    0  0.18566751644E+02  0.21859594450E+02 -0.44628624345E+01  0.29025562483E+02  0.51100000000E-03 0.  1.
         12    1    3    3    0    0 -0.15060114211E+02 -0.34242815944E+02 -0.15875114530E+01  0.37441924048E+02  0.00000000000E+00 0. -1.
</event>
<event>
 7    1  0.2886818E-013  0.7246160E+02  0.7816164E-02  0.1226708E+00
        -11   -1    0    0    0    0  0.00000000000E+00  0.00000000000E+00  0.45593999997E+02  0.45594000000E+02  0.51100000000E-03 0.  1.
         11   -1    0    0    0    0 -0.00000000000E+00 -0.00000000000E+00 -0.45593999997E+02  0.45594000000E+02  0.51100000000E-03 0. -1.
    9900012    2    1    2    0    0 -0.14602092869E+02  0.74538334642E+01  0.90497045032E+01  0.72461604163E+02  0.70000044120E+02 0.  0.
         12    1    1    2    0    0  0.14602092869E+02 -0.74538334642E+01 -0.90497045032E+01  0.18726395837E+02  0.00000000000E+00 0. -1.
         11    1    3    3    0    0  0.25415925952E+02  0.36377847063E+01 -0.90923339116E+01  0.27237351299E+02  0.51100000000E-03 0. -1.
        -11    1    3    3    0    0 -0.22311728045E+02 -0.26347074863E+01  0.81896316253E+01  0.23912861776E+02  0.51100000000E-03 0.  1.
        -12    1    3    3    0    0 -0.17706290776E+02  0.64507562443E+01  0.99524067895E+01  0.21311391087E+02  0.00000000000E+00 0.  1.
</event>
<event>
 7    1  0.2886818E-013  0.7246158E+02  0.7816164E-02  0.1226708E+00
        -11   -1    0    0    0    0  0.00000000000E+00  0.00000000000E+00  0.45593999997E+02  0.45594000000E+02  0.51100000000E-03 0. -1.
         11   -1    0    0    0    0 -0.00000000000E+00 -0.00000000000E+00 -0.45593999997E+02  0.45594000000E+02  0.51100000000E-03 0.  1.
    9900012    2    1    2    0    0 -0.14608645623E+02  0.86534614586E+01 -0.78983511550E+01  0.72461578208E+02  0.70000010309E+02 0.  0.
         12    1    1    2    0    0  0.14608645623E+02 -0.86534614586E+01  0.78983511550E+01  0.18726421792E+02  0.00000000000E+00 0. -1.
         11    1    3    3    0    0 -0.21509436892E+02 -0.30457852325E+01  0.31043735507E+01  0.21944699098E+02  0.51100000000E-03 0. -1.
        -11    1    3    3    0    0 -0.20375400825E+02  0.28745987001E+01 -0.58155277171E+01  0.21383185903E+02  0.51100000000E-03 0.  1.
         12    1    3    3    0    0  0.27276192094E+02  0.88246479910E+01 -0.51871969886E+01  0.29133693208E+02  0.00000000000E+00 0. -1.
</event>
<event>
 7    1  0.2886818E-013  0.7246159E+02  0.7816164E-02  0.1226708E+00
        -11   -1    0    0    0    0  0.00000000000E+00  0.00000000000E+00  0.45593999997E+02  0.45594000000E+02  0.51100000000E-03 0. -1.
         11   -1    0    0    0    0 -0.00000000000E+00 -0.00000000000E+00 -0.45593999997E+02  0.45594000000E+02  0.51100000000E-03 0.  1.
    9900012    2    1    2    0    0 -0.44642412191E+01  0.89374156113E+01 -0.15838931430E+02  0.72461585599E+02  0.70000019938E+02 0.  0.
         12    1    1    2    0    0  0.44642412191E+01 -0.89374156113E+01  0.15838931430E+02  0.18726414401E+02  0.00000000000E+00 0. -1.
         11    1    3    3    0    0  0.21044975514E+02  0.98095025410E+01 -0.30089475752E+02  0.38006497941E+02  0.51100000000E-03 0.  1.
        -11    1    3    3    0    0 -0.15799222864E+02  0.86321695733E+00 -0.14756573633E+01  0.15891449007E+02  0.51100000000E-03 0. -1.
        -12    1    3    3    0    0 -0.97099938689E+01 -0.17353038871E+01  0.15726201685E+02  0.18563638651E+02  0.00000000000E+00 0.  1.
</event>
<event>
 7    1  0.2886818E-013  0.7246160E+02  0.7816164E-02  0.1226708E+00
        -11   -1    0    0    0    0  0.00000000000E+00  0.00000000000E+00  0.45593999997E+02  0.45594000000E+02  0.51100000000E-03 0.  1.
         11   -1    0    0    0    0 -0.00000000000E+00 -0.00000000000E+00 -0.45593999997E+02  0.45594000000E+02  0.51100000000E-03 0. -1.
    9900012    2    1    2    0    0  0.10338152820E+02 -0.89613491346E+01  0.12786511367E+02  0.72461600053E+02  0.70000038766E+02 0.  0.
         12    1    1    2    0    0 -0.10338152820E+02  0.89613491346E+01 -0.12786511367E+02  0.18726399947E+02  0.00000000000E+00 0. -1.
         11    1    3    3    0    0  0.11030784970E+02  0.27216092727E+01 -0.72187940367E+01  0.13460919794E+02  0.51100000000E-03 0. -1.
        -11    1    3    3    0    0  0.16379183100E+02  0.43277469279E+01  0.29277752547E+02  0.33825934237E+02  0.51100000000E-03 0.  1.
         12    1    3    3    0    0 -0.17071815250E+02 -0.16010705335E+02 -0.92724471440E+01  0.25174746022E+02  0.00000000000E+00 0. -1.
</event>
<event>
 7    1  0.2886818E-013  0.7246160E+02  0.7816164E-02  0.1226708E+00
        -11   -1    0    0    0    0  0.00000000000E+00  0.00000000000E+00  0.45593999997E+02  0.45594000000E+02  0.51100000000E-03 0.  1.
         11   -1    0    0    0    0 -0.00000000000E+00 -0.00000000000E+00 -0.45593999997E+02  0.45594000000E+02  0.51100000000E-03 0. -1.
    9900012    2    1    2    0    0 -0.57076917500E+01 -0.52195254000E+01  0.17054524992E+02  0.72461601168E+02  0.70000040219E+02 0.  0.
         12    1    1    2    0    0  0.57076917500E+01  0.52195254000E+01 -0.17054524992E+02  0.18726398832E+02  0.00000000000E+00 0. -1.
         11    1    3    3    0    0  0.66242428632E+01  0.94512928170E+01  0.22460051454E+02  0.25251959152E+02  0.51100000000E-03 0. -1.
        -11    1    3    3    0    0  0.94528480222E+01  0.73883087073E+01  0.69156462776E+01  0.13848090301E+02  0.51100000000E-03 0.  1.
         12    1    3    3    0    0 -0.21784782635E+02 -0.22059126924E+02 -0.12321172740E+02  0.33361551715E+02  0.00000000000E+00 0. -1.
</event>
<event>
 7    1  0.2886818E-013  0.7246159E+02  0.7816164E-02  0.1226708E+00
        -11   -1    0    0    0    0  0.00000000000E+00  0.00000000000E+00  0.45593999997E+02  0.45594000000E+02  0.51100000000E-03 0. -1.
         11   -1    0    0    0    0 -0.00000000000E+00 -0.00000000000E+00 -0.45593999997E+02  0.45594000000E+02  0.51100000000E-03 0.  1.
    9900012    2    1    2    0    0  0.12960166313E+01 -0.42450821320E+01 -0.18192799067E+02  0.72461592995E+02  0.70000029572E+02 0.  0.
         12    1    1    2    0    0 -0.12960166313E+01  0.42450821320E+01  0.18192799067E+02  0.18726407005E+02  0.00000000000E+00 0. -1.
         11    1    3    3    0    0  0.60449659539E+01 -0.18031199979E+02 -0.25047852725E+00  0.19019162070E+02  0.51100000000E-03 0. -1.
        -11    1    3    3    0    0 -0.13268581787E+02 -0.15065747368E+02 -0.49729608373E+01  0.20682416352E+02  0.51100000000E-03 0.  1.
         12    1    3    3    0    0  0.85196324648E+01  0.28851865216E+02 -0.12969359703E+02  0.32760014573E+02  0.00000000000E+00 0. -1.
</event>
<event>
 7    1  0.2886818E-013  0.7246215E+02  0.7816164E-02  0.1226706E+00
        -11   -1    0    0    0    0  0.00000000000E+00  0.00000000000E+00  0.45593999997E+02  0.45594000000E+02  0.51100000000E-03 0.  1.
         11   -1    0    0    0    0 -0.00000000000E+00 -0.00000000000E+00 -0.45593999997E+02  0.45594000000E+02  0.51100000000E-03 0. -1.
    9900012    2    1    2    0    0  0.10913545547E+02 -0.14393388260E+02 -0.49378408259E+01  0.72462152247E+02  0.70000758098E+02 0.  0.
         12    1    1    2    0    0 -0.10913545547E+02  0.14393388260E+02  0.49378408259E+01  0.18725847753E+02  0.00000000000E+00 0. -1.
         11    1    3    3    0    0  0.18307642866E+02  0.10714673967E+01 -0.27322725050E+02  0.32906673094E+02  0.51100000000E-03 0. -1.
        -11    1    3    3    0    0 -0.14825657414E+02  0.40723375457E+00  0.78140939873E+01  0.16763830773E+02  0.51100000000E-03 0.  1.
        -12    1    3    3    0    0  0.74315600951E+01 -0.15872089412E+02  0.14570790237E+02  0.22791648380E+02  0.00000000000E+00 0.  1.
</event>
<event>
 7    1  0.2886818E-013  0.7246205E+02  0.7816164E-02  0.1226707E+00
        -11   -1    0    0    0    0  0.00000000000E+00  0.00000000000E+00  0.45593999997E+02  0.45594000000E+02  0.51100000000E-03 0. -1.
         11   -1    0    0    0    0 -0.00000000000E+00 -0.00000000000E+00 -0.45593999997E+02  0.45594000000E+02  0.51100000000E-03 0.  1.
    9900012    2    1    2    0    0 -0.13881850990E+02  0.11547290341E+02 -0.49614072891E+01  0.72462048398E+02  0.70000622816E+02 0.  0.
         12    1    1    2    0    0  0.13881850990E+02 -0.11547290341E+02  0.49614072891E+01  0.18725951602E+02  0.00000000000E+00 0. -1.
         11    1    3    3    0    0 -0.15352513908E+01 -0.26169657806E+01 -0.76545648276E+01  0.82339461798E+01  0.51100000000E-03 0. -1.
        -11    1    3    3    0    0 -0.14810770670E+02  0.97881460863E+01 -0.27985308166E+02  0.33141276454E+02  0.51100000000E-03 0.  1.
         12    1    3    3    0    0  0.24641710713E+01  0.43761100353E+01  0.30678465704E+02  0.31086825764E+02  0.00000000000E+00 0. -1.
</event>
<event>
 7    1  0.2886818E-013  0.7246153E+02  0.7816164E-02  0.1226708E+00
        -11   -1    0    0    0    0  0.00000000000E+00  0.00000000000E+00  0.45593999997E+02  0.45594000000E+02  0.51100000000E-03 0.  1.
         11   -1    0    0    0    0 -0.00000000000E+00 -0.00000000000E+00 -0.45593999997E+02  0.45594000000E+02  0.51100000000E-03 0. -1.
    9900012    2    1    2    0    0  0.45773479921E+01 -0.17970881994E+02 -0.26030457045E+01  0.72461533135E+02  0.69999951593E+02 0.  0.
         12    1    1    2    0    0 -0.45773479921E+01  0.17970881994E+02  0.26030457045E+01  0.18726466865E+02  0.00000000000E+00 0. -1.
         11    1    3    3    0    0  0.26615813501E+01  0.84125137438E+00 -0.15329356150E+02  0.15581427386E+02  0.51100000000E-03 0. -1.
        -11    1    3    3    0    0  0.11570592617E+02  0.15733352422E+02  0.34705315821E+01  0.19835866042E+02  0.51100000000E-03 0.  1.
         12    1    3    3    0    0 -0.96548259750E+01 -0.34545485790E+02  0.92557788631E+01  0.37044239707E+02  0.00000000000E+00 0. -1.
</event>
<event>
 7    1  0.2886818E-013  0.7246155E+02  0.7816164E-02  0.1226708E+00
        -11   -1    0    0    0    0  0.00000000000E+00  0.00000000000E+00  0.45593999997E+02  0.45594000000E+02  0.51100000000E-03 0.  1.
         11   -1    0    0    0    0 -0.00000000000E+00 -0.00000000000E+00 -0.45593999997E+02  0.45594000000E+02  0.51100000000E-03 0. -1.
    9900012    2    1    2    0    0 -0.97817861781E+01  0.15942641433E+02 -0.91029560999E+00  0.72461553599E+02  0.69999978251E+02 0.  0.
         12    1    1    2    0    0  0.97817861781E+01 -0.15942641433E+02  0.91029560999E+00  0.18726446401E+02  0.00000000000E+00 0. -1.
         11    1    3    3    0    0 -0.16932195344E+02  0.11139398763E+01 -0.10000135414E+02  0.19696263853E+02  0.51100000000E-03 0. -1.
        -11    1    3    3    0    0 -0.29084355623E+01 -0.92158836124E+01 -0.14623562512E+02  0.17528265430E+02  0.51100000000E-03 0.  1.
        -12    1    3    3    0    0  0.10058844728E+02  0.24044585169E+02  0.23713402316E+02  0.35237024316E+02  0.00000000000E+00 0.  1.
</event>
<event>
 7    1  0.2886818E-013  0.7246158E+02  0.7816164E-02  0.1226708E+00
        -11   -1    0    0    0    0  0.00000000000E+00  0.00000000000E+00  0.45593999997E+02  0.45594000000E+02  0.51100000000E-03 0.  1.
         11   -1    0    0    0    0 -0.00000000000E+00 -0.00000000000E+00 -0.45593999997E+02  0.45594000000E+02  0.51100000000E-03 0. -1.
    9900012    2    1    2    0    0 -0.13596057403E+02  0.34689626992E+01  0.12401302814E+02  0.72461580411E+02  0.70000013179E+02 0.  0.
         12    1    1    2    0    0  0.13596057403E+02 -0.34689626992E+01 -0.12401302814E+02  0.18726419589E+02  0.00000000000E+00 0. -1.
         11    1    3    3    0    0  0.80300879542E+01 -0.51631903247E+00  0.44267366335E+00  0.80588372691E+01  0.51100000000E-03 0. -1.
        -11    1    3    3    0    0 -0.13813376374E+02 -0.27051996637E+02  0.41002761957E+00  0.30377426024E+02  0.51100000000E-03 0.  1.
         12    1    3    3    0    0 -0.78127689833E+01  0.31037278369E+02  0.11548601531E+02  0.34025317119E+02  0.00000000000E+00 0. -1.
</event>
<event>
 7    1  0.2886818E-013  0.7246159E+02  0.7816164E-02  0.1226708E+00
        -11   -1    0    0    0    0  0.00000000000E+00  0.00000000000E+00  0.45593999997E+02  0.45594000000E+02  0.51100000000E-03 0. -1.
         11   -1    0    0    0    0 -0.00000000000E+00 -0.00000000000E+00 -0.45593999997E+02  0.45594000000E+02  0.51100000000E-03 0.  1.
    9900012    2    1    2    0    0 -0.82072485556E+00  0.86927446976E+01 -0.16566259549E+02  0.72461592040E+02  0.70000028327E+02 0.  0.
         12    1    1    2    0    0  0.82072485556E+00 -0.86927446976E+01  0.16566259549E+02  0.18726407960E+02  0.00000000000E+00 0. -1.
         11    1    3    3    0    0 -0.22234236016E+01  0.59675646012E+01  0.67281862995E+01  0.92641206233E+01  0.51100000000E-03 0. -1.
        -11    1    3    3    0    0 -0.22771380463E+01 -0.25985409259E+02 -0.67512340320E-01  0.26085080222E+02  0.51100000000E-03 0.  1.
         12    1    3    3    0    0  0.36798367924E+01  0.28710589355E+02 -0.23226933508E+02  0.37112391194E+02  0.00000000000E+00 0. -1.
</event>
<event>
 7    1  0.3381318E-013  0.7246155E+02  0.7816164E-02  0.1226708E+00
        -11   -1    0    0    0    0  0.00000000000E+00  0.00000000000E+00  0.45593999997E+02  0.45594000000E+02  0.51100000000E-03 0. -1.
         11   -1    0    0    0    0 -0.00000000000E+00 -0.00000000000E+00 -0.45593999997E+02  0.45594000000E+02  0.51100000000E-03 0.  1.
    9900012    2    1    2    0    0 -0.10799334500E+02 -0.36654949122E+01 -0.14853231972E+02  0.72461548692E+02  0.69999971858E+02 0.  0.
         12    1    1    2    0    0  0.10799334500E+02  0.36654949122E+01  0.14853231972E+02  0.18726451308E+02  0.00000000000E+00 0. -1.
         11    1    3    3    0    0  0.16034492883E+02 -0.15483066449E+01 -0.26073007073E+01  0.16318708059E+02  0.51100000000E-03 0. -1.
        -11    1    3    3    0    0 -0.11145231333E+02  0.35790821120E+01 -0.29741855745E+02  0.31962540476E+02  0.51100000000E-03 0.  1.
         12    1    3    3    0    0 -0.15688596049E+02 -0.56962703793E+01  0.17495924481E+02  0.24180300157E+02  0.00000000000E+00 0. -1.
</event>
<event>
 7    1  0.2886818E-013  0.7246149E+02  0.7816164E-02  0.1226708E+00
        -11   -1    0    0    0    0  0.00000000000E+00  0.00000000000E+00  0.45593999997E+02  0.45594000000E+02  0.51100000000E-03 0.  1.
         11   -1    0    0    0    0 -0.00000000000E+00 -0.00000000000E+00 -0.45593999997E+02  0.45594000000E+02  0.51100000000E-03 0. -1.
    9900012    2    1    2    0    0  0.16535648496E+02  0.82586111185E+01  0.30082994639E+01  0.72461489528E+02  0.69999894786E+02 0.  0.
         12    1    1    2    0    0 -0.16535648496E+02 -0.82586111185E+01 -0.30082994639E+01  0.18726510472E+02  0.00000000000E+00 0. -1.
         11    1    3    3    0    0  0.16297372693E+01 -0.94343421969E+01 -0.52585507818E+00  0.95885024941E+01  0.51100000000E-03 0. -1.
        -11    1    3    3    0    0  0.17057157622E+01 -0.13423947788E+02 -0.18206021198E+02  0.22684158539E+02  0.51100000000E-03 0.  1.
         12    1    3    3    0    0  0.13200195465E+02  0.31116901103E+02  0.21740175740E+02  0.40188828495E+02  0.00000000000E+00 0. -1.
</event>
<event>
 7    1  0.2886818E-013  0.7246156E+02  0.7816164E-02  0.1226708E+00
        -11   -1    0    0    0    0  0.00000000000E+00  0.00000000000E+00  0.45593999997E+02  0.45594000000E+02  0.51100000000E-03 0. -1.
         11   -1    0    0    0    0 -0.00000000000E+00 -0.00000000000E+00 -0.45593999997E+02  0.45594000000E+02  0.51100000000E-03 0.  1.
    9900012    2    1    2    0    0 -0.40751817648E+01  0.39929043092E+01 -0.17836177572E+02  0.72461558224E+02  0.69999984276E+02 0.  0.
         12    1    1    2    0    0  0.40751817648E+01 -0.39929043092E+01  0.17836177572E+02  0.18726441776E+02  0.00000000000E+00 0. -1.
         11    1    3    3    0    0 -0.11434311975E+02  0.15619730895E+02 -0.17673603062E+02  0.26212129425E+02  0.51100000000E-03 0. -1.
        -11    1    3    3    0    0 -0.11572747158E+02  0.23911074276E+01 -0.14474599034E+02  0.18685820532E+02  0.51100000000E-03 0.  1.
         12    1    3    3    0    0  0.18931877368E+02 -0.14017934013E+02  0.14312024524E+02  0.27563608266E+02  0.00000000000E+00 0. -1.
</event>
<event>
 7    1  0.2886818E-013  0.7246156E+02  0.7816164E-02  0.1226708E+00
        -11   -1    0    0    0    0  0.00000000000E+00  0.00000000000E+00  0.45593999997E+02  0.45594000000E+02  0.51100000000E-03 0.  1.
         11   -1    0    0    0    0 -0.00000000000E+00 -0.00000000000E+00 -0.45593999997E+02  0.45594000000E+02  0.51100000000E-03 0. -1.
    9900012    2    1    2    0    0 -0.11883529665E+02  0.57708646913E+01  0.13272464855E+02  0.72461562007E+02  0.69999989204E+02 0.  0.
         12    1    1    2    0    0  0.11883529665E+02 -0.57708646913E+01 -0.13272464855E+02  0.18726437993E+02  0.00000000000E+00 0. -1.
         11    1    3    3    0    0 -0.37804702370E+01  0.40143214216E+01  0.34442323832E+01  0.65014974167E+01  0.51100000000E-03 0.  1.
        -11    1    3    3    0    0  0.22848951299E+02  0.99923076086E+01  0.20412909968E+02  0.32227436765E+02  0.51100000000E-03 0. -1.
         12    1    3    3    0    0 -0.30952010727E+02 -0.82357643389E+01 -0.10584677496E+02  0.33732627825E+02  0.00000000000E+00 0. -1.
</event>
<event>
 7    1  0.2886818E-013  0.7246173E+02  0.7816164E-02  0.1226708E+00
        -11   -1    0    0    0    0  0.00000000000E+00  0.00000000000E+00  0.45593999997E+02  0.45594000000E+02  0.51100000000E-03 0.  1.
         11   -1    0    0    0    0 -0.00000000000E+00 -0.00000000000E+00 -0.45593999997E+02  0.45594000000E+02  0.51100000000E-03 0. -1.
    9900012    2    1    2    0    0 -0.14217147580E+02 -0.41741400394E+01  0.11450870016E+02  0.72461730897E+02  0.70000209214E+02 0.  0.
         12    1    1    2    0    0  0.14217147580E+02  0.41741400394E+01 -0.11450870016E+02  0.18726269103E+02  0.00000000000E+00 0. -1.
         11    1    3    3    0    0  0.83594426061E+01  0.14935766863E+02  0.83271964753E+01  0.19034169640E+02  0.51100000000E-03 0. -1.
        -11    1    3    3    0    0  0.84251641493E+01  0.56698146164E+01 -0.71638725073E+01  0.12427842061E+02  0.51100000000E-03 0.  1.
        -12    1    3    3    0    0 -0.31001754336E+02 -0.24779721519E+02  0.10287546048E+02  0.40999719196E+02  0.00000000000E+00 0.  1.
</event>
<event>
 7    1  0.2886818E-013  0.7246159E+02  0.7816164E-02  0.1226708E+00
        -11   -1    0    0    0    0  0.00000000000E+00  0.00000000000E+00  0.45593999997E+02  0.45594000000E+02  0.51100000000E-03 0.  1.
         11   -1    0    0    0    0 -0.00000000000E+00 -0.00000000000E+00 -0.45593999997E+02  0.45594000000E+02  0.51100000000E-03 0. -1.
    9900012    2    1    2    0    0 -0.21365224124E+01  0.11486970487E+01  0.18568630113E+02  0.72461594654E+02  0.70000031732E+02 0.  0.
         12    1    1    2    0    0  0.21365224124E+01 -0.11486970487E+01 -0.18568630113E+02  0.18726405346E+02  0.00000000000E+00 0. -1.
         11    1    3    3    0    0 -0.15747026442E+02 -0.20777499747E+02 -0.76297063863E+01  0.27164052667E+02  0.51100000000E-03 0. -1.
        -11    1    3    3    0    0  0.36383514461E+01 -0.34366341666E+01 -0.26071150949E+01  0.56431467302E+01  0.51100000000E-03 0.  1.
        -12    1    3    3    0    0  0.99721525840E+01  0.25362830962E+02  0.28805451594E+02  0.39654395256E+02  0.00000000000E+00 0.  1.
</event>
<event>
 7    1  0.2886818E-013  0.7246162E+02  0.7816164E-02  0.1226708E+00
        -11   -1    0    0    0    0  0.00000000000E+00  0.00000000000E+00  0.45593999997E+02  0.45594000000E+02  0.51100000000E-03 0.  1.
         11   -1    0    0    0    0 -0.00000000000E+00 -0.00000000000E+00 -0.45593999997E+02  0.45594000000E+02  0.51100000000E-03 0. -1.
    9900012    2    1    2    0    0  0.11079721870E+02  0.88173713835E+01  0.12254435591E+02  0.72461615765E+02  0.70000059234E+02 0.  0.
         12    1    1    2    0    0 -0.11079721870E+02 -0.88173713835E+01 -0.12254435591E+02  0.18726384235E+02  0.00000000000E+00 0. -1.
         11    1    3    3    0    0 -0.48189244473E+01  0.30067541245E+02 -0.35622681966E+01  0.30658911010E+02  0.51100000000E-03 0. -1.
        -11    1    3    3    0    0  0.13911372885E+02 -0.50466013408E+01  0.20067013147E+02  0.24933501510E+02  0.51100000000E-03 0.  1.
        -12    1    3    3    0    0  0.19872734329E+01 -0.16203568521E+02 -0.42503093591E+01  0.16869203246E+02  0.00000000000E+00 0.  1.
</event>
<event>
 7    1  0.2886818E-013  0.7246157E+02  0.7816164E-02  0.1226708E+00
        -11   -1    0    0    0    0  0.00000000000E+00  0.00000000000E+00  0.45593999997E+02  0.45594000000E+02  0.51100000000E-03 0.  1.
         11   -1    0    0    0    0 -0.00000000000E+00 -0.00000000000E+00 -0.45593999997E+02  0.45594000000E+02  0.51100000000E-03 0. -1.
    9900012    2    1    2    0    0  0.13360355720E+02 -0.75002441557E+01  0.10766908297E+02  0.72461572641E+02  0.70000003056E+02 0.  0.
         12    1    1    2    0    0 -0.13360355720E+02  0.75002441557E+01 -0.10766908297E+02  0.18726427359E+02  0.00000000000E+00 0. -1.
         11    1    3    3    0    0 -0.23671034719E+01  0.17465655799E+02  0.67416665775E+01  0.18870675129E+02  0.51100000000E-03 0. -1.
        -11    1    3    3    0    0 -0.95472404475E+01  0.71467911126E+01  0.44320845002E+01  0.12722806162E+02  0.51100000000E-03 0.  1.
         12    1    3    3    0    0  0.25274699640E+02 -0.32112691067E+02 -0.40684278050E+00  0.40868091349E+02  0.00000000000E+00 0. -1.
</event>
<event>
 7    1  0.2886818E-013  0.7246154E+02  0.7816164E-02  0.1226708E+00
        -11   -1    0    0    0    0  0.00000000000E+00  0.00000000000E+00  0.45593999997E+02  0.45594000000E+02  0.51100000000E-03 0.  1.
         11   -1    0    0    0    0 -0.00000000000E+00 -0.00000000000E+00 -0.45593999997E+02  0.45594000000E+02  0.51100000000E-03 0. -1.
    9900012    2    1    2    0    0  0.27441742211E+01 -0.10915926649E+02 -0.14966374073E+02  0.72461540119E+02  0.69999960691E+02 0.  0.
         12    1    1    2    0    0 -0.27441742211E+01  0.10915926649E+02  0.14966374073E+02  0.18726459881E+02  0.00000000000E+00 0. -1.
         11    1    3    3    0    0 -0.45405947022E+01 -0.42044666404E+00 -0.61101279448E+01  0.76241353221E+01  0.51100000000E-03 0. -1.
        -11    1    3    3    0    0 -0.23452931472E+02 -0.20503177769E+02  0.59828955776E+00  0.31157314453E+02  0.51100000000E-03 0.  1.
         12    1    3    3    0    0  0.30737700395E+02  0.10007697784E+02 -0.94545356862E+01  0.33680090344E+02  0.00000000000E+00 0. -1.
</event>
<event>
 7    1  0.2886818E-013  0.7246188E+02  0.7816164E-02  0.1226707E+00
        -11   -1    0    0    0    0  0.00000000000E+00  0.00000000000E+00  0.45593999997E+02  0.45594000000E+02  0.51100000000E-03 0. -1.
         11   -1    0    0    0    0 -0.00000000000E+00 -0.00000000000E+00 -0.45593999997E+02  0.45594000000E+02  0.51100000000E-03 0.  1.
    9900012    2    1    2    0    0 -0.14047708282E+02  0.88451616425E+01 -0.86655906435E+01  0.72461883113E+02  0.70000407503E+02 0.  0.
         12    1    1    2    0    0  0.14047708282E+02 -0.88451616425E+01  0.86655906435E+01  0.18726116887E+02  0.00000000000E+00 0. -1.
         11    1    3    3    0    0  0.30658362710E+01  0.23537604284E+02  0.69792074740E+01  0.24741210656E+02  0.51100000000E-03 0. -1.
        -11    1    3    3    0    0 -0.88849332362E+00  0.21665730199E+01 -0.23057641809E+02  0.23176244413E+02  0.51100000000E-03 0.  1.
        -12    1    3    3    0    0 -0.16225051229E+02 -0.16859015661E+02  0.74128436912E+01  0.24544428045E+02  0.00000000000E+00 0.  1.
</event>
<event>
 7    1  0.2886818E-013  0.7246152E+02  0.7816164E-02  0.1226708E+00
        -11   -1    0    0    0    0  0.00000000000E+00  0.00000000000E+00  0.45593999997E+02  0.45594000000E+02  0.51100000000E-03 0.  1.
         11   -1    0    0    0    0 -0.00000000000E+00 -0.00000000000E+00 -0.45593999997E+02  0.45594000000E+02  0.51100000000E-03 0. -1.
    9900012    2    1    2    0    0  0.10617045189E+02  0.14981268927E+02 -0.36770754048E+01  0.72461522736E+02  0.69999938046E+02 0.  0.
         12    1    1    2    0    0 -0.10617045189E+02 -0.14981268927E+02  0.36770754048E+01  0.18726477264E+02  0.00000000000E+00 0. -1.
         11    1    3    3    0    0  0.48699791843E+01 -0.18174536105E+01 -0.33895345314E+01  0.62055442535E+01  0.51100000000E-03 0. -1.
        -11    1    3    3    0    0  0.19844978421E+02 -0.24024329659E+01 -0.24948427409E+02  0.31969030063E+02  0.51100000000E-03 0.  1.
         12    1    3    3    0    0 -0.14097912417E+02  0.19201155503E+02  0.24660886536E+02  0.34286948419E+02  0.00000000000E+00 0. -1.
</event>
<event>
 7    1  0.2886818E-013  0.7246161E+02  0.7816164E-02  0.1226708E+00
        -11   -1    0    0    0    0  0.00000000000E+00  0.00000000000E+00  0.45593999997E+02  0.45594000000E+02  0.51100000000E-03 0.  1.
         11   -1    0    0    0    0 -0.00000000000E+00 -0.00000000000E+00 -0.45593999997E+02  0.45594000000E+02  0.51100000000E-03 0. -1.
    9900012    2    1    2    0    0 -0.15184436369E+02  0.10867121051E+02  0.14199245985E+01  0.72461611836E+02  0.70000054116E+02 0.  0.
         12    1    1    2    0    0  0.15184436369E+02 -0.10867121051E+02 -0.14199245985E+01  0.18726388164E+02  0.00000000000E+00 0. -1.
         11    1    3    3    0    0 -0.81866937408E+01 -0.35528493410E+01 -0.14498505948E+02  0.17025021816E+02  0.51100000000E-03 0. -1.
        -11    1    3    3    0    0 -0.17615650018E+02  0.11674505212E+02 -0.12791825146E+02  0.24702955053E+02  0.51100000000E-03 0.  1.
        -12    1    3    3    0    0  0.10617907390E+02  0.27454651804E+01  0.28710255693E+02  0.30733634968E+02  0.00000000000E+00 0.  1.
</event>
<event>
 7    1  0.2886818E-013  0.7246161E+02  0.7816164E-02  0.1226708E+00
        -11   -1    0    0    0    0  0.00000000000E+00  0.00000000000E+00  0.45593999997E+02  0.45594000000E+02  0.51100000000E-03 0.  1.
         11   -1    0    0    0    0 -0.00000000000E+00 -0.00000000000E+00 -0.45593999997E+02  0.45594000000E+02  0.51100000000E-03 0. -1.
    9900012    2    1    2    0    0 -0.17229042693E+02  0.69094299018E+01  0.24693115640E+01  0.72461611313E+02  0.70000053434E+02 0.  0.
         12    1    1    2    0    0  0.17229042693E+02 -0.69094299018E+01 -0.24693115640E+01  0.18726388687E+02  0.00000000000E+00 0. -1.
         11    1    3    3    0    0 -0.21391175312E+02  0.88959908658E+01 -0.20821463216E+02  0.31148906328E+02  0.51100000000E-03 0. -1.
        -11    1    3    3    0    0  0.24068106435E+01  0.15277113396E+02  0.53801073203E+01  0.16374629346E+02  0.51100000000E-03 0.  1.
        -12    1    3    3    0    0  0.17553219760E+01 -0.17263674360E+02  0.17910667460E+02  0.24938075638E+02  0.00000000000E+00 0.  1.
</event>
<event>
 7    1  0.2886818E-013  0.7246155E+02  0.7816164E-02  0.1226708E+00
        -11   -1    0    0    0    0  0.00000000000E+00  0.00000000000E+00  0.45593999997E+02  0.45594000000E+02  0.51100000000E-03 0. -1.
         11   -1    0    0    0    0 -0.00000000000E+00 -0.00000000000E+00 -0.45593999997E+02  0.45594000000E+02  0.51100000000E-03 0.  1.
    9900012    2    1    2    0    0  0.14203414444E+02 -0.59085412504E+01 -0.10678574089E+02  0.72461553830E+02  0.69999978552E+02 0.  0.
         12    1    1    2    0    0 -0.14203414444E+02  0.59085412504E+01  0.10678574089E+02  0.18726446170E+02  0.00000000000E+00 0. -1.
         11    1    3    3    0    0  0.37935972110E+02 -0.77701768693E+00 -0.64089945358E+01  0.38481384430E+02  0.51100000000E-03 0. -1.
        -11    1    3    3    0    0  0.89724822219E+00 -0.83894931769E+01  0.12517697368E+01  0.85296880290E+01  0.51100000000E-03 0.  1.
        -12    1    3    3    0    0 -0.24629805888E+02  0.32579696135E+01 -0.55213492896E+01  0.25450481371E+02  0.00000000000E+00 0.  1.
</event>
<event>
 7    1  0.2886818E-013  0.7246162E+02  0.7816164E-02  0.1226708E+00
        -11   -1    0    0    0    0  0.00000000000E+00  0.00000000000E+00  0.45593999997E+02  0.45594000000E+02  0.51100000000E-03 0.  1.
         11   -1    0    0    0    0 -0.00000000000E+00 -0.00000000000E+00 -0.45593999997E+02  0.45594000000E+02  0.51100000000E-03 0. -1.
    9900012    2    1    2    0    0 -0.78885835248E+01 -0.14542516733E+02 -0.87728476700E+01  0.72461617562E+02  0.70000061575E+02 0.  0.
         12    1    1    2    0    0  0.78885835248E+01  0.14542516733E+02  0.87728476700E+01  0.18726382438E+02  0.00000000000E+00 0. -1.
         11    1    3    3    0    0  0.19682227912E+01 -0.10005103127E+02 -0.34709046389E+01  0.10771405146E+02  0.51100000000E-03 0. -1.
        -11    1    3    3    0    0  0.83630947735E+01 -0.17281475908E+02  0.20192107673E+02  0.27862375640E+02  0.51100000000E-03 0.  1.
         12    1    3    3    0    0 -0.18219901089E+02  0.12744062302E+02 -0.25494050704E+02  0.33827836777E+02  0.00000000000E+00 0. -1.
</event>
<event>
 7    1  0.2886818E-013  0.7246169E+02  0.7816164E-02  0.1226708E+00
        -11   -1    0    0    0    0  0.00000000000E+00  0.00000000000E+00  0.45593999997E+02  0.45594000000E+02  0.51100000000E-03 0.  1.
         11   -1    0    0    0    0 -0.00000000000E+00 -0.00000000000E+00 -0.45593999997E+02  0.45594000000E+02  0.51100000000E-03 0. -1.
    9900012    2    1    2    0    0 -0.11223337549E+02 -0.73777594050E+01  0.13049142660E+02  0.72461687930E+02  0.70000153242E+02 0.  0.
         12    1    1    2    0    0  0.11223337549E+02  0.73777594050E+01 -0.13049142660E+02  0.18726312070E+02  0.00000000000E+00 0. -1.
         11    1    3    3    0    0 -0.77183446332E+01 -0.11914925603E+02 -0.53901263387E+00  0.14206647419E+02  0.51100000000E-03 0. -1.
        -11    1    3    3    0    0 -0.84878435885E+01 -0.15458523114E+02  0.28012251832E+02  0.33101294214E+02  0.51100000000E-03 0.  1.
         12    1    3    3    0    0  0.49828506731E+01  0.19995689312E+02 -0.14424096538E+02  0.25153746298E+02  0.00000000000E+00 0. -1.
</event>
<event>
 7    1  0.2886818E-013  0.7246159E+02  0.7816164E-02  0.1226708E+00
        -11   -1    0    0    0    0  0.00000000000E+00  0.00000000000E+00  0.45593999997E+02  0.45594000000E+02  0.51100000000E-03 0. -1.
         11   -1    0    0    0    0 -0.00000000000E+00 -0.00000000000E+00 -0.45593999997E+02  0.45594000000E+02  0.51100000000E-03 0.  1.
    9900012    2    1    2    0    0 -0.17649468750E+01  0.16913319452E+02  0.78423948279E+01  0.72461586329E+02  0.70000020888E+02 0.  0.
         12    1    1    2    0    0  0.17649468750E+01 -0.16913319452E+02 -0.78423948279E+01  0.18726413671E+02  0.00000000000E+00 0. -1.
         11    1    3    3    0    0  0.43387700628E+01 -0.17346890028E+02 -0.98122301070E+01  0.20396553121E+02  0.51100000000E-03 0. -1.
        -11    1    3    3    0    0 -0.97173617122E+00 -0.57955582087E+00 -0.82629980364E+01  0.83401014950E+01  0.51100000000E-03 0.  1.
         12    1    3    3    0    0 -0.51319807666E+01  0.34839765300E+02  0.25917622971E+02  0.43724931713E+02  0.00000000000E+00 0. -1.
</event>
<event>
 7    1  0.2886818E-013  0.7246172E+02  0.7816164E-02  0.1226708E+00
        -11   -1    0    0    0    0  0.00000000000E+00  0.00000000000E+00  0.45593999997E+02  0.45594000000E+02  0.51100000000E-03 0. -1.
         11   -1    0    0    0    0 -0.00000000000E+00 -0.00000000000E+00 -0.45593999997E+02  0.45594000000E+02  0.51100000000E-03 0.  1.
    9900012    2    1    2    0    0  0.15143917924E+02 -0.75015473539E+01  0.80661055084E+01  0.72461721116E+02  0.70000196473E+02 0.  0.
         12    1    1    2    0    0 -0.15143917924E+02  0.75015473539E+01 -0.80661055084E+01  0.18726278884E+02  0.00000000000E+00 0. -1.
         11    1    3    3    0    0  0.72211039540E+01 -0.17010218021E+02  0.26487957777E+02  0.32297117006E+02  0.51100000000E-03 0. -1.
        -11    1    3    3    0    0 -0.52178421893E+01 -0.74753239058E+01  0.32282655092E+01  0.96709897667E+01  0.51100000000E-03 0.  1.
        -12    1    3    3    0    0  0.13140656159E+02  0.16983994573E+02 -0.21650117777E+02  0.30493614343E+02  0.00000000000E+00 0.  1.
</event>
<event>
 7    1  0.2886818E-013  0.7246159E+02  0.7816164E-02  0.1226708E+00
        -11   -1    0    0    0    0  0.00000000000E+00  0.00000000000E+00  0.45593999997E+02  0.45594000000E+02  0.51100000000E-03 0. -1.
         11   -1    0    0    0    0 -0.00000000000E+00 -0.00000000000E+00 -0.45593999997E+02  0.45594000000E+02  0.51100000000E-03 0.  1.
    9900012    2    1    2    0    0 -0.20520599466E+01 -0.16474059805E+02 -0.86644547130E+01  0.72461591589E+02  0.70000027741E+02 0.  0.
         12    1    1    2    0    0  0.20520599466E+01  0.16474059805E+02  0.86644547130E+01  0.18726408411E+02  0.00000000000E+00 0. -1.
         11    1    3    3    0    0  0.21595066376E+02 -0.24409577402E+02  0.12702001465E+02  0.34978782172E+02  0.51100000000E-03 0. -1.
        -11    1    3    3    0    0 -0.11889711409E+02 -0.65610727748E+00 -0.34817922084E+00  0.11912889791E+02  0.51100000000E-03 0.  1.
        -12    1    3    3    0    0 -0.11757414914E+02  0.85916248747E+01 -0.21018276958E+02  0.25569919627E+02  0.00000000000E+00 0.  1.
</event>
<event>
 7    1  0.2886818E-013  0.7246225E+02  0.7816164E-02  0.1226706E+00
        -11   -1    0    0    0    0  0.00000000000E+00  0.00000000000E+00  0.45593999997E+02  0.45594000000E+02  0.51100000000E-03 0. -1.
         11   -1    0    0    0    0 -0.00000000000E+00 -0.00000000000E+00 -0.45593999997E+02  0.45594000000E+02  0.51100000000E-03 0.  1.
    9900012    2    1    2    0    0  0.12341427019E+02  0.70317695873E+01 -0.12202333602E+02  0.72462254361E+02  0.70000891119E+02 0.  0.
         12    1    1    2    0    0 -0.12341427019E+02 -0.70317695873E+01  0.12202333602E+02  0.18725745639E+02  0.00000000000E+00 0. -1.
         11    1    3    3    0    0 -0.12713035241E+02  0.11042394730E+02  0.36703880469E+01  0.17234485634E+02  0.51100000000E-03 0. -1.
        -11    1    3    3    0    0  0.11658035444E+02 -0.19954337098E+02 -0.23585593749E+02  0.33020684309E+02  0.51100000000E-03 0.  1.
         12    1    3    3    0    0  0.13396426815E+02  0.15943711955E+02  0.77128721005E+01  0.22207084418E+02  0.00000000000E+00 0. -1.
</event>
<event>
 7    1  0.2886818E-013  0.7246184E+02  0.7816164E-02  0.1226707E+00
        -11   -1    0    0    0    0  0.00000000000E+00  0.00000000000E+00  0.45593999997E+02  0.45594000000E+02  0.51100000000E-03 0. -1.
         11   -1    0    0    0    0 -0.00000000000E+00 -0.00000000000E+00 -0.45593999997E+02  0.45594000000E+02  0.51100000000E-03 0.  1.
    9900012    2    1    2    0    0 -0.10436690829E+02 -0.11389873001E+02 -0.10583728732E+02  0.72461840856E+02  0.70000352455E+02 0.  0.
         12    1    1    2    0    0  0.10436690829E+02  0.11389873001E+02  0.10583728732E+02  0.18726159144E+02  0.00000000000E+00 0. -1.
         11    1    3    3    0    0  0.49247962670E+01 -0.63646726671E+01  0.12222561223E+01  0.81398149070E+01  0.51100000000E-03 0. -1.
        -11    1    3    3    0    0 -0.86431906649E+00  0.23371300655E+02 -0.20688630842E+02  0.31224736799E+02  0.51100000000E-03 0.  1.
         12    1    3    3    0    0 -0.14497168029E+02 -0.28396500989E+02  0.88826459882E+01  0.33097289150E+02  0.00000000000E+00 0. -1.
</event>
<event>
 7    1  0.2886818E-013  0.7246158E+02  0.7816164E-02  0.1226708E+00
        -11   -1    0    0    0    0  0.00000000000E+00  0.00000000000E+00  0.45593999997E+02  0.45594000000E+02  0.51100000000E-03 0. -1.
         11   -1    0    0    0    0 -0.00000000000E+00 -0.00000000000E+00 -0.45593999997E+02  0.45594000000E+02  0.51100000000E-03 0.  1.
    9900012    2    1    2    0    0  0.11676166030E+02  0.64271554372E+01 -0.13154375216E+02  0.72461581029E+02  0.70000013983E+02 0.  0.
         12    1    1    2    0    0 -0.11676166030E+02 -0.64271554372E+01  0.13154375216E+02  0.18726418971E+02  0.00000000000E+00 0. -1.
         11    1    3    3    0    0  0.45200818780E+00  0.68742203986E+01  0.11398266421E+02  0.13318396869E+02  0.51100000000E-03 0. -1.
        -11    1    3    3    0    0 -0.92902466288E+01  0.20884757940E+02 -0.42404001993E+01  0.23247855616E+02  0.51100000000E-03 0.  1.
        -12    1    3    3    0    0  0.20514404471E+02 -0.21331822901E+02 -0.20312241437E+02  0.35895328544E+02  0.00000000000E+00 0.  1.
</event>
<event>
 7    1  0.2886818E-013  0.7246157E+02  0.7816164E-02  0.1226708E+00
        -11   -1    0    0    0    0  0.00000000000E+00  0.00000000000E+00  0.45593999997E+02  0.45594000000E+02  0.51100000000E-03 0.  1.
         11   -1    0    0    0    0 -0.00000000000E+00 -0.00000000000E+00 -0.45593999997E+02  0.45594000000E+02  0.51100000000E-03 0. -1.
    9900012    2    1    2    0    0  0.15968631840E+02 -0.55390308886E+01  0.80623327534E+01  0.72461567466E+02  0.69999996315E+02 0.  0.
         12    1    1    2    0    0 -0.15968631840E+02  0.55390308886E+01 -0.80623327534E+01  0.18726432534E+02  0.00000000000E+00 0. -1.
         11    1    3    3    0    0 -0.15640294598E+02  0.16007647249E+02 -0.84054888347E+01  0.23906397227E+02  0.51100000000E-03 0. -1.
        -11    1    3    3    0    0  0.16995663228E+01  0.43391639817E+01  0.60759328752E+01  0.76572730336E+01  0.51100000000E-03 0.  1.
        -12    1    3    3    0    0  0.29909360116E+02 -0.25885842119E+02  0.10391888713E+02  0.40897897205E+02  0.00000000000E+00 0.  1.
</event>
<event>
 7    1  0.2886818E-013  0.7246161E+02  0.7816164E-02  0.1226708E+00
        -11   -1    0    0    0    0  0.00000000000E+00  0.00000000000E+00  0.45593999997E+02  0.45594000000E+02  0.51100000000E-03 0. -1.
         11   -1    0    0    0    0 -0.00000000000E+00 -0.00000000000E+00 -0.45593999997E+02  0.45594000000E+02  0.51100000000E-03 0.  1.
    9900012    2    1    2    0    0  0.20386464362E+01  0.17825059943E+02  0.53655121102E+01  0.72461613230E+02  0.70000055931E+02 0.  0.
         12    1    1    2    0    0 -0.20386464362E+01 -0.17825059943E+02 -0.53655121102E+01  0.18726386770E+02  0.00000000000E+00 0. -1.
         11    1    3    3    0    0 -0.12401070831E+02  0.46850795052E+01  0.24386326203E+02  0.27756610630E+02  0.51100000000E-03 0. -1.
        -11    1    3    3    0    0  0.20161719638E+02  0.20362462123E+01  0.18848433897E+01  0.20351753542E+02  0.51100000000E-03 0.  1.
        -12    1    3    3    0    0 -0.57220023710E+01  0.11103734225E+02 -0.20905657482E+02  0.24353249058E+02  0.00000000000E+00 0.  1.
</event>
<event>
 7    1  0.2886818E-013  0.7246148E+02  0.7816164E-02  0.1226708E+00
        -11   -1    0    0    0    0  0.00000000000E+00  0.00000000000E+00  0.45593999997E+02  0.45594000000E+02  0.51100000000E-03 0. -1.
         11   -1    0    0    0    0 -0.00000000000E+00 -0.00000000000E+00 -0.45593999997E+02  0.45594000000E+02  0.51100000000E-03 0.  1.
    9900012    2    1    2    0    0 -0.36305256706E+00 -0.18615647000E+02  0.20020984178E+01  0.72461480876E+02  0.69999883516E+02 0.  0.
         12    1    1    2    0    0  0.36305256706E+00  0.18615647000E+02 -0.20020984178E+01  0.18726519124E+02  0.00000000000E+00 0. -1.
         11    1    3    3    0    0  0.74117746595E+01 -0.18793012078E+02  0.74173331218E+01  0.21520421406E+02  0.51100000000E-03 0. -1.
        -11    1    3    3    0    0  0.20339263482E+02 -0.71013177949E+01 -0.36128550133E+01  0.21844154253E+02  0.51100000000E-03 0.  1.
        -12    1    3    3    0    0 -0.28114090708E+02  0.72786828727E+01 -0.18023796907E+01  0.29096905218E+02  0.00000000000E+00 0.  1.
</event>
<event>
 7    1  0.2886818E-013  0.7246162E+02  0.7816164E-02  0.1226708E+00
        -11   -1    0    0    0    0  0.00000000000E+00  0.00000000000E+00  0.45593999997E+02  0.45594000000E+02  0.51100000000E-03 0. -1.
         11   -1    0    0    0    0 -0.00000000000E+00 -0.00000000000E+00 -0.45593999997E+02  0.45594000000E+02  0.51100000000E-03 0.  1.
    9900012    2    1    2    0    0  0.50731501953E+01 -0.32503035603E+01 -0.17730650446E+02  0.72461620442E+02  0.70000065326E+02 0.  0.
         12    1    1    2    0    0 -0.50731501953E+01  0.32503035603E+01  0.17730650446E+02  0.18726379558E+02  0.00000000000E+00 0. -1.
         11    1    3    3    0    0  0.14586229969E+02 -0.20194469892E+02 -0.17987397230E+01  0.24976192339E+02  0.51100000000E-03 0. -1.
        -11    1    3    3    0    0  0.10459885343E+02  0.17401829706E+02  0.23066276172E+01  0.20434123659E+02  0.51100000000E-03 0.  1.
        -12    1    3    3    0    0 -0.19972965117E+02 -0.45766337391E+00 -0.18238538340E+02  0.27051304443E+02  0.00000000000E+00 0.  1.
</event>
<event>
 7    1  0.2886818E-013  0.7246156E+02  0.7816164E-02  0.1226708E+00
        -11   -1    0    0    0    0  0.00000000000E+00  0.00000000000E+00  0.45593999997E+02  0.45594000000E+02  0.51100000000E-03 0. -1.
         11   -1    0    0    0    0 -0.00000000000E+00 -0.00000000000E+00 -0.45593999997E+02  0.45594000000E+02  0.51100000000E-03 0.  1.
    9900012    2    1    2    0    0 -0.16194662944E+02 -0.71509449270E+01 -0.61054350783E+01  0.72461562573E+02  0.69999989941E+02 0.  0.
         12    1    1    2    0    0  0.16194662944E+02  0.71509449270E+01  0.61054350783E+01  0.18726437427E+02  0.00000000000E+00 0. -1.
         11    1    3    3    0    0  0.41585293354E+01  0.48979001915E+01 -0.39631680979E+01  0.75491386365E+01  0.51100000000E-03 0. -1.
        -11    1    3    3    0    0 -0.11550517588E+02  0.21207345455E+02  0.12885831871E+02  0.27371712059E+02  0.51100000000E-03 0.  1.
         12    1    3    3    0    0 -0.88026746918E+01 -0.33256190573E+02 -0.15028098852E+02  0.37540711877E+02  0.00000000000E+00 0. -1.
</event>
<event>
 7    1  0.2886818E-013  0.7246162E+02  0.7816164E-02  0.1226708E+00
        -11   -1    0    0    0    0  0.00000000000E+00  0.00000000000E+00  0.45593999997E+02  0.45594000000E+02  0.51100000000E-03 0.  1.
         11   -1    0    0    0    0 -0.00000000000E+00 -0.00000000000E+00 -0.45593999997E+02  0.45594000000E+02  0.51100000000E-03 0. -1.
    9900012    2    1    2    0    0  0.15289430743E+01 -0.61306404474E+01  0.17628236520E+02  0.72461624429E+02  0.70000070521E+02 0.  0.
         12    1    1    2    0    0 -0.15289430743E+01  0.61306404474E+01 -0.17628236520E+02  0.18726375571E+02  0.00000000000E+00 0. -1.
         11    1    3    3    0    0 -0.14635564729E+02 -0.83999225035E+01 -0.77780788744E+01  0.18581091578E+02  0.51100000000E-03 0. -1.
        -11    1    3    3    0    0 -0.92182369924E+01 -0.12969694909E+02  0.16595670216E+02  0.22991414691E+02  0.51100000000E-03 0.  1.
        -12    1    3    3    0    0  0.25382744796E+02  0.15238976965E+02  0.88106451776E+01  0.30889118161E+02  0.00000000000E+00 0.  1.
</event>
<event>
 7    1  0.2886818E-013  0.7246104E+02  0.7816164E-02  0.1226709E+00
        -11   -1    0    0    0    0  0.00000000000E+00  0.00000000000E+00  0.45593999997E+02  0.45594000000E+02  0.51100000000E-03 0.  1.
         11   -1    0    0    0    0 -0.00000000000E+00 -0.00000000000E+00 -0.45593999997E+02  0.45594000000E+02  0.51100000000E-03 0. -1.
    9900012    2    1    2    0    0 -0.17932596300E+01 -0.18522093456E+02 -0.21012861030E+01  0.72461037369E+02  0.69999305762E+02 0.  0.
         12    1    1    2    0    0  0.17932596300E+01  0.18522093456E+02  0.21012861030E+01  0.18726962631E+02  0.00000000000E+00 0. -1.
         11    1    3    3    0    0  0.16303821028E+02 -0.30777406515E+02 -0.24215985473E+01  0.34913141819E+02  0.51100000000E-03 0.  1.
        -11    1    3    3    0    0  0.47455407040E+01  0.13333470142E+02  0.31685610891E+01  0.14503150080E+02  0.51100000000E-03 0. -1.
        -12    1    3    3    0    0 -0.22842621362E+02 -0.10781570835E+01 -0.28482486449E+01  0.23044745469E+02  0.00000000000E+00 0.  1.
</event>
<event>
 7    1  0.2886818E-013  0.7246161E+02  0.7816164E-02  0.1226708E+00
        -11   -1    0    0    0    0  0.00000000000E+00  0.00000000000E+00  0.45593999997E+02  0.45594000000E+02  0.51100000000E-03 0.  1.
         11   -1    0    0    0    0 -0.00000000000E+00 -0.00000000000E+00 -0.45593999997E+02  0.45594000000E+02  0.51100000000E-03 0. -1.
    9900012    2    1    2    0    0  0.11743740364E+02 -0.13142505779E+02  0.63274511358E+01  0.72461613970E+02  0.70000056895E+02 0.  0.
         12    1    1    2    0    0 -0.11743740364E+02  0.13142505779E+02 -0.63274511358E+01  0.18726386030E+02  0.00000000000E+00 0. -1.
         11    1    3    3    0    0  0.29887623557E+02 -0.17735504634E+02  0.18596473413E+02  0.39416328978E+02  0.51100000000E-03 0. -1.
        -11    1    3    3    0    0 -0.10224191125E+02 -0.75049201019E+01  0.18719083726E+01  0.12820372502E+02  0.51100000000E-03 0.  1.
        -12    1    3    3    0    0 -0.79196920682E+01  0.12097918957E+02 -0.14140930650E+02  0.20224912489E+02  0.00000000000E+00 0.  1.
</event>
<event>
 7    1  0.2886818E-013  0.7246157E+02  0.7816164E-02  0.1226708E+00
        -11   -1    0    0    0    0  0.00000000000E+00  0.00000000000E+00  0.45593999997E+02  0.45594000000E+02  0.51100000000E-03 0. -1.
         11   -1    0    0    0    0 -0.00000000000E+00 -0.00000000000E+00 -0.45593999997E+02  0.45594000000E+02  0.51100000000E-03 0.  1.
    9900012    2    1    2    0    0  0.12196186822E+02 -0.13616779739E+02  0.40639305744E+01  0.72461569610E+02  0.69999999108E+02 0.  0.
         12    1    1    2    0    0 -0.12196186822E+02  0.13616779739E+02 -0.40639305744E+01  0.18726430390E+02  0.00000000000E+00 0. -1.
         11    1    3    3    0    0  0.20984512193E+02 -0.14939457655E+02  0.51707492441E+01  0.26273062155E+02  0.51100000000E-03 0. -1.
        -11    1    3    3    0    0  0.26277523643E+01 -0.18888178886E+02 -0.97516994083E+01  0.21418777409E+02  0.51100000000E-03 0.  1.
        -12    1    3    3    0    0 -0.11416077736E+02  0.20210856801E+02  0.86448807387E+01  0.24769730045E+02  0.00000000000E+00 0.  1.
</event>
<event>
 7    1  0.2886818E-013  0.7246159E+02  0.7816164E-02  0.1226708E+00
        -11   -1    0    0    0    0  0.00000000000E+00  0.00000000000E+00  0.45593999997E+02  0.45594000000E+02  0.51100000000E-03 0. -1.
         11   -1    0    0    0    0 -0.00000000000E+00 -0.00000000000E+00 -0.45593999997E+02  0.45594000000E+02  0.51100000000E-03 0.  1.
    9900012    2    1    2    0    0  0.56918554456E+01 -0.56853884029E+01 -0.16910284649E+02  0.72461585858E+02  0.70000020275E+02 0.  0.
         12    1    1    2    0    0 -0.56918554456E+01  0.56853884029E+01  0.16910284649E+02  0.18726414142E+02  0.00000000000E+00 0. -1.
         11    1    3    3    0    0  0.21985697125E+01 -0.25364376933E+02 -0.12756656301E+02  0.28476615077E+02  0.51100000000E-03 0.  1.
        -11    1    3    3    0    0 -0.14199039063E+02  0.37719819880E+01  0.85660812354E+01  0.17006419565E+02  0.51100000000E-03 0. -1.
         12    1    3    3    0    0  0.17692324796E+02  0.15907006542E+02 -0.12719709583E+02  0.26978551216E+02  0.00000000000E+00 0. -1.
</event>
<event>
 7    1  0.2886818E-013  0.7246155E+02  0.7816164E-02  0.1226708E+00
        -11   -1    0    0    0    0  0.00000000000E+00  0.00000000000E+00  0.45593999997E+02  0.45594000000E+02  0.51100000000E-03 0.  1.
         11   -1    0    0    0    0 -0.00000000000E+00 -0.00000000000E+00 -0.45593999997E+02  0.45594000000E+02  0.51100000000E-03 0. -1.
    9900012    2    1    2    0    0 -0.17146262813E+02 -0.25645637427E+01  0.70787326872E+01  0.72461554206E+02  0.69999979042E+02 0.  0.
         12    1    1    2    0    0  0.17146262813E+02  0.25645637427E+01 -0.70787326872E+01  0.18726445794E+02  0.00000000000E+00 0. -1.
         11    1    3    3    0    0 -0.97003781969E+01  0.22392476888E+02 -0.10147517011E+02  0.26429007928E+02  0.51100000000E-03 0. -1.
        -11    1    3    3    0    0 -0.17774503949E+02 -0.86846751266E+01 -0.58198211855E+00  0.19791292938E+02  0.51100000000E-03 0.  1.
        -12    1    3    3    0    0  0.10328619333E+02 -0.16272365504E+02  0.17808231816E+02  0.26241253340E+02  0.00000000000E+00 0.  1.
</event>
<event>
 7    1  0.2886818E-013  0.7246156E+02  0.7816164E-02  0.1226708E+00
        -11   -1    0    0    0    0  0.00000000000E+00  0.00000000000E+00  0.45593999997E+02  0.45594000000E+02  0.51100000000E-03 0.  1.
         11   -1    0    0    0    0 -0.00000000000E+00 -0.00000000000E+00 -0.45593999997E+02  0.45594000000E+02  0.51100000000E-03 0. -1.
    9900012    2    1    2    0    0 -0.14338165274E+02 -0.11379887385E+02  0.39490209403E+01  0.72461559156E+02  0.69999985490E+02 0.  0.
         12    1    1    2    0    0  0.14338165274E+02  0.11379887385E+02 -0.39490209403E+01  0.18726440844E+02  0.00000000000E+00 0. -1.
         11    1    3    3    0    0 -0.14105753370E+02 -0.97582006693E+01  0.54349272717E+01  0.17992587172E+02  0.51100000000E-03 0. -1.
        -11    1    3    3    0    0 -0.29337445819E+01 -0.17292249787E+02  0.20726231199E+02  0.27151527028E+02  0.51100000000E-03 0.  1.
         12    1    3    3    0    0  0.27013326784E+01  0.15670563072E+02 -0.22212137530E+02  0.27317444955E+02  0.00000000000E+00 0. -1.
</event>
<event>
 7    1  0.2886818E-013  0.7246152E+02  0.7816164E-02  0.1226708E+00
        -11   -1    0    0    0    0  0.00000000000E+00  0.00000000000E+00  0.45593999997E+02  0.45594000000E+02  0.51100000000E-03 0. -1.
         11   -1    0    0    0    0 -0.00000000000E+00 -0.00000000000E+00 -0.45593999997E+02  0.45594000000E+02  0.51100000000E-03 0.  1.
    9900012    2    1    2    0    0 -0.13802090390E+02  0.89640376157E+01  0.89347292507E+01  0.72461519917E+02  0.69999934374E+02 0.  0.
         12    1    1    2    0    0  0.13802090390E+02 -0.89640376157E+01 -0.89347292507E+01  0.18726480083E+02  0.00000000000E+00 0. -1.
         11    1    3    3    0    0 -0.49566062799E+01  0.21343866658E+02  0.62960256215E+00  0.21920880215E+02  0.51100000000E-03 0. -1.
        -11    1    3    3    0    0  0.11743703269E+02  0.12163637472E+02  0.74953013072E+01  0.18494544735E+02  0.51100000000E-03 0.  1.
        -12    1    3    3    0    0 -0.20589187379E+02 -0.24543466514E+02  0.80982538133E+00  0.32046094967E+02  0.00000000000E+00 0.  1.
</event>
<event>
 7    1  0.2886818E-013  0.7246158E+02  0.7816164E-02  0.1226708E+00
        -11   -1    0    0    0    0  0.00000000000E+00  0.00000000000E+00  0.45593999997E+02  0.45594000000E+02  0.51100000000E-03 0.  1.
         11   -1    0    0    0    0 -0.00000000000E+00 -0.00000000000E+00 -0.45593999997E+02  0.45594000000E+02  0.51100000000E-03 0. -1.
    9900012    2    1    2    0    0  0.49032603750E+01  0.86955704688E+01  0.15843735765E+02  0.72461578263E+02  0.70000010381E+02 0.  0.
         12    1    1    2    0    0 -0.49032603750E+01 -0.86955704688E+01 -0.15843735765E+02  0.18726421737E+02  0.00000000000E+00 0. -1.
         11    1    3    3    0    0  0.10130158660E+02  0.74490808519E+01 -0.19381429846E+02  0.23103002904E+02  0.51100000000E-03 0. -1.
        -11    1    3    3    0    0 -0.81213857977E+01 -0.10752894256E+02  0.16372259166E+01  0.13574319545E+02  0.51100000000E-03 0.  1.
        -12    1    3    3    0    0  0.28944875123E+01  0.11999383873E+02  0.33587939694E+02  0.35784255814E+02  0.00000000000E+00 0.  1.
</event>
<event>
 7    1  0.2886818E-013  0.7246149E+02  0.7816164E-02  0.1226708E+00
        -11   -1    0    0    0    0  0.00000000000E+00  0.00000000000E+00  0.45593999997E+02  0.45594000000E+02  0.51100000000E-03 0. -1.
         11   -1    0    0    0    0 -0.00000000000E+00 -0.00000000000E+00 -0.45593999997E+02  0.45594000000E+02  0.51100000000E-03 0.  1.
    9900012    2    1    2    0    0 -0.10064806032E+02  0.28009380749E+01 -0.15541451748E+02  0.72461486791E+02  0.69999891221E+02 0.  0.
         12    1    1    2    0    0  0.10064806032E+02 -0.28009380749E+01  0.15541451748E+02  0.18726513209E+02  0.00000000000E+00 0. -1.
         11    1    3    3    0    0 -0.13849433484E+02  0.16643400155E+02  0.90047017220E+01  0.23449823665E+02  0.51100000000E-03 0. -1.
        -11    1    3    3    0    0 -0.11106904180E+02  0.65853376048E+01 -0.19256035445E+02  0.23184583092E+02  0.51100000000E-03 0.  1.
         12    1    3    3    0    0  0.14891531632E+02 -0.20427799685E+02 -0.52901180242E+01  0.25827080033E+02  0.00000000000E+00 0. -1.
</event>
<event>
 7    1  0.2886818E-013  0.7246160E+02  0.7816164E-02  0.1226708E+00
        -11   -1    0    0    0    0  0.00000000000E+00  0.00000000000E+00  0.45593999997E+02  0.45594000000E+02  0.51100000000E-03 0.  1.
         11   -1    0    0    0    0 -0.00000000000E+00 -0.00000000000E+00 -0.45593999997E+02  0.45594000000E+02  0.51100000000E-03 0. -1.
    9900012    2    1    2    0    0  0.64308223902E+01 -0.79423611521E+01  0.15692082566E+02  0.72461600652E+02  0.70000039546E+02 0.  0.
         12    1    1    2    0    0 -0.64308223902E+01  0.79423611521E+01 -0.15692082566E+02  0.18726399348E+02  0.00000000000E+00 0. -1.
         11    1    3    3    0    0 -0.48434892302E+01 -0.15286351276E+02  0.27771672516E+02  0.32068640724E+02  0.51100000000E-03 0. -1.
        -11    1    3    3    0    0  0.41415018264E+01  0.99995431344E+01  0.11394672420E+02  0.15715643802E+02  0.51100000000E-03 0.  1.
         12    1    3    3    0    0  0.71328097941E+01 -0.26555530102E+01 -0.23474262370E+02  0.24677316126E+02  0.00000000000E+00 0. -1.
</event>
<event>
 7    1  0.2886818E-013  0.7246158E+02  0.7816164E-02  0.1226708E+00
        -11   -1    0    0    0    0  0.00000000000E+00  0.00000000000E+00  0.45593999997E+02  0.45594000000E+02  0.51100000000E-03 0.  1.
         11   -1    0    0    0    0 -0.00000000000E+00 -0.00000000000E+00 -0.45593999997E+02  0.45594000000E+02  0.51100000000E-03 0. -1.
    9900012    2    1    2    0    0  0.59227918276E+01 -0.79194523733E+00  0.17747454609E+02  0.72461580551E+02  0.70000013361E+02 0.  0.
         12    1    1    2    0    0 -0.59227918276E+01  0.79194523733E+00 -0.17747454609E+02  0.18726419449E+02  0.00000000000E+00 0. -1.
         11    1    3    3    0    0  0.72232151749E+01  0.60153340035E+01  0.13149068741E+01  0.94914730672E+01  0.51100000000E-03 0. -1.
        -11    1    3    3    0    0  0.24738059378E+02 -0.68944416242E+01  0.24719196048E+02  0.35644684886E+02  0.51100000000E-03 0.  1.
        -12    1    3    3    0    0 -0.26038482725E+02  0.87162383321E-01 -0.82866483137E+01  0.27325422598E+02  0.00000000000E+00 0.  1.
</event>
<event>
 7    1  0.2886818E-013  0.7246153E+02  0.7816164E-02  0.1226708E+00
        -11   -1    0    0    0    0  0.00000000000E+00  0.00000000000E+00  0.45593999997E+02  0.45594000000E+02  0.51100000000E-03 0.  1.
         11   -1    0    0    0    0 -0.00000000000E+00 -0.00000000000E+00 -0.45593999997E+02  0.45594000000E+02  0.51100000000E-03 0. -1.
    9900012    2    1    2    0    0  0.65179949486E+01 -0.17310909186E+02 -0.29204459846E+01  0.72461525699E+02  0.69999941907E+02 0.  0.
         12    1    1    2    0    0 -0.65179949486E+01  0.17310909186E+02  0.29204459846E+01  0.18726474301E+02  0.00000000000E+00 0. -1.
         11    1    3    3    0    0 -0.32645752250E+01  0.15665342485E+01 -0.49582070557E+01  0.61396496985E+01  0.51100000000E-03 0. -1.
        -11    1    3    3    0    0 -0.33280208720E+01 -0.36125659485E+02  0.16927251215E+02  0.40033371455E+02  0.51100000000E-03 0.  1.
         12    1    3    3    0    0  0.13110591046E+02  0.17248216050E+02 -0.14889490144E+02  0.26288504545E+02  0.00000000000E+00 0. -1.
</event>
<event>
 7    1  0.2886818E-013  0.7246145E+02  0.7816164E-02  0.1226708E+00
        -11   -1    0    0    0    0  0.00000000000E+00  0.00000000000E+00  0.45593999997E+02  0.45594000000E+02  0.51100000000E-03 0. -1.
         11   -1    0    0    0    0 -0.00000000000E+00 -0.00000000000E+00 -0.45593999997E+02  0.45594000000E+02  0.51100000000E-03 0.  1.
    9900012    2    1    2    0    0  0.11754173611E+02 -0.14030264295E+02  0.39591409337E+01  0.72461449052E+02  0.69999842059E+02 0.  0.
         12    1    1    2    0    0 -0.11754173611E+02  0.14030264295E+02 -0.39591409337E+01  0.18726550948E+02  0.00000000000E+00 0. -1.
         11    1    3    3    0    0 -0.13766216327E+02 -0.12962141835E+02  0.18237995309E+02  0.26270711944E+02  0.51100000000E-03 0. -1.
        -11    1    3    3    0    0  0.11948306067E+02 -0.14800734984E+02 -0.18381602584E+02  0.26451977011E+02  0.51100000000E-03 0.  1.
        -12    1    3    3    0    0  0.13572083871E+02  0.13732612523E+02  0.41027482091E+01  0.19738760097E+02  0.00000000000E+00 0.  1.
</event>
<event>
 7    1  0.2886818E-013  0.7246154E+02  0.7816164E-02  0.1226708E+00
        -11   -1    0    0    0    0  0.00000000000E+00  0.00000000000E+00  0.45593999997E+02  0.45594000000E+02  0.51100000000E-03 0.  1.
         11   -1    0    0    0    0 -0.00000000000E+00 -0.00000000000E+00 -0.45593999997E+02  0.45594000000E+02  0.51100000000E-03 0. -1.
    9900012    2    1    2    0    0 -0.13894267909E+02 -0.11784701131E+02 -0.43301565567E+01  0.72461544989E+02  0.69999967035E+02 0.  0.
         12    1    1    2    0    0  0.13894267909E+02  0.11784701131E+02  0.43301565567E+01  0.18726455011E+02  0.00000000000E+00 0. -1.
         11    1    3    3    0    0  0.21932109420E+00 -0.57102988527E+01 -0.13590815218E+02  0.14743333181E+02  0.51100000000E-03 0. -1.
        -11    1    3    3    0    0 -0.20677926904E+02  0.19271884574E+02 -0.36930640457E+01  0.28506506598E+02  0.51100000000E-03 0.  1.
        -12    1    3    3    0    0  0.65643379009E+01 -0.25346286853E+02  0.12953722707E+02  0.29211705210E+02  0.00000000000E+00 0.  1.
</event>
<event>
 7    1  0.2886818E-013  0.7246135E+02  0.7816164E-02  0.1226709E+00
        -11   -1    0    0    0    0  0.00000000000E+00  0.00000000000E+00  0.45593999997E+02  0.45594000000E+02  0.51100000000E-03 0. -1.
         11   -1    0    0    0    0 -0.00000000000E+00 -0.00000000000E+00 -0.45593999997E+02  0.45594000000E+02  0.51100000000E-03 0.  1.
    9900012    2    1    2    0    0 -0.10821403620E+02  0.35001580088E+01 -0.14877286000E+02  0.72461347306E+02  0.69999709515E+02 0.  0.
         12    1    1    2    0    0  0.10821403620E+02 -0.35001580088E+01  0.14877286000E+02  0.18726652694E+02  0.00000000000E+00 0. -1.
         11    1    3    3    0    0  0.18163532277E+02 -0.68189553524E+01 -0.13568062440E+01  0.19448726959E+02  0.51100000000E-03 0. -1.
        -11    1    3    3    0    0 -0.34209459069E+01  0.20528621864E+02 -0.14668212126E+02  0.25461414607E+02  0.51100000000E-03 0.  1.
         12    1    3    3    0    0 -0.25563989991E+02 -0.10209508503E+02  0.11477323699E+01  0.27551205740E+02  0.00000000000E+00 0. -1.
</event>
<event>
 7    1  0.2886818E-013  0.7246153E+02  0.7816164E-02  0.1226708E+00
        -11   -1    0    0    0    0  0.00000000000E+00  0.00000000000E+00  0.45593999997E+02  0.45594000000E+02  0.51100000000E-03 0.  1.
         11   -1    0    0    0    0 -0.00000000000E+00 -0.00000000000E+00 -0.45593999997E+02  0.45594000000E+02  0.51100000000E-03 0. -1.
    9900012    2    1    2    0    0  0.48313524580E+01  0.17731197926E+02  0.35976786491E+01  0.72461531082E+02  0.69999948919E+02 0.  0.
         12    1    1    2    0    0 -0.48313524580E+01 -0.17731197926E+02 -0.35976786491E+01  0.18726468918E+02  0.00000000000E+00 0. -1.
         11    1    3    3    0    0 -0.18000597495E+01  0.62194239320E+01  0.26567258259E+02  0.27344847061E+02  0.51100000000E-03 0. -1.
        -11    1    3    3    0    0  0.12532204611E+02 -0.91740277262E+01 -0.31090612013E+01  0.15839356014E+02  0.51100000000E-03 0.  1.
         12    1    3    3    0    0 -0.59007924032E+01  0.20685801720E+02 -0.19860518408E+02  0.29277328007E+02  0.00000000000E+00 0. -1.
</event>
<event>
 7    1  0.2886818E-013  0.7246157E+02  0.7816164E-02  0.1226708E+00
        -11   -1    0    0    0    0  0.00000000000E+00  0.00000000000E+00  0.45593999997E+02  0.45594000000E+02  0.51100000000E-03 0.  1.
         11   -1    0    0    0    0 -0.00000000000E+00 -0.00000000000E+00 -0.45593999997E+02  0.45594000000E+02  0.51100000000E-03 0. -1.
    9900012    2    1    2    0    0  0.35953163615E+01  0.17083004783E+02 -0.67767186594E+01  0.72461567666E+02  0.69999996576E+02 0.  0.
         12    1    1    2    0    0 -0.35953163615E+01 -0.17083004783E+02  0.67767186594E+01  0.18726432334E+02  0.00000000000E+00 0. -1.
         11    1    3    3    0    0  0.45613517058E+01 -0.25270121395E+01 -0.29261996392E+02  0.29722990308E+02  0.51100000000E-03 0. -1.
        -11    1    3    3    0    0  0.10650393864E+02 -0.30590220929E+00  0.17629243446E+00  0.10656244409E+02  0.51100000000E-03 0.  1.
        -12    1    3    3    0    0 -0.11616429209E+02  0.19915919132E+02  0.22308985298E+02  0.32082332949E+02  0.00000000000E+00 0.  1.
</event>
<event>
 7    1  0.2886818E-013  0.7246158E+02  0.7816164E-02  0.1226708E+00
        -11   -1    0    0    0    0  0.00000000000E+00  0.00000000000E+00  0.45593999997E+02  0.45594000000E+02  0.51100000000E-03 0.  1.
         11   -1    0    0    0    0 -0.00000000000E+00 -0.00000000000E+00 -0.45593999997E+02  0.45594000000E+02  0.51100000000E-03 0. -1.
    9900012    2    1    2    0    0 -0.88029537466E+01  0.97406767121E+01  0.13353134784E+02  0.72461575194E+02  0.70000006382E+02 0.  0.
         12    1    1    2    0    0  0.88029537466E+01 -0.97406767121E+01 -0.13353134784E+02  0.18726424806E+02  0.00000000000E+00 0. -1.
         11    1    3    3    0    0 -0.19353330411E+02 -0.20070039853E+01  0.36300673697E+01  0.19792848516E+02  0.51100000000E-03 0. -1.
        -11    1    3    3    0    0 -0.14381367000E+02  0.20757953236E+02  0.46296247853E+01  0.25673912153E+02  0.51100000000E-03 0.  1.
         12    1    3    3    0    0  0.24931743665E+02 -0.90102725388E+01  0.50934426288E+01  0.26994814524E+02  0.00000000000E+00 0. -1.
</event>
<event>
 7    1  0.2886818E-013  0.7246155E+02  0.7816164E-02  0.1226708E+00
        -11   -1    0    0    0    0  0.00000000000E+00  0.00000000000E+00  0.45593999997E+02  0.45594000000E+02  0.51100000000E-03 0.  1.
         11   -1    0    0    0    0 -0.00000000000E+00 -0.00000000000E+00 -0.45593999997E+02  0.45594000000E+02  0.51100000000E-03 0. -1.
    9900012    2    1    2    0    0  0.31049358746E+01  0.18214539727E+02  0.30446571857E+01  0.72461547543E+02  0.69999970362E+02 0.  0.
         12    1    1    2    0    0 -0.31049358746E+01 -0.18214539727E+02 -0.30446571857E+01  0.18726452457E+02  0.00000000000E+00 0. -1.
         11    1    3    3    0    0  0.60258748920E+01  0.12573092701E+02  0.24921080151E+02  0.28556156332E+02  0.51100000000E-03 0. -1.
        -11    1    3    3    0    0  0.89859252435E+01  0.45563649472E+01  0.72552993806E+01  0.12415582281E+02  0.51100000000E-03 0.  1.
         12    1    3    3    0    0 -0.11906864261E+02  0.10850820783E+01 -0.29131722346E+02  0.31489808930E+02  0.00000000000E+00 0. -1.
</event>
<event>
 7    1  0.2886818E-013  0.7246150E+02  0.7816164E-02  0.1226708E+00
        -11   -1    0    0    0    0  0.00000000000E+00  0.00000000000E+00  0.45593999997E+02  0.45594000000E+02  0.51100000000E-03 0.  1.
         11   -1    0    0    0    0 -0.00000000000E+00 -0.00000000000E+00 -0.45593999997E+02  0.45594000000E+02  0.51100000000E-03 0. -1.
    9900012    2    1    2    0    0 -0.10566057510E+02 -0.74363033300E+01  0.13555139032E+02  0.72461495449E+02  0.69999902500E+02 0.  0.
         12    1    1    2    0    0  0.10566057510E+02  0.74363033300E+01 -0.13555139032E+02  0.18726504551E+02  0.00000000000E+00 0. -1.
         11    1    3    3    0    0 -0.92597498558E+01  0.16909109240E+02  0.14044264606E+01  0.19329597943E+02  0.51100000000E-03 0. -1.
        -11    1    3    3    0    0 -0.51600101022E+01 -0.87849010284E+01 -0.17025912514E+02  0.19841418486E+02  0.51100000000E-03 0.  1.
        -12    1    3    3    0    0  0.38537024477E+01 -0.15560511542E+02  0.29176625086E+02  0.33290479020E+02  0.00000000000E+00 0.  1.
</event>
<event>
 7    1  0.2886818E-013  0.7246164E+02  0.7816164E-02  0.1226708E+00
        -11   -1    0    0    0    0  0.00000000000E+00  0.00000000000E+00  0.45593999997E+02  0.45594000000E+02  0.51100000000E-03 0. -1.
         11   -1    0    0    0    0 -0.00000000000E+00 -0.00000000000E+00 -0.45593999997E+02  0.45594000000E+02  0.51100000000E-03 0.  1.
    9900012    2    1    2    0    0 -0.17606167467E+02 -0.15006627802E+01 -0.62005909392E+01  0.72461642915E+02  0.70000094602E+02 0.  0.
         12    1    1    2    0    0  0.17606167467E+02  0.15006627802E+01  0.62005909392E+01  0.18726357085E+02  0.00000000000E+00 0. -1.
         11    1    3    3    0    0  0.12713481301E+01 -0.73851189177E+01  0.12119395693E+02  0.14249072241E+02  0.51100000000E-03 0. -1.
        -11    1    3    3    0    0  0.13975100750E+02  0.10588721207E+02 -0.17850852797E+02  0.25021538794E+02  0.51100000000E-03 0.  1.
         12    1    3    3    0    0 -0.32852616348E+02 -0.47042650697E+01 -0.46913383593E+00  0.33191031880E+02  0.00000000000E+00 0. -1.
</event>
<event>
 7    1  0.2886818E-013  0.7246158E+02  0.7816164E-02  0.1226708E+00
        -11   -1    0    0    0    0  0.00000000000E+00  0.00000000000E+00  0.45593999997E+02  0.45594000000E+02  0.51100000000E-03 0.  1.
         11   -1    0    0    0    0 -0.00000000000E+00 -0.00000000000E+00 -0.45593999997E+02  0.45594000000E+02  0.51100000000E-03 0. -1.
    9900012    2    1    2    0    0  0.63853060407E+01  0.11974463518E+02  0.12904217061E+02  0.72461582090E+02  0.70000015366E+02 0.  0.
         12    1    1    2    0    0 -0.63853060407E+01 -0.11974463518E+02 -0.12904217061E+02  0.18726417910E+02  0.00000000000E+00 0. -1.
         11    1    3    3    0    0  0.26831047048E+01  0.35393646346E+01 -0.37828633506E+01  0.58340559017E+01  0.51100000000E-03 0. -1.
        -11    1    3    3    0    0 -0.26842513597E+02  0.16188526131E+02  0.15796471147E+02  0.35101530102E+02  0.51100000000E-03 0.  1.
         12    1    3    3    0    0  0.30544714933E+02 -0.77534272472E+01  0.89060926391E+00  0.31525996087E+02  0.00000000000E+00 0. -1.
</event>
<event>
 7    1  0.2886818E-013  0.7246185E+02  0.7816164E-02  0.1226707E+00
        -11   -1    0    0    0    0  0.00000000000E+00  0.00000000000E+00  0.45593999997E+02  0.45594000000E+02  0.51100000000E-03 0. -1.
         11   -1    0    0    0    0 -0.00000000000E+00 -0.00000000000E+00 -0.45593999997E+02  0.45594000000E+02  0.51100000000E-03 0.  1.
    9900012    2    1    2    0    0  0.27308920853E+01 -0.14863969451E+02  0.11057725310E+02  0.72461851211E+02  0.70000365945E+02 0.  0.
         12    1    1    2    0    0 -0.27308920853E+01  0.14863969451E+02 -0.11057725310E+02  0.18726148789E+02  0.00000000000E+00 0. -1.
         11    1    3    3    0    0 -0.39895809252E+01  0.13604370953E+02  0.31259819803E+01  0.14517831401E+02  0.51100000000E-03 0. -1.
        -11    1    3    3    0    0  0.14828500165E+02  0.46017145322E+01  0.16680885441E+02  0.22788421032E+02  0.51100000000E-03 0.  1.
        -12    1    3    3    0    0 -0.81080271544E+01 -0.33070054936E+02 -0.87491421110E+01  0.35155598779E+02  0.00000000000E+00 0.  1.
</event>
<event>
 7    1  0.2886818E-013  0.7246159E+02  0.7816164E-02  0.1226708E+00
        -11   -1    0    0    0    0  0.00000000000E+00  0.00000000000E+00  0.45593999997E+02  0.45594000000E+02  0.51100000000E-03 0.  1.
         11   -1    0    0    0    0 -0.00000000000E+00 -0.00000000000E+00 -0.45593999997E+02  0.45594000000E+02  0.51100000000E-03 0. -1.
    9900012    2    1    2    0    0 -0.75610531765E+01 -0.16360670547E+02  0.50830349054E+01  0.72461593251E+02  0.70000029905E+02 0.  0.
         12    1    1    2    0    0  0.75610531765E+01  0.16360670547E+02 -0.50830349054E+01  0.18726406749E+02  0.00000000000E+00 0. -1.
         11    1    3    3    0    0 -0.10843345895E+02 -0.96355094765E+01  0.12590941248E+02  0.19208149178E+02  0.51100000000E-03 0. -1.
        -11    1    3    3    0    0 -0.11638769683E+02  0.41223856303E+00  0.18837122252E+02  0.22146513842E+02  0.51100000000E-03 0.  1.
         12    1    3    3    0    0  0.14921062401E+02 -0.71373996335E+01 -0.26345028595E+02  0.31106930231E+02  0.00000000000E+00 0. -1.
</event>
<event>
 7    1  0.2886818E-013  0.7246168E+02  0.7816164E-02  0.1226708E+00
        -11   -1    0    0    0    0  0.00000000000E+00  0.00000000000E+00  0.45593999997E+02  0.45594000000E+02  0.51100000000E-03 0.  1.
         11   -1    0    0    0    0 -0.00000000000E+00 -0.00000000000E+00 -0.45593999997E+02  0.45594000000E+02  0.51100000000E-03 0. -1.
    9900012    2    1    2    0    0 -0.13553096626E+02 -0.10053970052E+02  0.81182742126E+01  0.72461678467E+02  0.70000140915E+02 0.  0.
         12    1    1    2    0    0  0.13553096626E+02  0.10053970052E+02 -0.81182742126E+01  0.18726321533E+02  0.00000000000E+00 0. -1.
         11    1    3    3    0    0 -0.26128867139E+02 -0.46319172944E+01  0.10403270305E+02  0.28502638283E+02  0.51100000000E-03 0. -1.
        -11    1    3    3    0    0 -0.14447153956E+02  0.24498864256E+01  0.38527687103E+01  0.15151436497E+02  0.51100000000E-03 0.  1.
         12    1    3    3    0    0  0.27022924470E+02 -0.78719391828E+01 -0.61377648028E+01  0.28807603687E+02  0.00000000000E+00 0. -1.
</event>
<event>
 7    1  0.2886818E-013  0.7246157E+02  0.7816164E-02  0.1226708E+00
        -11   -1    0    0    0    0  0.00000000000E+00  0.00000000000E+00  0.45593999997E+02  0.45594000000E+02  0.51100000000E-03 0.  1.
         11   -1    0    0    0    0 -0.00000000000E+00 -0.00000000000E+00 -0.45593999997E+02  0.45594000000E+02  0.51100000000E-03 0. -1.
    9900012    2    1    2    0    0  0.11684044078E+02 -0.66499273599E+01  0.13036139687E+02  0.72461565266E+02  0.69999993449E+02 0.  0.
         12    1    1    2    0    0 -0.11684044078E+02  0.66499273599E+01 -0.13036139687E+02  0.18726434734E+02  0.00000000000E+00 0. -1.
         11    1    3    3    0    0 -0.39732342463E+01 -0.18502671986E+02 -0.35473379813E+01  0.19254066272E+02  0.51100000000E-03 0. -1.
        -11    1    3    3    0    0 -0.14346413871E+02  0.66675209593E+01  0.16360369550E+02  0.22758231891E+02  0.51100000000E-03 0.  1.
         12    1    3    3    0    0  0.30003692196E+02  0.51852236669E+01  0.22310811821E+00  0.30449267103E+02  0.00000000000E+00 0. -1.
</event>
<event>
 7    1  0.2886818E-013  0.7246165E+02  0.7816164E-02  0.1226708E+00
        -11   -1    0    0    0    0  0.00000000000E+00  0.00000000000E+00  0.45593999997E+02  0.45594000000E+02  0.51100000000E-03 0.  1.
         11   -1    0    0    0    0 -0.00000000000E+00 -0.00000000000E+00 -0.45593999997E+02  0.45594000000E+02  0.51100000000E-03 0. -1.
    9900012    2    1    2    0    0 -0.13155147344E+02 -0.13224130711E+02 -0.16555045662E+01  0.72461648779E+02  0.70000102240E+02 0.  0.
         12    1    1    2    0    0  0.13155147344E+02  0.13224130711E+02  0.16555045662E+01  0.18726351221E+02  0.00000000000E+00 0. -1.
         11    1    3    3    0    0 -0.96481999957E+01  0.19543818901E+02 -0.20659691814E+02  0.30031175243E+02  0.51100000000E-03 0. -1.
        -11    1    3    3    0    0 -0.43718798944E+01 -0.88634009875E+00 -0.12706012421E+01  0.46382497086E+01  0.51100000000E-03 0.  1.
        -12    1    3    3    0    0  0.86493254654E+00 -0.31881609513E+02  0.20274788490E+02  0.37792223827E+02  0.00000000000E+00 0.  1.
</event>
<event>
 7    1  0.2886818E-013  0.7246146E+02  0.7816164E-02  0.1226708E+00
        -11   -1    0    0    0    0  0.00000000000E+00  0.00000000000E+00  0.45593999997E+02  0.45594000000E+02  0.51100000000E-03 0.  1.
         11   -1    0    0    0    0 -0.00000000000E+00 -0.00000000000E+00 -0.45593999997E+02  0.45594000000E+02  0.51100000000E-03 0. -1.
    9900012    2    1    2    0    0  0.15097608500E+02 -0.57242744664E+01  0.94856831297E+01  0.72461460410E+02  0.69999856855E+02 0.  0.
         12    1    1    2    0    0 -0.15097608500E+02  0.57242744664E+01 -0.94856831297E+01  0.18726539590E+02  0.00000000000E+00 0. -1.
         11    1    3    3    0    0 -0.83833214467E+00  0.74064731545E+01  0.13112273488E+02  0.15082783618E+02  0.51100000000E-03 0. -1.
        -11    1    3    3    0    0  0.51011202508E+01  0.20662678727E+02  0.22718737111E+01  0.21403951280E+02  0.51100000000E-03 0.  1.
         12    1    3    3    0    0  0.10834820394E+02 -0.33793426348E+02 -0.58984640698E+01  0.35974725512E+02  0.00000000000E+00 0. -1.
</event>
<event>
 7    1  0.2886818E-013  0.7246118E+02  0.7816164E-02  0.1226709E+00
        -11   -1    0    0    0    0  0.00000000000E+00  0.00000000000E+00  0.45593999997E+02  0.45594000000E+02  0.51100000000E-03 0. -1.
         11   -1    0    0    0    0 -0.00000000000E+00 -0.00000000000E+00 -0.45593999997E+02  0.45594000000E+02  0.51100000000E-03 0.  1.
    9900012    2    1    2    0    0 -0.18047954964E+02 -0.14377984104E+01 -0.47851867447E+01  0.72461175528E+02  0.69999485741E+02 0.  0.
         12    1    1    2    0    0  0.18047954964E+02  0.14377984104E+01  0.47851867447E+01  0.18726824472E+02  0.00000000000E+00 0. -1.
         11    1    3    3    0    0  0.42191898105E+01  0.28447682605E+02  0.79413897766E+01  0.29835178566E+02  0.51100000000E-03 0. -1.
        -11    1    3    3    0    0 -0.81162884284E+01 -0.33634161358E+01 -0.85802094360E+01  0.12280337951E+02  0.51100000000E-03 0.  1.
        -12    1    3    3    0    0 -0.14150856346E+02 -0.26522064879E+02 -0.41463670853E+01  0.30345659011E+02  0.00000000000E+00 0.  1.
</event>
<event>
 7    1  0.2886818E-013  0.7246161E+02  0.7816164E-02  0.1226708E+00
        -11   -1    0    0    0    0  0.00000000000E+00  0.00000000000E+00  0.45593999997E+02  0.45594000000E+02  0.51100000000E-03 0.  1.
         11   -1    0    0    0    0 -0.00000000000E+00 -0.00000000000E+00 -0.45593999997E+02  0.45594000000E+02  0.51100000000E-03 0. -1.
    9900012    2    1    2    0    0  0.95436119661E+01 -0.37104874423E+01  0.15678952867E+02  0.72461606609E+02  0.70000047307E+02 0.  0.
         12    1    1    2    0    0 -0.95436119661E+01  0.37104874423E+01 -0.15678952867E+02  0.18726393391E+02  0.00000000000E+00 0. -1.
         11    1    3    3    0    0  0.26431936430E+01 -0.18901333045E+02  0.29906934912E+02  0.35477762325E+02  0.51100000000E-03 0. -1.
        -11    1    3    3    0    0 -0.84233352163E+01  0.39916609907E+01  0.44727532314E+01  0.10338832398E+02  0.51100000000E-03 0.  1.
         12    1    3    3    0    0  0.15323753539E+02  0.11199184612E+02 -0.18700735277E+02  0.26645011886E+02  0.00000000000E+00 0. -1.
</event>
<event>
 7    1  0.2886818E-013  0.7246156E+02  0.7816164E-02  0.1226708E+00
        -11   -1    0    0    0    0  0.00000000000E+00  0.00000000000E+00  0.45593999997E+02  0.45594000000E+02  0.51100000000E-03 0. -1.
         11   -1    0    0    0    0 -0.00000000000E+00 -0.00000000000E+00 -0.45593999997E+02  0.45594000000E+02  0.51100000000E-03 0.  1.
    9900012    2    1    2    0    0  0.16154116854E+02  0.43398102435E+01  0.84196274491E+01  0.72461559583E+02  0.69999986047E+02 0.  0.
         12    1    1    2    0    0 -0.16154116854E+02 -0.43398102435E+01 -0.84196274491E+01  0.18726440417E+02  0.00000000000E+00 0. -1.
         11    1    3    3    0    0  0.20538617023E+01 -0.19183639757E+02  0.20410959947E+02  0.28086254083E+02  0.51100000000E-03 0. -1.
        -11    1    3    3    0    0  0.74913388650E+00 -0.52203977678E+01 -0.11529783109E+02  0.12678708658E+02  0.51100000000E-03 0.  1.
        -12    1    3    3    0    0  0.13351121266E+02  0.28743847768E+02 -0.46154938882E+00  0.31696596842E+02  0.00000000000E+00 0.  1.
</event>
<event>
 7    1  0.2886818E-013  0.7246157E+02  0.7816164E-02  0.1226708E+00
        -11   -1    0    0    0    0  0.00000000000E+00  0.00000000000E+00  0.45593999997E+02  0.45594000000E+02  0.51100000000E-03 0.  1.
         11   -1    0    0    0    0 -0.00000000000E+00 -0.00000000000E+00 -0.45593999997E+02  0.45594000000E+02  0.51100000000E-03 0. -1.
    9900012    2    1    2    0    0 -0.33240568464E+01 -0.13327069216E+02  0.12728671558E+02  0.72461569282E+02  0.69999998682E+02 0.  0.
         12    1    1    2    0    0  0.33240568464E+01  0.13327069216E+02 -0.12728671558E+02  0.18726430718E+02  0.00000000000E+00 0. -1.
         11    1    3    3    0    0 -0.90832138984E+01  0.64402645113E+01 -0.11593903018E+02  0.16074836520E+02  0.51100000000E-03 0. -1.
        -11    1    3    3    0    0 -0.16930620562E+02 -0.83315126402E+01  0.24566311534E+02  0.30976824856E+02  0.51100000000E-03 0.  1.
        -12    1    3    3    0    0  0.22689777614E+02 -0.11435821087E+02 -0.24373695928E+00  0.25409907906E+02  0.00000000000E+00 0.  1.
</event>
<event>
 7    1  0.2886818E-013  0.7246157E+02  0.7816164E-02  0.1226708E+00
        -11   -1    0    0    0    0  0.00000000000E+00  0.00000000000E+00  0.45593999997E+02  0.45594000000E+02  0.51100000000E-03 0.  1.
         11   -1    0    0    0    0 -0.00000000000E+00 -0.00000000000E+00 -0.45593999997E+02  0.45594000000E+02  0.51100000000E-03 0. -1.
    9900012    2    1    2    0    0  0.12683283804E+02 -0.76974549402E+01  0.11426406500E+02  0.72461567715E+02  0.69999996640E+02 0.  0.
         12    1    1    2    0    0 -0.12683283804E+02  0.76974549402E+01 -0.11426406500E+02  0.18726432285E+02  0.00000000000E+00 0. -1.
         11    1    3    3    0    0 -0.22741567980E+02 -0.10164097711E+02  0.17286107928E+02  0.30319916293E+02  0.51100000000E-03 0. -1.
        -11    1    3    3    0    0  0.61865912970E+01 -0.73247954317E+01  0.30236424318E+01  0.10053305616E+02  0.51100000000E-03 0.  1.
        -12    1    3    3    0    0  0.29238260488E+02  0.97914382027E+01 -0.88833438594E+01  0.32088345806E+02  0.00000000000E+00 0.  1.
</event>
<event>
 7    1  0.2886818E-013  0.7246155E+02  0.7816164E-02  0.1226708E+00
        -11   -1    0    0    0    0  0.00000000000E+00  0.00000000000E+00  0.45593999997E+02  0.45594000000E+02  0.51100000000E-03 0. -1.
         11   -1    0    0    0    0 -0.00000000000E+00 -0.00000000000E+00 -0.45593999997E+02  0.45594000000E+02  0.51100000000E-03 0.  1.
    9900012    2    1    2    0    0  0.16168897931E+02 -0.38556323483E+01 -0.86244332884E+01  0.72461547836E+02  0.69999970744E+02 0.  0.
         12    1    1    2    0    0 -0.16168897931E+02  0.38556323483E+01  0.86244332884E+01  0.18726452164E+02  0.00000000000E+00 0. -1.
         11    1    3    3    0    0  0.11597310338E+02  0.12917667594E+02  0.15745009929E+02  0.23436490374E+02  0.51100000000E-03 0. -1.
        -11    1    3    3    0    0 -0.13471966243E+02 -0.18256908919E+02 -0.65351014170E+01  0.23611779868E+02  0.51100000000E-03 0.  1.
        -12    1    3    3    0    0  0.18043553836E+02  0.14836089772E+01 -0.17834341800E+02  0.25413277594E+02  0.00000000000E+00 0.  1.
</event>
<event>
 7    1  0.2886818E-013  0.7246158E+02  0.7816164E-02  0.1226708E+00
        -11   -1    0    0    0    0  0.00000000000E+00  0.00000000000E+00  0.45593999997E+02  0.45594000000E+02  0.51100000000E-03 0. -1.
         11   -1    0    0    0    0 -0.00000000000E+00 -0.00000000000E+00 -0.45593999997E+02  0.45594000000E+02  0.51100000000E-03 0.  1.
    9900012    2    1    2    0    0  0.43932102548E+01 -0.16438304044E+02 -0.78205331707E+01  0.72461578151E+02  0.70000010235E+02 0.  0.
         12    1    1    2    0    0 -0.43932102548E+01  0.16438304044E+02  0.78205331707E+01  0.18726421849E+02  0.00000000000E+00 0. -1.
         11    1    3    3    0    0 -0.55690346400E+01  0.60785998573E+01 -0.47664340527E+00  0.82577667831E+01  0.51100000000E-03 0. -1.
        -11    1    3    3    0    0  0.87786777322E+01  0.15426094848E+02 -0.17481027737E+02  0.24912164017E+02  0.51100000000E-03 0.  1.
         12    1    3    3    0    0  0.11835671626E+01 -0.37942998750E+02  0.10137137972E+02  0.39291647351E+02  0.00000000000E+00 0. -1.
</event>
<event>
 7    1  0.2886818E-013  0.7246157E+02  0.7816164E-02  0.1226708E+00
        -11   -1    0    0    0    0  0.00000000000E+00  0.00000000000E+00  0.45593999997E+02  0.45594000000E+02  0.51100000000E-03 0. -1.
         11   -1    0    0    0    0 -0.00000000000E+00 -0.00000000000E+00 -0.45593999997E+02  0.45594000000E+02  0.51100000000E-03 0.  1.
    9900012    2    1    2    0    0 -0.16679240023E+01  0.11782814230E+02  0.14458994612E+02  0.72461569298E+02  0.69999998702E+02 0.  0.
         12    1    1    2    0    0  0.16679240023E+01 -0.11782814230E+02 -0.14458994612E+02  0.18726430702E+02  0.00000000000E+00 0. -1.
         11    1    3    3    0    0  0.15585272045E+02 -0.16850265505E+02 -0.76426647876E+01  0.24191785334E+02  0.51100000000E-03 0. -1.
        -11    1    3    3    0    0 -0.60059449212E+01 -0.36032367068E+01  0.96589988838E+01  0.11931091688E+02  0.51100000000E-03 0.  1.
        -12    1    3    3    0    0 -0.11247251126E+02  0.32236316442E+02  0.12442660516E+02  0.36338692277E+02  0.00000000000E+00 0.  1.
</event>
<event>
 7    1  0.2886818E-013  0.7246138E+02  0.7816164E-02  0.1226709E+00
        -11   -1    0    0    0    0  0.00000000000E+00  0.00000000000E+00  0.45593999997E+02  0.45594000000E+02  0.51100000000E-03 0.  1.
         11   -1    0    0    0    0 -0.00000000000E+00 -0.00000000000E+00 -0.45593999997E+02  0.45594000000E+02  0.51100000000E-03 0. -1.
    9900012    2    1    2    0    0 -0.15324333112E+02 -0.10336807422E+02  0.30002712467E+01  0.72461377225E+02  0.69999748491E+02 0.  0.
         12    1    1    2    0    0  0.15324333112E+02  0.10336807422E+02 -0.30002712467E+01  0.18726622775E+02  0.00000000000E+00 0. -1.
         11    1    3    3    0    0 -0.14248126590E+02 -0.21507097331E+01  0.34008779672E+01  0.14805425860E+02  0.51100000000E-03 0. -1.
        -11    1    3    3    0    0 -0.94791923112E+01  0.88803382832E+01  0.23655646185E+02  0.26987128257E+02  0.51100000000E-03 0.  1.
         12    1    3    3    0    0  0.84029857892E+01 -0.17066435972E+02 -0.24056252905E+02  0.30668823108E+02  0.00000000000E+00 0. -1.
</event>
<event>
 7    1  0.2886818E-013  0.7246159E+02  0.7816164E-02  0.1226708E+00
        -11   -1    0    0    0    0  0.00000000000E+00  0.00000000000E+00  0.45593999997E+02  0.45594000000E+02  0.51100000000E-03 0.  1.
         11   -1    0    0    0    0 -0.00000000000E+00 -0.00000000000E+00 -0.45593999997E+02  0.45594000000E+02  0.51100000000E-03 0. -1.
    9900012    2    1    2    0    0  0.33063601709E+00 -0.18105034722E+02  0.47725057041E+01  0.72461590489E+02  0.70000026308E+02 0.  0.
         12    1    1    2    0    0 -0.33063601709E+00  0.18105034722E+02 -0.47725057041E+01  0.18726409511E+02  0.00000000000E+00 0. -1.
         11    1    3    3    0    0 -0.16325319368E+02 -0.12824260975E+02 -0.29616175735E+01  0.20970190771E+02  0.51100000000E-03 0. -1.
        -11    1    3    3    0    0  0.25312702218E+02  0.14589086246E+02  0.51077359434E+01  0.29659118291E+02  0.51100000000E-03 0.  1.
         12    1    3    3    0    0 -0.86567468327E+01 -0.19869859993E+02  0.26263873342E+01  0.21832281427E+02  0.00000000000E+00 0. -1.
</event>
<event>
 7    1  0.2886818E-013  0.7246151E+02  0.7816164E-02  0.1226708E+00
        -11   -1    0    0    0    0  0.00000000000E+00  0.00000000000E+00  0.45593999997E+02  0.45594000000E+02  0.51100000000E-03 0. -1.
         11   -1    0    0    0    0 -0.00000000000E+00 -0.00000000000E+00 -0.45593999997E+02  0.45594000000E+02  0.51100000000E-03 0.  1.
    9900012    2    1    2    0    0  0.15134902708E+02 -0.97427859583E+01  0.51666376140E+01  0.72461513345E+02  0.69999925812E+02 0.  0.
         12    1    1    2    0    0 -0.15134902708E+02  0.97427859583E+01 -0.51666376140E+01  0.18726486655E+02  0.00000000000E+00 0. -1.
         11    1    3    3    0    0  0.28117770096E+02  0.42656013278E+01  0.24785548801E+02  0.37724365859E+02  0.51100000000E-03 0. -1.
        -11    1    3    3    0    0 -0.50021129604E+01  0.27308990832E+01  0.21939930063E+01  0.61067625993E+01  0.51100000000E-03 0.  1.
        -12    1    3    3    0    0 -0.79807544272E+01 -0.16739286369E+02 -0.21812904193E+02  0.28630384886E+02  0.00000000000E+00 0.  1.
</event>
<event>
 7    1  0.2886818E-013  0.7246153E+02  0.7816164E-02  0.1226708E+00
        -11   -1    0    0    0    0  0.00000000000E+00  0.00000000000E+00  0.45593999997E+02  0.45594000000E+02  0.51100000000E-03 0.  1.
         11   -1    0    0    0    0 -0.00000000000E+00 -0.00000000000E+00 -0.45593999997E+02  0.45594000000E+02  0.51100000000E-03 0. -1.
    9900012    2    1    2    0    0  0.16493590908E+02  0.44017867325E+00 -0.88571041700E+01  0.72461532298E+02  0.69999950503E+02 0.  0.
         12    1    1    2    0    0 -0.16493590908E+02 -0.44017867325E+00  0.88571041700E+01  0.18726467702E+02  0.00000000000E+00 0. -1.
         11    1    3    3    0    0 -0.58390153949E+01 -0.13224396394E+02  0.71670320847E+01  0.16135213353E+02  0.51100000000E-03 0. -1.
        -11    1    3    3    0    0 -0.14536789275E+02  0.86817799067E+00 -0.74951084526E+01  0.16378297422E+02  0.51100000000E-03 0.  1.
        -12    1    3    3    0    0  0.36869395578E+02  0.12796397077E+02 -0.85290278021E+01  0.39948021524E+02  0.00000000000E+00 0.  1.
</event>
<event>
 7    1  0.2886818E-013  0.7246158E+02  0.7816164E-02  0.1226708E+00
        -11   -1    0    0    0    0  0.00000000000E+00  0.00000000000E+00  0.45593999997E+02  0.45594000000E+02  0.51100000000E-03 0.  1.
         11   -1    0    0    0    0 -0.00000000000E+00 -0.00000000000E+00 -0.45593999997E+02  0.45594000000E+02  0.51100000000E-03 0. -1.
    9900012    2    1    2    0    0  0.23984338446E+01  0.18209342403E+02  0.36532162662E+01  0.72461584840E+02  0.70000018949E+02 0.  0.
         12    1    1    2    0    0 -0.23984338446E+01 -0.18209342403E+02 -0.36532162662E+01  0.18726415160E+02  0.00000000000E+00 0. -1.
         11    1    3    3    0    0  0.27298378044E+02  0.25825684132E+01 -0.78578240088E+00  0.27431524888E+02  0.51100000000E-03 0.  1.
        -11    1    3    3    0    0  0.64991245747E+01  0.10571779544E+02  0.45756267373E+01  0.13226394190E+02  0.51100000000E-03 0. -1.
         12    1    3    3    0    0 -0.31399068774E+02  0.50549944454E+01 -0.13662807015E+00  0.31803665763E+02  0.00000000000E+00 0. -1.
</event>
<event>
 7    1  0.2886818E-013  0.7246158E+02  0.7816164E-02  0.1226708E+00
        -11   -1    0    0    0    0  0.00000000000E+00  0.00000000000E+00  0.45593999997E+02  0.45594000000E+02  0.51100000000E-03 0.  1.
         11   -1    0    0    0    0 -0.00000000000E+00 -0.00000000000E+00 -0.45593999997E+02  0.45594000000E+02  0.51100000000E-03 0. -1.
    9900012    2    1    2    0    0  0.13555018472E+02 -0.37835980178E+01  0.12354139001E+02  0.72461577752E+02  0.70000009716E+02 0.  0.
         12    1    1    2    0    0 -0.13555018472E+02  0.37835980178E+01 -0.12354139001E+02  0.18726422248E+02  0.00000000000E+00 0. -1.
         11    1    3    3    0    0  0.85613482825E+01  0.12376182933E+02 -0.12406932527E+02  0.19503808946E+02  0.51100000000E-03 0. -1.
        -11    1    3    3    0    0 -0.11042888013E+01  0.93392525256E+00 -0.11933256727E+02  0.12020577628E+02  0.51100000000E-03 0.  1.
        -12    1    3    3    0    0  0.60979589912E+01 -0.17093706203E+02  0.36694328254E+02  0.40937191179E+02  0.00000000000E+00 0.  1.
</event>
<event>
 7    1  0.2886818E-013  0.7246155E+02  0.7816164E-02  0.1226708E+00
        -11   -1    0    0    0    0  0.00000000000E+00  0.00000000000E+00  0.45593999997E+02  0.45594000000E+02  0.51100000000E-03 0.  1.
         11   -1    0    0    0    0 -0.00000000000E+00 -0.00000000000E+00 -0.45593999997E+02  0.45594000000E+02  0.51100000000E-03 0. -1.
    9900012    2    1    2    0    0 -0.17169007803E+02 -0.74701063353E+01 -0.32046319902E+00  0.72461547740E+02  0.69999970618E+02 0.  0.
         12    1    1    2    0    0  0.17169007803E+02  0.74701063353E+01  0.32046319902E+00  0.18726452260E+02  0.00000000000E+00 0. -1.
         11    1    3    3    0    0  0.16390167728E+02 -0.23085764887E+01  0.76074626863E+01  0.18216492866E+02  0.51100000000E-03 0. -1.
        -11    1    3    3    0    0 -0.40902426158E+01 -0.34127431877E+01  0.15606953315E+02  0.16491024613E+02  0.51100000000E-03 0.  1.
         12    1    3    3    0    0 -0.29468932915E+02 -0.17487866589E+01 -0.23534879201E+02  0.37754030261E+02  0.00000000000E+00 0. -1.
</event>
<event>
 7    1  0.2886818E-013  0.7246139E+02  0.7816164E-02  0.1226709E+00
        -11   -1    0    0    0    0  0.00000000000E+00  0.00000000000E+00  0.45593999997E+02  0.45594000000E+02  0.51100000000E-03 0. -1.
         11   -1    0    0    0    0 -0.00000000000E+00 -0.00000000000E+00 -0.45593999997E+02  0.45594000000E+02  0.51100000000E-03 0.  1.
    9900012    2    1    2    0    0  0.10485076202E+02 -0.13176341558E+02 -0.81934899215E+01  0.72461385866E+02  0.69999759748E+02 0.  0.
         12    1    1    2    0    0 -0.10485076202E+02  0.13176341558E+02  0.81934899215E+01  0.18726614134E+02  0.00000000000E+00 0. -1.
         11    1    3    3    0    0 -0.25668528786E+01  0.91059817236E+01 -0.14907654120E+01  0.95775789543E+01  0.51100000000E-03 0. -1.
        -11    1    3    3    0    0 -0.69882348286E+01 -0.35714105546E+02 -0.11740419671E+02  0.38238334369E+02  0.51100000000E-03 0.  1.
         12    1    3    3    0    0  0.20040163910E+02  0.13431782265E+02  0.50376951616E+01  0.24645472543E+02  0.00000000000E+00 0. -1.
</event>
<event>
 7    1  0.2886818E-013  0.7246228E+02  0.7816164E-02  0.1226706E+00
        -11   -1    0    0    0    0  0.00000000000E+00  0.00000000000E+00  0.45593999997E+02  0.45594000000E+02  0.51100000000E-03 0.  1.
         11   -1    0    0    0    0 -0.00000000000E+00 -0.00000000000E+00 -0.45593999997E+02  0.45594000000E+02  0.51100000000E-03 0. -1.
    9900012    2    1    2    0    0 -0.61969861355E+01 -0.17666720413E+02 -0.36980926775E+00  0.72462284895E+02  0.70000930894E+02 0.  0.
         12    1    1    2    0    0  0.61969861355E+01  0.17666720413E+02  0.36980926775E+00  0.18725715105E+02  0.00000000000E+00 0. -1.
         11    1    3    3    0    0 -0.89703707245E+01 -0.18924561979E+02  0.48604685329E+01  0.21499552359E+02  0.51100000000E-03 0. -1.
        -11    1    3    3    0    0  0.21797211389E+02 -0.11989813633E+02  0.54049257661E+01  0.25457558369E+02  0.51100000000E-03 0.  1.
         12    1    3    3    0    0 -0.19023826800E+02  0.13247655199E+02 -0.10635203567E+02  0.25505174167E+02  0.00000000000E+00 0. -1.
</event>
<event>
 7    1  0.2886818E-013  0.7246164E+02  0.7816164E-02  0.1226708E+00
        -11   -1    0    0    0    0  0.00000000000E+00  0.00000000000E+00  0.45593999997E+02  0.45594000000E+02  0.51100000000E-03 0.  1.
         11   -1    0    0    0    0 -0.00000000000E+00 -0.00000000000E+00 -0.45593999997E+02  0.45594000000E+02  0.51100000000E-03 0. -1.
    9900012    2    1    2    0    0  0.11522276024E+02  0.96363410815E+01  0.11182789680E+02  0.72461636252E+02  0.70000085922E+02 0.  0.
         12    1    1    2    0    0 -0.11522276024E+02 -0.96363410815E+01 -0.11182789680E+02  0.18726363748E+02  0.00000000000E+00 0. -1.
         11    1    3    3    0    0  0.80247381825E+01 -0.10007579037E+02 -0.19868375897E+02  0.23649533232E+02  0.51100000000E-03 0. -1.
        -11    1    3    3    0    0 -0.80001976418E+01  0.13521584842E+02  0.63486143635E+00  0.15723850300E+02  0.51100000000E-03 0.  1.
        -12    1    3    3    0    0  0.11497735483E+02  0.61223352761E+01  0.30416304140E+02  0.33088252719E+02  0.00000000000E+00 0.  1.
</event>
<event>
 7    1  0.2886818E-013  0.7246157E+02  0.7816164E-02  0.1226708E+00
        -11   -1    0    0    0    0  0.00000000000E+00  0.00000000000E+00  0.45593999997E+02  0.45594000000E+02  0.51100000000E-03 0.  1.
         11   -1    0    0    0    0 -0.00000000000E+00 -0.00000000000E+00 -0.45593999997E+02  0.45594000000E+02  0.51100000000E-03 0. -1.
    9900012    2    1    2    0    0 -0.84961737471E+01  0.25629652936E+01  0.16490163236E+02  0.72461568333E+02  0.69999997445E+02 0.  0.
         12    1    1    2    0    0  0.84961737471E+01 -0.25629652936E+01 -0.16490163236E+02  0.18726431667E+02  0.00000000000E+00 0. -1.
         11    1    3    3    0    0  0.74203908144E+00  0.20509924735E+02  0.80092711668E+00  0.20538965873E+02  0.51100000000E-03 0. -1.
        -11    1    3    3    0    0  0.78387027818E+01  0.12165763447E+02  0.77060087480E+01  0.16396146884E+02  0.51100000000E-03 0.  1.
        -12    1    3    3    0    0 -0.17076915610E+02 -0.30112722889E+02  0.79832273712E+01  0.35526455576E+02  0.00000000000E+00 0.  1.
</event>
<event>
 7    1  0.2886818E-013  0.7246167E+02  0.7816164E-02  0.1226708E+00
        -11   -1    0    0    0    0  0.00000000000E+00  0.00000000000E+00  0.45593999997E+02  0.45594000000E+02  0.51100000000E-03 0.  1.
         11   -1    0    0    0    0 -0.00000000000E+00 -0.00000000000E+00 -0.45593999997E+02  0.45594000000E+02  0.51100000000E-03 0. -1.
    9900012    2    1    2    0    0  0.12686830877E+02  0.90132457493E+01  0.10415436136E+02  0.72461665961E+02  0.70000124623E+02 0.  0.
         12    1    1    2    0    0 -0.12686830877E+02 -0.90132457493E+01 -0.10415436136E+02  0.18726334039E+02  0.00000000000E+00 0. -1.
         11    1    3    3    0    0 -0.16150534474E+02  0.14309243994E+02  0.69729320434E+01  0.22676331472E+02  0.51100000000E-03 0. -1.
        -11    1    3    3    0    0  0.11333672203E+02 -0.74895252505E+01  0.20925869669E+02  0.24948690061E+02  0.51100000000E-03 0.  1.
        -12    1    3    3    0    0  0.17503693148E+02  0.21935270055E+01 -0.17483365577E+02  0.24836644428E+02  0.00000000000E+00 0.  1.
</event>
<event>
 7    1  0.2886818E-013  0.7246165E+02  0.7816164E-02  0.1226708E+00
        -11   -1    0    0    0    0  0.00000000000E+00  0.00000000000E+00  0.45593999997E+02  0.45594000000E+02  0.51100000000E-03 0.  1.
         11   -1    0    0    0    0 -0.00000000000E+00 -0.00000000000E+00 -0.45593999997E+02  0.45594000000E+02  0.51100000000E-03 0. -1.
    9900012    2    1    2    0    0 -0.17657836908E+02  0.33458295079E+01  0.52614043537E+01  0.72461650780E+02  0.70000104847E+02 0.  0.
         12    1    1    2    0    0  0.17657836908E+02 -0.33458295079E+01 -0.52614043537E+01  0.18726349220E+02  0.00000000000E+00 0. -1.
         11    1    3    3    0    0 -0.19550409664E+02  0.16210914577E+02 -0.15988396430E+02  0.30010682933E+02  0.51100000000E-03 0. -1.
        -11    1    3    3    0    0  0.16065737980E+02  0.18788120063E+01  0.76699902744E+01  0.17901581563E+02  0.51100000000E-03 0.  1.
        -12    1    3    3    0    0 -0.14173165224E+02 -0.14743897075E+02  0.13579810509E+02  0.24549386283E+02  0.00000000000E+00 0.  1.
</event>
<event>
 7    1  0.2886818E-013  0.7246160E+02  0.7816164E-02  0.1226708E+00
        -11   -1    0    0    0    0  0.00000000000E+00  0.00000000000E+00  0.45593999997E+02  0.45594000000E+02  0.51100000000E-03 0.  1.
         11   -1    0    0    0    0 -0.00000000000E+00 -0.00000000000E+00 -0.45593999997E+02  0.45594000000E+02  0.51100000000E-03 0. -1.
    9900012    2    1    2    0    0 -0.12968821914E+02 -0.95055127666E+01  0.95985967111E+01  0.72461596885E+02  0.70000034640E+02 0.  0.
         12    1    1    2    0    0  0.12968821914E+02  0.95055127666E+01 -0.95985967111E+01  0.18726403115E+02  0.00000000000E+00 0. -1.
         11    1    3    3    0    0 -0.91349655051E+01 -0.67090584752E+01 -0.17654437988E+01  0.11470651789E+02  0.51100000000E-03 0. -1.
        -11    1    3    3    0    0 -0.26794715498E+02 -0.15928622666E+02  0.14454528138E+02  0.34360023030E+02  0.51100000000E-03 0.  1.
         12    1    3    3    0    0  0.22960859089E+02  0.13132168374E+02 -0.30904876283E+01  0.26630922066E+02  0.00000000000E+00 0. -1.
</event>
<event>
 7    1  0.2886818E-013  0.7246176E+02  0.7816164E-02  0.1226708E+00
        -11   -1    0    0    0    0  0.00000000000E+00  0.00000000000E+00  0.45593999997E+02  0.45594000000E+02  0.51100000000E-03 0.  1.
         11   -1    0    0    0    0 -0.00000000000E+00 -0.00000000000E+00 -0.45593999997E+02  0.45594000000E+02  0.51100000000E-03 0. -1.
    9900012    2    1    2    0    0 -0.12158779462E+02  0.85081876485E+01  0.11421340626E+02  0.72461756470E+02  0.70000242528E+02 0.  0.
         12    1    1    2    0    0  0.12158779462E+02 -0.85081876485E+01 -0.11421340626E+02  0.18726243530E+02  0.00000000000E+00 0. -1.
         11    1    3    3    0    0 -0.15170691241E+02 -0.26952365371E+02  0.11737581057E+02  0.33080971587E+02  0.51100000000E-03 0. -1.
        -11    1    3    3    0    0  0.64253962002E+01  0.43545229542E+01 -0.20881155039E+01  0.80378985504E+01  0.51100000000E-03 0.  1.
        -12    1    3    3    0    0 -0.34134844205E+01  0.31106030066E+02  0.17718750732E+01  0.31342886332E+02  0.00000000000E+00 0.  1.
</event>
<event>
 7    1  0.2886818E-013  0.7246168E+02  0.7816164E-02  0.1226708E+00
        -11   -1    0    0    0    0  0.00000000000E+00  0.00000000000E+00  0.45593999997E+02  0.45594000000E+02  0.51100000000E-03 0.  1.
         11   -1    0    0    0    0 -0.00000000000E+00 -0.00000000000E+00 -0.45593999997E+02  0.45594000000E+02  0.51100000000E-03 0. -1.
    9900012    2    1    2    0    0 -0.66539509017E+01  0.16204349905E+02  0.66196014002E+01  0.72461677853E+02  0.70000140115E+02 0.  0.
         12    1    1    2    0    0  0.66539509017E+01 -0.16204349905E+02 -0.66196014002E+01  0.18726322147E+02  0.00000000000E+00 0. -1.
         11    1    3    3    0    0  0.41689045099E+01  0.29469525826E+02  0.58650896214E+01  0.30335325839E+02  0.51100000000E-03 0. -1.
        -11    1    3    3    0    0  0.61110534552E+01  0.88479604869E+01  0.79343266079E+01  0.13363566818E+02  0.51100000000E-03 0.  1.
        -12    1    3    3    0    0 -0.16933908867E+02 -0.22113136407E+02 -0.71798148291E+01  0.28762785196E+02  0.00000000000E+00 0.  1.
</event>
<event>
 7    1  0.2886818E-013  0.7246151E+02  0.7816164E-02  0.1226708E+00
        -11   -1    0    0    0    0  0.00000000000E+00  0.00000000000E+00  0.45593999997E+02  0.45594000000E+02  0.51100000000E-03 0. -1.
         11   -1    0    0    0    0 -0.00000000000E+00 -0.00000000000E+00 -0.45593999997E+02  0.45594000000E+02  0.51100000000E-03 0.  1.
    9900012    2    1    2    0    0 -0.17311829394E+02  0.71326805414E+01 -0.32706575054E+00  0.72461506984E+02  0.69999917527E+02 0.  0.
         12    1    1    2    0    0  0.17311829394E+02 -0.71326805414E+01  0.32706575054E+00  0.18726493016E+02  0.00000000000E+00 0. -1.
         11    1    3    3    0    0 -0.19913664905E+02 -0.48139212390E+01  0.31011180798E+00  0.20489608519E+02  0.51100000000E-03 0. -1.
        -11    1    3    3    0    0 -0.20429786086E+02  0.25850619350E+01 -0.12849606879E+02  0.24272847009E+02  0.51100000000E-03 0.  1.
         12    1    3    3    0    0  0.23031621597E+02  0.93615398454E+01  0.12212429321E+02  0.27699051457E+02  0.00000000000E+00 0. -1.
</event>
<event>
 7    1  0.2886818E-013  0.7246155E+02  0.7816164E-02  0.1226708E+00
        -11   -1    0    0    0    0  0.00000000000E+00  0.00000000000E+00  0.45593999997E+02  0.45594000000E+02  0.51100000000E-03 0.  1.
         11   -1    0    0    0    0 -0.00000000000E+00 -0.00000000000E+00 -0.45593999997E+02  0.45594000000E+02  0.51100000000E-03 0. -1.
    9900012    2    1    2    0    0  0.93314557677E+01  0.23388424447E+01 -0.16066539328E+02  0.72461549811E+02  0.69999973316E+02 0.  0.
         12    1    1    2    0    0 -0.93314557677E+01 -0.23388424447E+01  0.16066539328E+02  0.18726450189E+02  0.00000000000E+00 0. -1.
         11    1    3    3    0    0 -0.10715937328E+02 -0.10847022236E+02  0.36640658523E+01  0.15681663912E+02  0.51100000000E-03 0.  1.
        -11    1    3    3    0    0  0.18550838576E+02  0.30448385608E+02 -0.10614524371E+02  0.37200886091E+02  0.51100000000E-03 0. -1.
         12    1    3    3    0    0  0.14965545191E+01 -0.17262520927E+02 -0.91160808088E+01  0.19578999809E+02  0.00000000000E+00 0. -1.
</event>
<event>
 7    1  0.2886818E-013  0.7246168E+02  0.7816164E-02  0.1226708E+00
        -11   -1    0    0    0    0  0.00000000000E+00  0.00000000000E+00  0.45593999997E+02  0.45594000000E+02  0.51100000000E-03 0.  1.
         11   -1    0    0    0    0 -0.00000000000E+00 -0.00000000000E+00 -0.45593999997E+02  0.45594000000E+02  0.51100000000E-03 0. -1.
    9900012    2    1    2    0    0  0.16871523762E+02 -0.60716151142E+01  0.54002206577E+01  0.72461676087E+02  0.70000137814E+02 0.  0.
         12    1    1    2    0    0 -0.16871523762E+02  0.60716151142E+01 -0.54002206577E+01  0.18726323913E+02  0.00000000000E+00 0. -1.
         11    1    3    3    0    0  0.20887929124E+02 -0.28895768781E+01 -0.65676118469E+01  0.22085940398E+02  0.51100000000E-03 0. -1.
        -11    1    3    3    0    0  0.20852805646E+02 -0.49591630255E+01  0.13608065950E+02  0.25389215435E+02  0.51100000000E-03 0.  1.
        -12    1    3    3    0    0 -0.24869211007E+02  0.17771247894E+01 -0.16402334459E+01  0.24986520254E+02  0.00000000000E+00 0.  1.
</event>
<event>
 7    1  0.2886818E-013  0.7246158E+02  0.7816164E-02  0.1226708E+00
        -11   -1    0    0    0    0  0.00000000000E+00  0.00000000000E+00  0.45593999997E+02  0.45594000000E+02  0.51100000000E-03 0.  1.
         11   -1    0    0    0    0 -0.00000000000E+00 -0.00000000000E+00 -0.45593999997E+02  0.45594000000E+02  0.51100000000E-03 0. -1.
    9900012    2    1    2    0    0 -0.81346463283E+01 -0.81919226851E+01  0.14744450974E+02  0.72461577419E+02  0.70000009281E+02 0.  0.
         12    1    1    2    0    0  0.81346463283E+01  0.81919226851E+01 -0.14744450974E+02  0.18726422581E+02  0.00000000000E+00 0. -1.
         11    1    3    3    0    0  0.59175731342E+01 -0.23858562453E+02  0.16323207329E+02  0.29507554488E+02  0.51100000000E-03 0. -1.
        -11    1    3    3    0    0  0.74839357494E+01  0.57343777634E+01  0.12282718629E+02  0.15484106685E+02  0.51100000000E-03 0.  1.
        -12    1    3    3    0    0 -0.21536155212E+02  0.99322620043E+01 -0.13861474984E+02  0.27469916246E+02  0.00000000000E+00 0.  1.
</event>
<event>
 7    1  0.2886818E-013  0.7246153E+02  0.7816164E-02  0.1226708E+00
        -11   -1    0    0    0    0  0.00000000000E+00  0.00000000000E+00  0.45593999997E+02  0.45594000000E+02  0.51100000000E-03 0. -1.
         11   -1    0    0    0    0 -0.00000000000E+00 -0.00000000000E+00 -0.45593999997E+02  0.45594000000E+02  0.51100000000E-03 0.  1.
    9900012    2    1    2    0    0 -0.84132167107E+01  0.30030675804E+01 -0.16458430138E+02  0.72461533357E+02  0.69999951882E+02 0.  0.
         12    1    1    2    0    0  0.84132167107E+01 -0.30030675804E+01  0.16458430138E+02  0.18726466643E+02  0.00000000000E+00 0. -1.
         11    1    3    3    0    0  0.55674321868E+01  0.81860926478E+01 -0.87103256825E+01  0.13186287868E+02  0.51100000000E-03 0. -1.
        -11    1    3    3    0    0 -0.24285441426E+02  0.11620823351E+02 -0.22149517025E+02  0.34862979008E+02  0.51100000000E-03 0.  1.
         12    1    3    3    0    0  0.10304792529E+02 -0.16803848418E+02  0.14401412569E+02  0.24412266480E+02  0.00000000000E+00 0. -1.
</event>
<event>
 7    1  0.2886818E-013  0.7246160E+02  0.7816164E-02  0.1226708E+00
        -11   -1    0    0    0    0  0.00000000000E+00  0.00000000000E+00  0.45593999997E+02  0.45594000000E+02  0.51100000000E-03 0.  1.
         11   -1    0    0    0    0 -0.00000000000E+00 -0.00000000000E+00 -0.45593999997E+02  0.45594000000E+02  0.51100000000E-03 0. -1.
    9900012    2    1    2    0    0  0.11120967370E+02  0.14340620988E+02 -0.46204605708E+01  0.72461602016E+02  0.70000041323E+02 0.  0.
         12    1    1    2    0    0 -0.11120967370E+02 -0.14340620988E+02  0.46204605708E+01  0.18726397984E+02  0.00000000000E+00 0. -1.
         11    1    3    3    0    0 -0.18300821164E+02 -0.10232427916E+02  0.51994346549E-02  0.20967180631E+02  0.51100000000E-03 0. -1.
        -11    1    3    3    0    0  0.51475418386E+01  0.12561989105E+02 -0.16968761757E+02  0.21731075286E+02  0.51100000000E-03 0.  1.
        -12    1    3    3    0    0  0.24274246695E+02  0.12011059799E+02  0.12343101752E+02  0.29763346099E+02  0.00000000000E+00 0.  1.
</event>
<event>
 7    1  0.2886818E-013  0.7246182E+02  0.7816164E-02  0.1226707E+00
        -11   -1    0    0    0    0  0.00000000000E+00  0.00000000000E+00  0.45593999997E+02  0.45594000000E+02  0.51100000000E-03 0.  1.
         11   -1    0    0    0    0 -0.00000000000E+00 -0.00000000000E+00 -0.45593999997E+02  0.45594000000E+02  0.51100000000E-03 0. -1.
    9900012    2    1    2    0    0 -0.11240202243E+02 -0.78087696222E+00  0.14957202791E+02  0.72461819646E+02  0.70000324826E+02 0.  0.
         12    1    1    2    0    0  0.11240202243E+02  0.78087696222E+00 -0.14957202791E+02  0.18726180354E+02  0.00000000000E+00 0. -1.
         11    1    3    3    0    0 -0.48447982946E+01  0.18560591030E+02  0.72549610956E+01  0.20508585292E+02  0.51100000000E-03 0. -1.
        -11    1    3    3    0    0  0.36573924139E+01  0.12929470618E+02  0.11829012289E+02  0.17901767000E+02  0.51100000000E-03 0.  1.
         12    1    3    3    0    0 -0.10052796363E+02 -0.32270938610E+02 -0.41267705927E+01  0.34051467355E+02  0.00000000000E+00 0. -1.
</event>
<event>
 7    1  0.2886818E-013  0.7246153E+02  0.7816164E-02  0.1226708E+00
        -11   -1    0    0    0    0  0.00000000000E+00  0.00000000000E+00  0.45593999997E+02  0.45594000000E+02  0.51100000000E-03 0. -1.
         11   -1    0    0    0    0 -0.00000000000E+00 -0.00000000000E+00 -0.45593999997E+02  0.45594000000E+02  0.51100000000E-03 0.  1.
    9900012    2    1    2    0    0  0.10672276926E+02  0.15383789078E+02  0.34956945207E+00  0.72461530499E+02  0.69999948159E+02 0.  0.
         12    1    1    2    0    0 -0.10672276926E+02 -0.15383789078E+02 -0.34956945207E+00  0.18726469501E+02  0.00000000000E+00 0. -1.
         11    1    3    3    0    0 -0.64258410669E-01  0.14257594449E+02  0.10651542244E+02  0.17797148116E+02  0.51100000000E-03 0. -1.
        -11    1    3    3    0    0 -0.55468284372E+01  0.10914376676E+01 -0.29186516107E+02  0.29728963396E+02  0.51100000000E-03 0.  1.
         12    1    3    3    0    0  0.16283363774E+02  0.34756961096E-01  0.18884543315E+02  0.24935418987E+02  0.00000000000E+00 0. -1.
</event>
<event>
 7    1  0.2886818E-013  0.7246156E+02  0.7816164E-02  0.1226708E+00
        -11   -1    0    0    0    0  0.00000000000E+00  0.00000000000E+00  0.45593999997E+02  0.45594000000E+02  0.51100000000E-03 0. -1.
         11   -1    0    0    0    0 -0.00000000000E+00 -0.00000000000E+00 -0.45593999997E+02  0.45594000000E+02  0.51100000000E-03 0.  1.
    9900012    2    1    2    0    0  0.11251589967E+01 -0.11501486111E+02 -0.14735307791E+02  0.72461562506E+02  0.69999989854E+02 0.  0.
         12    1    1    2    0    0 -0.11251589967E+01  0.11501486111E+02  0.14735307791E+02  0.18726437494E+02  0.00000000000E+00 0. -1.
         11    1    3    3    0    0  0.94995148885E+00  0.59259198779E+01  0.12852208877E+02  0.14184435396E+02  0.51100000000E-03 0. -1.
        -11    1    3    3    0    0  0.18436507603E+02  0.77752240202E+01 -0.82999708284E+01  0.21662142950E+02  0.51100000000E-03 0.  1.
         12    1    3    3    0    0 -0.18261300095E+02 -0.25202630009E+02 -0.19287545840E+02  0.36614984160E+02  0.00000000000E+00 0. -1.
</event>
<event>
 7    1  0.2886818E-013  0.7246153E+02  0.7816164E-02  0.1226708E+00
        -11   -1    0    0    0    0  0.00000000000E+00  0.00000000000E+00  0.45593999997E+02  0.45594000000E+02  0.51100000000E-03 0.  1.
         11   -1    0    0    0    0 -0.00000000000E+00 -0.00000000000E+00 -0.45593999997E+02  0.45594000000E+02  0.51100000000E-03 0. -1.
    9900012    2    1    2    0    0  0.26681181130E+00  0.24258067626E+01  0.18566768085E+02  0.72461531990E+02  0.69999950102E+02 0.  0.
         12    1    1    2    0    0 -0.26681181130E+00 -0.24258067626E+01 -0.18566768085E+02  0.18726468010E+02  0.00000000000E+00 0. -1.
         11    1    3    3    0    0  0.21344598839E+02  0.10409096456E+01  0.69649397482E+01  0.22476338190E+02  0.51100000000E-03 0. -1.
        -11    1    3    3    0    0  0.10590272518E+02 -0.67620200595E+01  0.11869649294E+02  0.17284888253E+02  0.51100000000E-03 0.  1.
         12    1    3    3    0    0 -0.31668059545E+02  0.81469171765E+01 -0.26782095696E+00  0.32700305548E+02  0.00000000000E+00 0. -1.
</event>
<event>
 7    1  0.2886818E-013  0.7246160E+02  0.7816164E-02  0.1226708E+00
        -11   -1    0    0    0    0  0.00000000000E+00  0.00000000000E+00  0.45593999997E+02  0.45594000000E+02  0.51100000000E-03 0.  1.
         11   -1    0    0    0    0 -0.00000000000E+00 -0.00000000000E+00 -0.45593999997E+02  0.45594000000E+02  0.51100000000E-03 0. -1.
    9900012    2    1    2    0    0 -0.58488971374E+01  0.20428693478E+00  0.17788392148E+02  0.72461595485E+02  0.70000032815E+02 0.  0.
         12    1    1    2    0    0  0.58488971374E+01 -0.20428693478E+00 -0.17788392148E+02  0.18726404515E+02  0.00000000000E+00 0. -1.
         11    1    3    3    0    0 -0.12217032883E+02 -0.15215093320E+01  0.23305980415E+01  0.12530066664E+02  0.51100000000E-03 0.  1.
        -11    1    3    3    0    0 -0.10746407970E+02  0.25216890596E+02  0.14125110432E+02  0.30836595152E+02  0.51100000000E-03 0. -1.
         12    1    3    3    0    0  0.17114543716E+02 -0.23491094330E+02  0.13326836742E+01  0.29094933668E+02  0.00000000000E+00 0. -1.
</event>
<event>
 7    1  0.2886818E-013  0.7246156E+02  0.7816164E-02  0.1226708E+00
        -11   -1    0    0    0    0  0.00000000000E+00  0.00000000000E+00  0.45593999997E+02  0.45594000000E+02  0.51100000000E-03 0.  1.
         11   -1    0    0    0    0 -0.00000000000E+00 -0.00000000000E+00 -0.45593999997E+02  0.45594000000E+02  0.51100000000E-03 0. -1.
    9900012    2    1    2    0    0  0.64344118192E+01  0.35273951077E+01  0.17228909168E+02  0.72461561929E+02  0.69999989102E+02 0.  0.
         12    1    1    2    0    0 -0.64344118192E+01 -0.35273951077E+01 -0.17228909168E+02  0.18726438071E+02  0.00000000000E+00 0. -1.
         11    1    3    3    0    0  0.39098294275E+01 -0.82545152163E+01  0.13117304822E+02  0.15983975527E+02  0.51100000000E-03 0.  1.
        -11    1    3    3    0    0  0.22921756168E+02  0.79315281273E+01 -0.14785759035E+02  0.28406596325E+02  0.51100000000E-03 0. -1.
         12    1    3    3    0    0 -0.20397173776E+02  0.38503821967E+01  0.18897363381E+02  0.28070990077E+02  0.00000000000E+00 0. -1.
</event>
<event>
 7    1  0.2886818E-013  0.7246166E+02  0.7816164E-02  0.1226708E+00
        -11   -1    0    0    0    0  0.00000000000E+00  0.00000000000E+00  0.45593999997E+02  0.45594000000E+02  0.51100000000E-03 0. -1.
         11   -1    0    0    0    0 -0.00000000000E+00 -0.00000000000E+00 -0.45593999997E+02  0.45594000000E+02  0.51100000000E-03 0.  1.
    9900012    2    1    2    0    0  0.50540165179E+01  0.11793923346E+02 -0.13639508722E+02  0.72461657350E+02  0.70000113406E+02 0.  0.
         12    1    1    2    0    0 -0.50540165179E+01 -0.11793923346E+02  0.13639508722E+02  0.18726342650E+02  0.00000000000E+00 0. -1.
         11    1    3    3    0    0  0.51975665325E+01 -0.94838427795E+01 -0.51592537352E+01  0.11982314930E+02  0.51100000000E-03 0. -1.
        -11    1    3    3    0    0  0.49309777865E+01 -0.40328712068E+01 -0.27619033053E+02  0.28344127772E+02  0.51100000000E-03 0.  1.
         12    1    3    3    0    0 -0.50745278011E+01  0.25310637333E+02  0.19138778066E+02  0.32135214647E+02  0.00000000000E+00 0. -1.
</event>
<event>
 7    1  0.2886818E-013  0.7246159E+02  0.7816164E-02  0.1226708E+00
        -11   -1    0    0    0    0  0.00000000000E+00  0.00000000000E+00  0.45593999997E+02  0.45594000000E+02  0.51100000000E-03 0.  1.
         11   -1    0    0    0    0 -0.00000000000E+00 -0.00000000000E+00 -0.45593999997E+02  0.45594000000E+02  0.51100000000E-03 0. -1.
    9900012    2    1    2    0    0 -0.11417464217E+02 -0.25262575827E+01  0.14626618842E+02  0.72461589632E+02  0.70000025192E+02 0.  0.
         12    1    1    2    0    0  0.11417464217E+02  0.25262575827E+01 -0.14626618842E+02  0.18726410368E+02  0.00000000000E+00 0. -1.
         11    1    3    3    0    0  0.32147829791E+01 -0.61790694085E+01  0.10556896984E+01  0.70448711385E+01  0.51100000000E-03 0. -1.
        -11    1    3    3    0    0  0.14019406724E+02  0.98580981093E+01 -0.16236856679E+02  0.23608502246E+02  0.51100000000E-03 0.  1.
        -12    1    3    3    0    0 -0.28651653920E+02 -0.62052862835E+01  0.29807785822E+02  0.41808216248E+02  0.00000000000E+00 0.  1.
</event>
<event>
 7    1  0.2886818E-013  0.7246158E+02  0.7816164E-02  0.1226708E+00
        -11   -1    0    0    0    0  0.00000000000E+00  0.00000000000E+00  0.45593999997E+02  0.45594000000E+02  0.51100000000E-03 0.  1.
         11   -1    0    0    0    0 -0.00000000000E+00 -0.00000000000E+00 -0.45593999997E+02  0.45594000000E+02  0.51100000000E-03 0. -1.
    9900012    2    1    2    0    0  0.53419759800E+01  0.76364136995E+01  0.16242759994E+02  0.72461580861E+02  0.70000013765E+02 0.  0.
         12    1    1    2    0    0 -0.53419759800E+01 -0.76364136995E+01 -0.16242759994E+02  0.18726419139E+02  0.00000000000E+00 0. -1.
         11    1    3    3    0    0  0.23774302801E+01  0.87690188406E+00  0.37114793954E+01  0.44940194943E+01  0.51100000000E-03 0. -1.
        -11    1    3    3    0    0 -0.10666885418E+02  0.33457486384E+02  0.14350543162E+02  0.37935786916E+02  0.51100000000E-03 0.  1.
         12    1    3    3    0    0  0.13631431118E+02 -0.26697974568E+02 -0.18192625634E+01  0.30031774451E+02  0.00000000000E+00 0. -1.
</event>
<event>
 7    1  0.2886818E-013  0.7246160E+02  0.7816164E-02  0.1226708E+00
        -11   -1    0    0    0    0  0.00000000000E+00  0.00000000000E+00  0.45593999997E+02  0.45594000000E+02  0.51100000000E-03 0. -1.
         11   -1    0    0    0    0 -0.00000000000E+00 -0.00000000000E+00 -0.45593999997E+02  0.45594000000E+02  0.51100000000E-03 0.  1.
    9900012    2    1    2    0    0 -0.51695181926E+01 -0.17013546499E+02 -0.58731005476E+01  0.72461601711E+02  0.70000040927E+02 0.  0.
         12    1    1    2    0    0  0.51695181926E+01  0.17013546499E+02  0.58731005476E+01  0.18726398289E+02  0.00000000000E+00 0. -1.
         11    1    3    3    0    0  0.12992819425E+02 -0.10234688844E+01  0.12040476684E+02  0.17743560077E+02  0.51100000000E-03 0. -1.
        -11    1    3    3    0    0 -0.46229115388E+01 -0.17679505188E+02  0.11984806789E+02  0.21853416410E+02  0.51100000000E-03 0.  1.
        -12    1    3    3    0    0 -0.13539426079E+02  0.16894275733E+01 -0.29898384021E+02  0.32864625224E+02  0.00000000000E+00 0.  1.
</event>
<event>
 7    1  0.2886818E-013  0.7246157E+02  0.7816164E-02  0.1226708E+00
        -11   -1    0    0    0    0  0.00000000000E+00  0.00000000000E+00  0.45593999997E+02  0.45594000000E+02  0.51100000000E-03 0.  1.
         11   -1    0    0    0    0 -0.00000000000E+00 -0.00000000000E+00 -0.45593999997E+02  0.45594000000E+02  0.51100000000E-03 0. -1.
    9900012    2    1    2    0    0  0.76181039470E+01 -0.13475669489E+02  0.10538017771E+02  0.72461574969E+02  0.70000006089E+02 0.  0.
         12    1    1    2    0    0 -0.76181039470E+01  0.13475669489E+02 -0.10538017771E+02  0.18726425031E+02  0.00000000000E+00 0. -1.
         11    1    3    3    0    0  0.44405453601E+01  0.47355262518E+01  0.30776288024E+01  0.71843894162E+01  0.51100000000E-03 0. -1.
        -11    1    3    3    0    0  0.22739540827E+02 -0.18151364566E+02 -0.17200517591E+02  0.33799653227E+02  0.51100000000E-03 0.  1.
        -12    1    3    3    0    0 -0.19561982240E+02 -0.59831174811E-01  0.24660906560E+02  0.31477532325E+02  0.00000000000E+00 0.  1.
</event>
<event>
 7    1  0.2886818E-013  0.7246158E+02  0.7816164E-02  0.1226708E+00
        -11   -1    0    0    0    0  0.00000000000E+00  0.00000000000E+00  0.45593999997E+02  0.45594000000E+02  0.51100000000E-03 0. -1.
         11   -1    0    0    0    0 -0.00000000000E+00 -0.00000000000E+00 -0.45593999997E+02  0.45594000000E+02  0.51100000000E-03 0.  1.
    9900012    2    1    2    0    0 -0.10705475627E+01  0.87080563337E+01 -0.16543950984E+02  0.72461584663E+02  0.70000018718E+02 0.  0.
         12    1    1    2    0    0  0.10705475627E+01 -0.87080563337E+01  0.16543950984E+02  0.18726415337E+02  0.00000000000E+00 0. -1.
         11    1    3    3    0    0  0.23623501859E+01  0.87954692635E+01 -0.17970914479E+02  0.20146829662E+02  0.51100000000E-03 0. -1.
        -11    1    3    3    0    0 -0.16173211152E+02  0.19210725511E+02 -0.93578626185E+01  0.26799147872E+02  0.51100000000E-03 0.  1.
         12    1    3    3    0    0  0.12740313403E+02 -0.19298138441E+02  0.10784826113E+02  0.25515607129E+02  0.00000000000E+00 0. -1.
</event>
<event>
 7    1  0.2886818E-013  0.7246159E+02  0.7816164E-02  0.1226708E+00
        -11   -1    0    0    0    0  0.00000000000E+00  0.00000000000E+00  0.45593999997E+02  0.45594000000E+02  0.51100000000E-03 0.  1.
         11   -1    0    0    0    0 -0.00000000000E+00 -0.00000000000E+00 -0.45593999997E+02  0.45594000000E+02  0.51100000000E-03 0. -1.
    9900012    2    1    2    0    0  0.83463270938E+01  0.47889137913E+01 -0.16064973907E+02  0.72461594635E+02  0.70000031708E+02 0.  0.
         12    1    1    2    0    0 -0.83463270938E+01 -0.47889137913E+01  0.16064973907E+02  0.18726405365E+02  0.00000000000E+00 0. -1.
         11    1    3    3    0    0  0.32289409374E+02  0.14710035413E+02 -0.15965223769E+02  0.38908604059E+02  0.51100000000E-03 0. -1.
        -11    1    3    3    0    0 -0.13025514695E+02 -0.11154716043E+01 -0.99369428913E+01  0.16421057952E+02  0.51100000000E-03 0.  1.
        -12    1    3    3    0    0 -0.10917567585E+02 -0.88056500172E+01  0.98371927527E+01  0.17131932624E+02  0.00000000000E+00 0.  1.
</event>
<event>
 7    1  0.2886818E-013  0.7246155E+02  0.7816164E-02  0.1226708E+00
        -11   -1    0    0    0    0  0.00000000000E+00  0.00000000000E+00  0.45593999997E+02  0.45594000000E+02  0.51100000000E-03 0. -1.
         11   -1    0    0    0    0 -0.00000000000E+00 -0.00000000000E+00 -0.45593999997E+02  0.45594000000E+02  0.51100000000E-03 0.  1.
    9900012    2    1    2    0    0 -0.42611470316E+01  0.14739045461E+01 -0.18175535052E+02  0.72461552310E+02  0.69999976572E+02 0.  0.
         12    1    1    2    0    0  0.42611470316E+01 -0.14739045461E+01  0.18175535052E+02  0.18726447690E+02  0.00000000000E+00 0. -1.
         11    1    3    3    0    0  0.13504680536E+02 -0.41865038532E+01  0.20193134096E+01  0.14282186030E+02  0.51100000000E-03 0. -1.
        -11    1    3    3    0    0  0.52079994461E+01  0.24009095729E+02 -0.49535514219E+01  0.25061875587E+02  0.51100000000E-03 0.  1.
        -12    1    3    3    0    0 -0.22973827013E+02 -0.18348687330E+02 -0.15241297040E+02  0.33117490694E+02  0.00000000000E+00 0.  1.
</event>
<event>
 7    1  0.2886818E-013  0.7246153E+02  0.7816164E-02  0.1226708E+00
        -11   -1    0    0    0    0  0.00000000000E+00  0.00000000000E+00  0.45593999997E+02  0.45594000000E+02  0.51100000000E-03 0. -1.
         11   -1    0    0    0    0 -0.00000000000E+00 -0.00000000000E+00 -0.45593999997E+02  0.45594000000E+02  0.51100000000E-03 0.  1.
    9900012    2    1    2    0    0  0.12390789812E+02 -0.50514783658E+01  0.13100825989E+02  0.72461528163E+02  0.69999945116E+02 0.  0.
         12    1    1    2    0    0 -0.12390789812E+02  0.50514783658E+01 -0.13100825989E+02  0.18726471837E+02  0.00000000000E+00 0. -1.
         11    1    3    3    0    0  0.81505845117E+01 -0.20829277523E+01  0.56840579608E+01  0.10152789324E+02  0.51100000000E-03 0. -1.
        -11    1    3    3    0    0  0.25038406249E+02  0.14979070453E+02  0.16319341213E+02  0.33430752864E+02  0.51100000000E-03 0.  1.
         12    1    3    3    0    0 -0.20798200948E+02 -0.17947621067E+02 -0.89025731849E+01  0.28877985975E+02  0.00000000000E+00 0. -1.
</event>
<event>
 7    1  0.2886818E-013  0.7246152E+02  0.7816164E-02  0.1226708E+00
        -11   -1    0    0    0    0  0.00000000000E+00  0.00000000000E+00  0.45593999997E+02  0.45594000000E+02  0.51100000000E-03 0. -1.
         11   -1    0    0    0    0 -0.00000000000E+00 -0.00000000000E+00 -0.45593999997E+02  0.45594000000E+02  0.51100000000E-03 0.  1.
    9900012    2    1    2    0    0  0.13385463809E+01 -0.18673942946E+02 -0.41632445658E+00  0.72461516678E+02  0.69999930155E+02 0.  0.
         12    1    1    2    0    0 -0.13385463809E+01  0.18673942946E+02  0.41632445658E+00  0.18726483322E+02  0.00000000000E+00 0. -1.
         11    1    3    3    0    0 -0.21597116809E+02 -0.74753471450E+01  0.38122229594E+01  0.23170008924E+02  0.51100000000E-03 0.  1.
        -11    1    3    3    0    0 -0.94040101619E+01  0.72189126131E+01 -0.18546328119E+01  0.11999490388E+02  0.51100000000E-03 0. -1.
        -12    1    3    3    0    0  0.32339673352E+02 -0.18417508414E+02 -0.23739146041E+01  0.37292017366E+02  0.00000000000E+00 0.  1.
</event>
<event>
 7    1  0.2886818E-013  0.7246185E+02  0.7816164E-02  0.1226707E+00
        -11   -1    0    0    0    0  0.00000000000E+00  0.00000000000E+00  0.45593999997E+02  0.45594000000E+02  0.51100000000E-03 0.  1.
         11   -1    0    0    0    0 -0.00000000000E+00 -0.00000000000E+00 -0.45593999997E+02  0.45594000000E+02  0.51100000000E-03 0. -1.
    9900012    2    1    2    0    0 -0.14899297309E+02 -0.99859643929E+01  0.53814554427E+01  0.72461852296E+02  0.70000367358E+02 0.  0.
         12    1    1    2    0    0  0.14899297309E+02  0.99859643929E+01 -0.53814554427E+01  0.18726147704E+02  0.00000000000E+00 0. -1.
         11    1    3    3    0    0  0.14668081465E+01  0.17265332206E+01  0.88709615288E+00  0.24329782050E+01  0.51100000000E-03 0. -1.
        -11    1    3    3    0    0  0.21854731946E+02 -0.15999917436E+02  0.13886937347E+02  0.30438030415E+02  0.51100000000E-03 0.  1.
         12    1    3    3    0    0 -0.38220837401E+02  0.42874198222E+01 -0.93925780576E+01  0.39590843676E+02  0.00000000000E+00 0. -1.
</event>
<event>
 7    1  0.2886818E-013  0.7246162E+02  0.7816164E-02  0.1226708E+00
        -11   -1    0    0    0    0  0.00000000000E+00  0.00000000000E+00  0.45593999997E+02  0.45594000000E+02  0.51100000000E-03 0.  1.
         11   -1    0    0    0    0 -0.00000000000E+00 -0.00000000000E+00 -0.45593999997E+02  0.45594000000E+02  0.51100000000E-03 0. -1.
    9900012    2    1    2    0    0  0.10261615365E+02 -0.74904392530E+00  0.15646584474E+02  0.72461616943E+02  0.70000060768E+02 0.  0.
         12    1    1    2    0    0 -0.10261615365E+02  0.74904392530E+00 -0.15646584474E+02  0.18726383057E+02  0.00000000000E+00 0. -1.
         11    1    3    3    0    0  0.17204846408E+02  0.58713069563E+01 -0.18017662382E+02  0.25595217195E+02  0.51100000000E-03 0. -1.
        -11    1    3    3    0    0  0.90032307306E+01 -0.13899041597E+01 -0.15596039267E+00  0.91112195159E+01  0.51100000000E-03 0.  1.
        -12    1    3    3    0    0 -0.15946461773E+02 -0.52304467218E+01  0.33820207249E+02  0.37755180232E+02  0.00000000000E+00 0.  1.
</event>
<event>
 7    1  0.2886818E-013  0.7246157E+02  0.7816164E-02  0.1226708E+00
        -11   -1    0    0    0    0  0.00000000000E+00  0.00000000000E+00  0.45593999997E+02  0.45594000000E+02  0.51100000000E-03 0.  1.
         11   -1    0    0    0    0 -0.00000000000E+00 -0.00000000000E+00 -0.45593999997E+02  0.45594000000E+02  0.51100000000E-03 0. -1.
    9900012    2    1    2    0    0 -0.13763799628E+01  0.79896859192E+01  0.16880455721E+02  0.72461567125E+02  0.69999995871E+02 0.  0.
         12    1    1    2    0    0  0.13763799628E+01 -0.79896859192E+01 -0.16880455721E+02  0.18726432875E+02  0.00000000000E+00 0. -1.
         11    1    3    3    0    0 -0.21542597095E+01 -0.16234133645E+02  0.28744240902E+02  0.33082008938E+02  0.51100000000E-03 0. -1.
        -11    1    3    3    0    0 -0.89528841447E+01  0.23580975586E+01  0.45924572202E+01  0.10334670879E+02  0.51100000000E-03 0.  1.
        -12    1    3    3    0    0  0.97307638913E+01  0.21865722006E+02 -0.16456242401E+02  0.29044887307E+02  0.00000000000E+00 0.  1.
</event>
<event>
 7    1  0.2886818E-013  0.7246155E+02  0.7816164E-02  0.1226708E+00
        -11   -1    0    0    0    0  0.00000000000E+00  0.00000000000E+00  0.45593999997E+02  0.45594000000E+02  0.51100000000E-03 0.  1.
         11   -1    0    0    0    0 -0.00000000000E+00 -0.00000000000E+00 -0.45593999997E+02  0.45594000000E+02  0.51100000000E-03 0. -1.
    9900012    2    1    2    0    0 -0.14872317978E+02 -0.16186559922E+01 -0.11263831215E+02  0.72461553917E+02  0.69999978665E+02 0.  0.
         12    1    1    2    0    0  0.14872317978E+02  0.16186559922E+01  0.11263831215E+02  0.18726446083E+02  0.00000000000E+00 0. -1.
         11    1    3    3    0    0 -0.21224465083E+02  0.24977222143E+02 -0.16793628355E+02  0.36828867721E+02  0.51100000000E-03 0. -1.
        -11    1    3    3    0    0  0.60893063668E+01  0.12030721499E+01 -0.25068979025E+01  0.66941446041E+01  0.51100000000E-03 0.  1.
        -12    1    3    3    0    0  0.26284073760E+00 -0.27798950285E+02  0.80366950427E+01  0.28938541591E+02  0.00000000000E+00 0.  1.
</event>
<event>
 7    1  0.2886818E-013  0.7246159E+02  0.7816164E-02  0.1226708E+00
        -11   -1    0    0    0    0  0.00000000000E+00  0.00000000000E+00  0.45593999997E+02  0.45594000000E+02  0.51100000000E-03 0.  1.
         11   -1    0    0    0    0 -0.00000000000E+00 -0.00000000000E+00 -0.45593999997E+02  0.45594000000E+02  0.51100000000E-03 0. -1.
    9900012    2    1    2    0    0 -0.98813213254E+01  0.15191177603E+02 -0.47186903255E+01  0.72461590133E+02  0.70000025844E+02 0.  0.
         12    1    1    2    0    0  0.98813213254E+01 -0.15191177603E+02  0.47186903255E+01  0.18726409867E+02  0.00000000000E+00 0. -1.
         11    1    3    3    0    0 -0.10221877717E+02  0.11446686638E+02 -0.14848911540E+01  0.15418116650E+02  0.51100000000E-03 0. -1.
        -11    1    3    3    0    0 -0.14522096990E+01  0.24249972215E+02  0.15823487547E+02  0.28992289041E+02  0.51100000000E-03 0.  1.
        -12    1    3    3    0    0  0.17927660903E+01 -0.20505481250E+02 -0.19057286719E+02  0.28051184442E+02  0.00000000000E+00 0.  1.
</event>
<event>
 7    1  0.2886818E-013  0.7246157E+02  0.7816164E-02  0.1226708E+00
        -11   -1    0    0    0    0  0.00000000000E+00  0.00000000000E+00  0.45593999997E+02  0.45594000000E+02  0.51100000000E-03 0.  1.
         11   -1    0    0    0    0 -0.00000000000E+00 -0.00000000000E+00 -0.45593999997E+02  0.45594000000E+02  0.51100000000E-03 0. -1.
    9900012    2    1    2    0    0  0.18395498731E+02 -0.35029549690E+01  0.11938452962E+00  0.72461566284E+02  0.69999994776E+02 0.  0.
         12    1    1    2    0    0 -0.18395498731E+02  0.35029549690E+01 -0.11938452962E+00  0.18726433716E+02  0.00000000000E+00 0. -1.
         11    1    3    3    0    0  0.27128380512E+02  0.69668815003E+01  0.12940153124E+02  0.30853428175E+02  0.51100000000E-03 0. -1.
        -11    1    3    3    0    0 -0.63767849740E+01  0.13005029679E+02  0.54095948534E+00  0.14494372045E+02  0.51100000000E-03 0.  1.
         12    1    3    3    0    0 -0.23560968072E+01 -0.23474866148E+02 -0.13361728080E+02  0.27113766063E+02  0.00000000000E+00 0. -1.
</event>
<event>
 7    1  0.2886818E-013  0.7246167E+02  0.7816164E-02  0.1226708E+00
        -11   -1    0    0    0    0  0.00000000000E+00  0.00000000000E+00  0.45593999997E+02  0.45594000000E+02  0.51100000000E-03 0.  1.
         11   -1    0    0    0    0 -0.00000000000E+00 -0.00000000000E+00 -0.45593999997E+02  0.45594000000E+02  0.51100000000E-03 0. -1.
    9900012    2    1    2    0    0  0.10684748961E+02 -0.88809026619E+01  0.12555526054E+02  0.72461667552E+02  0.70000126696E+02 0.  0.
         12    1    1    2    0    0 -0.10684748961E+02  0.88809026619E+01 -0.12555526054E+02  0.18726332448E+02  0.00000000000E+00 0. -1.
         11    1    3    3    0    0  0.22342691239E+01 -0.10050713814E+02  0.11612283829E+02  0.15519469794E+02  0.51100000000E-03 0. -1.
        -11    1    3    3    0    0  0.30089239748E+01 -0.27109241065E+02 -0.44712731562E+01  0.27639769509E+02  0.51100000000E-03 0.  1.
         12    1    3    3    0    0  0.54415558626E+01  0.28279052217E+02  0.54145153819E+01  0.29302428250E+02  0.00000000000E+00 0. -1.
</event>
<event>
 7    1  0.2886818E-013  0.7246153E+02  0.7816164E-02  0.1226708E+00
        -11   -1    0    0    0    0  0.00000000000E+00  0.00000000000E+00  0.45593999997E+02  0.45594000000E+02  0.51100000000E-03 0. -1.
         11   -1    0    0    0    0 -0.00000000000E+00 -0.00000000000E+00 -0.45593999997E+02  0.45594000000E+02  0.51100000000E-03 0.  1.
    9900012    2    1    2    0    0 -0.10993476283E+01  0.33962981923E+01 -0.18383066189E+02  0.72461533993E+02  0.69999952711E+02 0.  0.
         12    1    1    2    0    0  0.10993476283E+01 -0.33962981923E+01  0.18383066189E+02  0.18726466007E+02  0.00000000000E+00 0. -1.
         11    1    3    3    0    0  0.16715168785E+01  0.17215830198E+00 -0.12493137699E+02  0.12605637508E+02  0.51100000000E-03 0. -1.
        -11    1    3    3    0    0 -0.26888886551E+02  0.10959502459E+02 -0.15318740917E+02  0.32829662466E+02  0.51100000000E-03 0.  1.
         12    1    3    3    0    0  0.24118022044E+02 -0.77353625691E+01  0.94288124281E+01  0.27026234018E+02  0.00000000000E+00 0. -1.
</event>
<event>
 7    1  0.2886818E-013  0.7246158E+02  0.7816164E-02  0.1226708E+00
        -11   -1    0    0    0    0  0.00000000000E+00  0.00000000000E+00  0.45593999997E+02  0.45594000000E+02  0.51100000000E-03 0.  1.
         11   -1    0    0    0    0 -0.00000000000E+00 -0.00000000000E+00 -0.45593999997E+02  0.45594000000E+02  0.51100000000E-03 0. -1.
    9900012    2    1    2    0    0  0.89261883491E+01  0.16374654086E+02  0.16949426169E+01  0.72461575745E+02  0.70000007101E+02 0.  0.
         12    1    1    2    0    0 -0.89261883491E+01 -0.16374654086E+02 -0.16949426169E+01  0.18726424255E+02  0.00000000000E+00 0. -1.
         11    1    3    3    0    0  0.92649636997E+01  0.21951074324E+01 -0.97422111100E+01  0.13622361270E+02  0.51100000000E-03 0. -1.
        -11    1    3    3    0    0 -0.20966068435E+01 -0.20027163146E+02 -0.51465437634E+01  0.20783886473E+02  0.51100000000E-03 0.  1.
        -12    1    3    3    0    0  0.17578314929E+01  0.34206709800E+02  0.16583697490E+02  0.38055328002E+02  0.00000000000E+00 0.  1.
</event>
<event>
 7    1  0.2886818E-013  0.7246159E+02  0.7816164E-02  0.1226708E+00
        -11   -1    0    0    0    0  0.00000000000E+00  0.00000000000E+00  0.45593999997E+02  0.45594000000E+02  0.51100000000E-03 0.  1.
         11   -1    0    0    0    0 -0.00000000000E+00 -0.00000000000E+00 -0.45593999997E+02  0.45594000000E+02  0.51100000000E-03 0. -1.
    9900012    2    1    2    0    0  0.16422191299E+02 -0.84656289444E+01  0.30533720682E+01  0.72461592937E+02  0.70000029497E+02 0.  0.
         12    1    1    2    0    0 -0.16422191299E+02  0.84656289444E+01 -0.30533720682E+01  0.18726407063E+02  0.00000000000E+00 0. -1.
         11    1    3    3    0    0 -0.10728616202E+02 -0.25521488438E+02  0.96232539620E+01  0.29309667258E+02  0.51100000000E-03 0. -1.
        -11    1    3    3    0    0  0.27811923142E+01 -0.58019889340E+01  0.46143915957E+01  0.79177469231E+01  0.51100000000E-03 0.  1.
         12    1    3    3    0    0  0.24369615187E+02  0.22857848428E+02 -0.11184273489E+02  0.35234178756E+02  0.00000000000E+00 0. -1.
</event>
<event>
 7    1  0.2886818E-013  0.7246159E+02  0.7816164E-02  0.1226708E+00
        -11   -1    0    0    0    0  0.00000000000E+00  0.00000000000E+00  0.45593999997E+02  0.45594000000E+02  0.51100000000E-03 0.  1.
         11   -1    0    0    0    0 -0.00000000000E+00 -0.00000000000E+00 -0.45593999997E+02  0.45594000000E+02  0.51100000000E-03 0. -1.
    9900012    2    1    2    0    0  0.15678576296E+02  0.51291531254E+01  0.88629870297E+01  0.72461588023E+02  0.70000023095E+02 0.  0.
         12    1    1    2    0    0 -0.15678576296E+02 -0.51291531254E+01 -0.88629870297E+01  0.18726411977E+02  0.00000000000E+00 0. -1.
         11    1    3    3    0    0  0.43458508984E+01 -0.54226661351E+01  0.20835699040E+02  0.21964017911E+02  0.51100000000E-03 0. -1.
        -11    1    3    3    0    0  0.15430921284E+02  0.27064360301E+02 -0.30965617949E+01  0.31307852455E+02  0.51100000000E-03 0.  1.
         12    1    3    3    0    0 -0.40981958865E+01 -0.16512541040E+02 -0.88761502151E+01  0.19189717657E+02  0.00000000000E+00 0. -1.
</event>
<event>
 7    1  0.2886818E-013  0.7246222E+02  0.7816164E-02  0.1226706E+00
        -11   -1    0    0    0    0  0.00000000000E+00  0.00000000000E+00  0.45593999997E+02  0.45594000000E+02  0.51100000000E-03 0. -1.
         11   -1    0    0    0    0 -0.00000000000E+00 -0.00000000000E+00 -0.45593999997E+02  0.45594000000E+02  0.51100000000E-03 0.  1.
    9900012    2    1    2    0    0  0.33214816817E+00  0.95613708146E+01 -0.16097345172E+02  0.72462224827E+02  0.70000852645E+02 0.  0.
         12    1    1    2    0    0 -0.33214816817E+00 -0.95613708146E+01  0.16097345172E+02  0.18725775173E+02  0.00000000000E+00 0. -1.
         11    1    3    3    0    0 -0.14096536830E+02  0.10512204428E+02  0.28248958099E+01  0.17810076618E+02  0.51100000000E-03 0. -1.
        -11    1    3    3    0    0  0.19828413577E+02  0.72197326307E+01  0.10552198768E+02  0.23593207144E+02  0.51100000000E-03 0.  1.
         12    1    3    3    0    0 -0.53997285789E+01 -0.81705662437E+01 -0.29474439750E+02  0.31058941064E+02  0.00000000000E+00 0. -1.
</event>
<event>
 7    1  0.2886818E-013  0.7246155E+02  0.7816164E-02  0.1226708E+00
        -11   -1    0    0    0    0  0.00000000000E+00  0.00000000000E+00  0.45593999997E+02  0.45594000000E+02  0.51100000000E-03 0. -1.
         11   -1    0    0    0    0 -0.00000000000E+00 -0.00000000000E+00 -0.45593999997E+02  0.45594000000E+02  0.51100000000E-03 0.  1.
    9900012    2    1    2    0    0  0.71800616591E+01 -0.16298051305E+02 -0.57879383281E+01  0.72461548338E+02  0.69999971397E+02 0.  0.
         12    1    1    2    0    0 -0.71800616591E+01  0.16298051305E+02  0.57879383281E+01  0.18726451662E+02  0.00000000000E+00 0. -1.
         11    1    3    3    0    0 -0.32980096597E+01 -0.21838322720E+02 -0.15130493046E+02  0.26771645953E+02  0.51100000000E-03 0. -1.
        -11    1    3    3    0    0  0.39797087326E+01 -0.18549189956E+02 -0.21198003430E+00  0.18972492335E+02  0.51100000000E-03 0.  1.
        -12    1    3    3    0    0  0.64983625861E+01  0.24089461371E+02  0.95545347523E+01  0.26717410050E+02  0.00000000000E+00 0.  1.
</event>
<event>
 7    1  0.2886818E-013  0.7246155E+02  0.7816164E-02  0.1226708E+00
        -11   -1    0    0    0    0  0.00000000000E+00  0.00000000000E+00  0.45593999997E+02  0.45594000000E+02  0.51100000000E-03 0. -1.
         11   -1    0    0    0    0 -0.00000000000E+00 -0.00000000000E+00 -0.45593999997E+02  0.45594000000E+02  0.51100000000E-03 0.  1.
    9900012    2    1    2    0    0  0.87272942952E+01 -0.92925311451E+01  0.13717261277E+02  0.72461546578E+02  0.69999969106E+02 0.  0.
         12    1    1    2    0    0 -0.87272942952E+01  0.92925311451E+01 -0.13717261277E+02  0.18726453422E+02  0.00000000000E+00 0. -1.
         11    1    3    3    0    0  0.15655711365E+02 -0.90423310558E+01  0.17689543125E+02  0.25293971327E+02  0.51100000000E-03 0. -1.
        -11    1    3    3    0    0  0.12517436517E+01 -0.13625345611E+02  0.16465631645E+02  0.21408734922E+02  0.51100000000E-03 0.  1.
        -12    1    3    3    0    0 -0.81801607217E+01  0.13375145522E+02 -0.20437913493E+02  0.25758840330E+02  0.00000000000E+00 0.  1.
</event>
<event>
 7    1  0.2886818E-013  0.7246154E+02  0.7816164E-02  0.1226708E+00
        -11   -1    0    0    0    0  0.00000000000E+00  0.00000000000E+00  0.45593999997E+02  0.45594000000E+02  0.51100000000E-03 0. -1.
         11   -1    0    0    0    0 -0.00000000000E+00 -0.00000000000E+00 -0.45593999997E+02  0.45594000000E+02  0.51100000000E-03 0.  1.
    9900012    2    1    2    0    0 -0.18456128489E+02  0.15045175011E+01  0.27907313549E+01  0.72461536554E+02  0.69999956047E+02 0.  0.
         12    1    1    2    0    0  0.18456128489E+02 -0.15045175011E+01 -0.27907313549E+01  0.18726463446E+02  0.00000000000E+00 0. -1.
         11    1    3    3    0    0 -0.59707185471E+01 -0.12811232445E+02  0.53337947130E+01  0.15107167935E+02  0.51100000000E-03 0. -1.
        -11    1    3    3    0    0 -0.23479208717E+02 -0.12895757963E+02 -0.69561302524E+01  0.27676010618E+02  0.51100000000E-03 0.  1.
        -12    1    3    3    0    0  0.10993798775E+02  0.27211507909E+02  0.44130668944E+01  0.29678358000E+02  0.00000000000E+00 0.  1.
</event>
<event>
 7    1  0.2886818E-013  0.7246157E+02  0.7816164E-02  0.1226708E+00
        -11   -1    0    0    0    0  0.00000000000E+00  0.00000000000E+00  0.45593999997E+02  0.45594000000E+02  0.51100000000E-03 0. -1.
         11   -1    0    0    0    0 -0.00000000000E+00 -0.00000000000E+00 -0.45593999997E+02  0.45594000000E+02  0.51100000000E-03 0.  1.
    9900012    2    1    2    0    0 -0.18334139954E+02  0.11582626964E+01  0.36327475638E+01  0.72461571745E+02  0.70000001889E+02 0.  0.
         12    1    1    2    0    0  0.18334139954E+02 -0.11582626964E+01 -0.36327475638E+01  0.18726428255E+02  0.00000000000E+00 0. -1.
         11    1    3    3    0    0  0.88040789952E+01 -0.24006435681E+01  0.11455827441E+01  0.91971330630E+01  0.51100000000E-03 0. -1.
        -11    1    3    3    0    0 -0.16407726198E+02  0.89855644359E+01 -0.26180398899E+02  0.32177121281E+02  0.51100000000E-03 0.  1.
         12    1    3    3    0    0 -0.10730492752E+02 -0.54266581714E+01  0.28667563718E+02  0.31087317400E+02  0.00000000000E+00 0. -1.
</event>
<event>
 7    1  0.2886818E-013  0.7246158E+02  0.7816164E-02  0.1226708E+00
        -11   -1    0    0    0    0  0.00000000000E+00  0.00000000000E+00  0.45593999997E+02  0.45594000000E+02  0.51100000000E-03 0. -1.
         11   -1    0    0    0    0 -0.00000000000E+00 -0.00000000000E+00 -0.45593999997E+02  0.45594000000E+02  0.51100000000E-03 0.  1.
    9900012    2    1    2    0    0 -0.15703948344E+01  0.66525290749E+01 -0.17434353241E+02  0.72461575997E+02  0.70000007428E+02 0.  0.
         12    1    1    2    0    0  0.15703948344E+01 -0.66525290749E+01  0.17434353241E+02  0.18726424003E+02  0.00000000000E+00 0. -1.
         11    1    3    3    0    0  0.17969622459E+02  0.10479729518E+02 -0.20375837377E+02  0.29118839455E+02  0.51100000000E-03 0. -1.
        -11    1    3    3    0    0 -0.18907534843E+02 -0.28495801470E+01 -0.15653536196E+02  0.24711296537E+02  0.51100000000E-03 0.  1.
         12    1    3    3    0    0 -0.63248245072E+00 -0.97762029648E+00  0.18595020332E+02  0.18631440005E+02  0.00000000000E+00 0. -1.
</event>
<event>
 7    1  0.2886818E-013  0.7246155E+02  0.7816164E-02  0.1226708E+00
        -11   -1    0    0    0    0  0.00000000000E+00  0.00000000000E+00  0.45593999997E+02  0.45594000000E+02  0.51100000000E-03 0.  1.
         11   -1    0    0    0    0 -0.00000000000E+00 -0.00000000000E+00 -0.45593999997E+02  0.45594000000E+02  0.51100000000E-03 0. -1.
    9900012    2    1    2    0    0  0.17074745952E+02 -0.20939732325E+01  0.73992146857E+01  0.72461546753E+02  0.69999969333E+02 0.  0.
         12    1    1    2    0    0 -0.17074745952E+02  0.20939732325E+01 -0.73992146857E+01  0.18726453247E+02  0.00000000000E+00 0. -1.
         11    1    3    3    0    0  0.93047559956E+01  0.75092623674E+00  0.89209385093E+01  0.12912223608E+02  0.51100000000E-03 0. -1.
        -11    1    3    3    0    0  0.26261915923E+01 -0.15337455547E+02  0.25193897147E+02  0.29611938110E+02  0.51100000000E-03 0.  1.
         12    1    3    3    0    0  0.51437983645E+01  0.12492556077E+02 -0.26715620970E+02  0.29937385036E+02  0.00000000000E+00 0. -1.
</event>
<event>
 7    1  0.2886818E-013  0.7246144E+02  0.7816164E-02  0.1226708E+00
        -11   -1    0    0    0    0  0.00000000000E+00  0.00000000000E+00  0.45593999997E+02  0.45594000000E+02  0.51100000000E-03 0.  1.
         11   -1    0    0    0    0 -0.00000000000E+00 -0.00000000000E+00 -0.45593999997E+02  0.45594000000E+02  0.51100000000E-03 0. -1.
    9900012    2    1    2    0    0 -0.95541583587E+01  0.61680740951E+01  0.14878074104E+02  0.72461436807E+02  0.69999826108E+02 0.  0.
         12    1    1    2    0    0  0.95541583587E+01 -0.61680740951E+01 -0.14878074104E+02  0.18726563193E+02  0.00000000000E+00 0. -1.
         11    1    3    3    0    0  0.13499208739E+02 -0.88439040430E+01  0.16199805797E+02  0.22866503524E+02  0.51100000000E-03 0. -1.
        -11    1    3    3    0    0 -0.74799130620E+00 -0.14457795128E+01  0.16539242300E+02  0.16619154777E+02  0.51100000000E-03 0.  1.
        -12    1    3    3    0    0 -0.22305375791E+02  0.16457757651E+02 -0.17860973993E+02  0.32975778506E+02  0.00000000000E+00 0.  1.
</event>
<event>
 7    1  0.2886818E-013  0.7246152E+02  0.7816164E-02  0.1226708E+00
        -11   -1    0    0    0    0  0.00000000000E+00  0.00000000000E+00  0.45593999997E+02  0.45594000000E+02  0.51100000000E-03 0. -1.
         11   -1    0    0    0    0 -0.00000000000E+00 -0.00000000000E+00 -0.45593999997E+02  0.45594000000E+02  0.51100000000E-03 0.  1.
    9900012    2    1    2    0    0 -0.53800265039E+01  0.15411394548E+02 -0.91774406039E+01  0.72461516530E+02  0.69999929963E+02 0.  0.
         12    1    1    2    0    0  0.53800265039E+01 -0.15411394548E+02  0.91774406039E+01  0.18726483470E+02  0.00000000000E+00 0. -1.
         11    1    3    3    0    0  0.44548831360E+01  0.79476342182E+01  0.69107638996E+01  0.11435450641E+02  0.51100000000E-03 0. -1.
        -11    1    3    3    0    0  0.15314787631E+02  0.23656926870E+02 -0.28816495705E+01  0.28328374708E+02  0.51100000000E-03 0.  1.
         12    1    3    3    0    0 -0.25149697271E+02 -0.16193166540E+02 -0.13206554933E+02  0.32697691181E+02  0.00000000000E+00 0. -1.
</event>
<event>
 7    1  0.2886818E-013  0.7246166E+02  0.7816164E-02  0.1226708E+00
        -11   -1    0    0    0    0  0.00000000000E+00  0.00000000000E+00  0.45593999997E+02  0.45594000000E+02  0.51100000000E-03 0.  1.
         11   -1    0    0    0    0 -0.00000000000E+00 -0.00000000000E+00 -0.45593999997E+02  0.45594000000E+02  0.51100000000E-03 0. -1.
    9900012    2    1    2    0    0 -0.17210465792E+02 -0.45216330214E+01  0.58335826377E+01  0.72461655339E+02  0.70000110787E+02 0.  0.
         12    1    1    2    0    0  0.17210465792E+02  0.45216330214E+01 -0.58335826377E+01  0.18726344661E+02  0.00000000000E+00 0. -1.
         11    1    3    3    0    0 -0.12035679218E+02  0.55505280876E+01 -0.16938715719E+02  0.21507813157E+02  0.51100000000E-03 0. -1.
        -11    1    3    3    0    0 -0.15560688880E+02  0.18751256306E+01 -0.70534662871E+01  0.17187277896E+02  0.51100000000E-03 0.  1.
        -12    1    3    3    0    0  0.10385902306E+02 -0.11947286740E+02  0.29825764644E+02  0.33766564287E+02  0.00000000000E+00 0.  1.
</event>
<event>
 7    1  0.2886818E-013  0.7246154E+02  0.7816164E-02  0.1226708E+00
        -11   -1    0    0    0    0  0.00000000000E+00  0.00000000000E+00  0.45593999997E+02  0.45594000000E+02  0.51100000000E-03 0.  1.
         11   -1    0    0    0    0 -0.00000000000E+00 -0.00000000000E+00 -0.45593999997E+02  0.45594000000E+02  0.51100000000E-03 0. -1.
    9900012    2    1    2    0    0  0.10035505578E+02  0.45846388230E+01  0.15131098743E+02  0.72461536519E+02  0.69999956001E+02 0.  0.
         12    1    1    2    0    0 -0.10035505578E+02 -0.45846388230E+01 -0.15131098743E+02  0.18726463481E+02  0.00000000000E+00 0. -1.
         11    1    3    3    0    0  0.28532350167E+01  0.10928896669E+02 -0.48499951779E+01  0.12292444263E+02  0.51100000000E-03 0. -1.
        -11    1    3    3    0    0 -0.14172764830E+02  0.15369379923E+02  0.21086455749E+02  0.29693833004E+02  0.51100000000E-03 0.  1.
         12    1    3    3    0    0  0.21355035391E+02 -0.21713637769E+02 -0.11053618286E+01  0.30475259253E+02  0.00000000000E+00 0. -1.
</event>
<event>
 7    1  0.2886818E-013  0.7246158E+02  0.7816164E-02  0.1226708E+00
        -11   -1    0    0    0    0  0.00000000000E+00  0.00000000000E+00  0.45593999997E+02  0.45594000000E+02  0.51100000000E-03 0. -1.
         11   -1    0    0    0    0 -0.00000000000E+00 -0.00000000000E+00 -0.45593999997E+02  0.45594000000E+02  0.51100000000E-03 0.  1.
    9900012    2    1    2    0    0 -0.11962740674E+02  0.72245756892E+01  0.12465044160E+02  0.72461575242E+02  0.70000006445E+02 0.  0.
         12    1    1    2    0    0  0.11962740674E+02 -0.72245756892E+01 -0.12465044160E+02  0.18726424758E+02  0.00000000000E+00 0. -1.
         11    1    3    3    0    0 -0.88464235370E+01  0.21786237235E+02  0.14930855492E+02  0.27853721264E+02  0.51100000000E-03 0. -1.
        -11    1    3    3    0    0  0.34118617989E+01  0.11171918902E+02 -0.11667136679E+02  0.16509834991E+02  0.51100000000E-03 0.  1.
        -12    1    3    3    0    0 -0.65281789365E+01 -0.25733580447E+02  0.92013253457E+01  0.28098018987E+02  0.00000000000E+00 0.  1.
</event>
<event>
 7    1  0.2886818E-013  0.7246154E+02  0.7816164E-02  0.1226708E+00
        -11   -1    0    0    0    0  0.00000000000E+00  0.00000000000E+00  0.45593999997E+02  0.45594000000E+02  0.51100000000E-03 0. -1.
         11   -1    0    0    0    0 -0.00000000000E+00 -0.00000000000E+00 -0.45593999997E+02  0.45594000000E+02  0.51100000000E-03 0.  1.
    9900012    2    1    2    0    0 -0.17272550583E+02 -0.19025791325E+00 -0.72320882834E+01  0.72461540040E+02  0.69999960588E+02 0.  0.
         12    1    1    2    0    0  0.17272550583E+02  0.19025791325E+00  0.72320882834E+01  0.18726459960E+02  0.00000000000E+00 0. -1.
         11    1    3    3    0    0 -0.28145059257E+02  0.10158480824E+02  0.54327291345E+01  0.30411406402E+02  0.51100000000E-03 0. -1.
        -11    1    3    3    0    0 -0.63645698932E+01 -0.19401835179E+02 -0.43401013433E+01  0.20875235044E+02  0.51100000000E-03 0.  1.
         12    1    3    3    0    0  0.17237078568E+02  0.90530964408E+01 -0.83247160746E+01  0.21174898593E+02  0.00000000000E+00 0. -1.
</event>
<event>
 7    1  0.2886818E-013  0.7246155E+02  0.7816164E-02  0.1226708E+00
        -11   -1    0    0    0    0  0.00000000000E+00  0.00000000000E+00  0.45593999997E+02  0.45594000000E+02  0.51100000000E-03 0.  1.
         11   -1    0    0    0    0 -0.00000000000E+00 -0.00000000000E+00 -0.45593999997E+02  0.45594000000E+02  0.51100000000E-03 0. -1.
    9900012    2    1    2    0    0 -0.11175446625E+02 -0.13956310112E+02 -0.55687223242E+01  0.72461551657E+02  0.69999975722E+02 0.  0.
         12    1    1    2    0    0  0.11175446625E+02  0.13956310112E+02  0.55687223242E+01  0.18726448343E+02  0.00000000000E+00 0. -1.
         11    1    3    3    0    0 -0.23907923911E+02  0.94324928635E+01 -0.72122797151E+01  0.26694151537E+02  0.51100000000E-03 0. -1.
        -11    1    3    3    0    0  0.13201291018E+02  0.47779341863E+01 -0.77943132446E+01  0.16057834812E+02  0.51100000000E-03 0.  1.
        -12    1    3    3    0    0 -0.46881373146E+00 -0.28166737162E+02  0.94378706354E+01  0.29709565308E+02  0.00000000000E+00 0.  1.
</event>
<event>
 7    1  0.2886818E-013  0.7246159E+02  0.7816164E-02  0.1226708E+00
        -11   -1    0    0    0    0  0.00000000000E+00  0.00000000000E+00  0.45593999997E+02  0.45594000000E+02  0.51100000000E-03 0. -1.
         11   -1    0    0    0    0 -0.00000000000E+00 -0.00000000000E+00 -0.45593999997E+02  0.45594000000E+02  0.51100000000E-03 0.  1.
    9900012    2    1    2    0    0 -0.44364699083E+01  0.17943041288E+02 -0.30072422279E+01  0.72461588125E+02  0.70000023228E+02 0.  0.
         12    1    1    2    0    0  0.44364699083E+01 -0.17943041288E+02  0.30072422279E+01  0.18726411875E+02  0.00000000000E+00 0. -1.
         11    1    3    3    0    0 -0.25456361550E+02  0.16219078047E+02 -0.16637325891E+02  0.34465714111E+02  0.51100000000E-03 0. -1.
        -11    1    3    3    0    0  0.26068277396E+01  0.98514504113E+01 -0.42810515875E+01  0.11053236134E+02  0.51100000000E-03 0.  1.
        -12    1    3    3    0    0  0.18413063903E+02 -0.81274871708E+01  0.17911135251E+02  0.26942637880E+02  0.00000000000E+00 0.  1.
</event>
<event>
 7    1  0.2886818E-013  0.7246151E+02  0.7816164E-02  0.1226708E+00
        -11   -1    0    0    0    0  0.00000000000E+00  0.00000000000E+00  0.45593999997E+02  0.45594000000E+02  0.51100000000E-03 0.  1.
         11   -1    0    0    0    0 -0.00000000000E+00 -0.00000000000E+00 -0.45593999997E+02  0.45594000000E+02  0.51100000000E-03 0. -1.
    9900012    2    1    2    0    0 -0.58057659924E+01  0.17733359445E+02  0.15819268396E+01  0.72461509446E+02  0.69999920733E+02 0.  0.
         12    1    1    2    0    0  0.58057659924E+01 -0.17733359445E+02 -0.15819268396E+01  0.18726490554E+02  0.00000000000E+00 0. -1.
         11    1    3    3    0    0 -0.82615140836E+01  0.19581233883E+02  0.67492806439E+01  0.22298657467E+02  0.51100000000E-03 0. -1.
        -11    1    3    3    0    0  0.75970864376E+01 -0.51830994072E+01  0.21191433798E+02  0.23101019642E+02  0.51100000000E-03 0.  1.
         12    1    3    3    0    0 -0.51413383465E+01  0.33352249687E+01 -0.26358787602E+02  0.27061832337E+02  0.00000000000E+00 0. -1.
</event>
<event>
 7    1  0.2886818E-013  0.7246158E+02  0.7816164E-02  0.1226708E+00
        -11   -1    0    0    0    0  0.00000000000E+00  0.00000000000E+00  0.45593999997E+02  0.45594000000E+02  0.51100000000E-03 0.  1.
         11   -1    0    0    0    0 -0.00000000000E+00 -0.00000000000E+00 -0.45593999997E+02  0.45594000000E+02  0.51100000000E-03 0. -1.
    9900012    2    1    2    0    0  0.16336983638E+02 -0.80312177293E+01 -0.43910438349E+01  0.72461581267E+02  0.70000014294E+02 0.  0.
         12    1    1    2    0    0 -0.16336983638E+02  0.80312177293E+01  0.43910438349E+01  0.18726418733E+02  0.00000000000E+00 0. -1.
         11    1    3    3    0    0  0.15983316519E+02 -0.11461943181E+02  0.89662378810E+00  0.19688740003E+02  0.51100000000E-03 0. -1.
        -11    1    3    3    0    0  0.21757923912E+02 -0.51518929614E+01  0.10624089050E+02  0.24755212026E+02  0.51100000000E-03 0.  1.
         12    1    3    3    0    0 -0.21404256793E+02  0.85826184130E+01 -0.15911756673E+02  0.28017629238E+02  0.00000000000E+00 0. -1.
</event>
<event>
 7    1  0.2886818E-013  0.7246093E+02  0.7816164E-02  0.1226710E+00
        -11   -1    0    0    0    0  0.00000000000E+00  0.00000000000E+00  0.45593999997E+02  0.45594000000E+02  0.51100000000E-03 0.  1.
         11   -1    0    0    0    0 -0.00000000000E+00 -0.00000000000E+00 -0.45593999997E+02  0.45594000000E+02  0.51100000000E-03 0. -1.
    9900012    2    1    2    0    0 -0.92513736727E+01  0.15335769759E+02 -0.54707758618E+01  0.72460930355E+02  0.69999166356E+02 0.  0.
         12    1    1    2    0    0  0.92513736727E+01 -0.15335769759E+02  0.54707758618E+01  0.18727069645E+02  0.00000000000E+00 0. -1.
         11    1    3    3    0    0 -0.65113337526E+00  0.61425624239E+01 -0.31286184921E+01  0.69241101764E+01  0.51100000000E-03 0. -1.
        -11    1    3    3    0    0  0.24123694185E+02  0.19651061844E+02 -0.20354574465E+01  0.31181083048E+02  0.51100000000E-03 0.  1.
         12    1    3    3    0    0 -0.32723934483E+02 -0.10457854509E+02 -0.30669992321E+00  0.34355737131E+02  0.00000000000E+00 0. -1.
</event>
<event>
 7    1  0.2886818E-013  0.7246155E+02  0.7816164E-02  0.1226708E+00
        -11   -1    0    0    0    0  0.00000000000E+00  0.00000000000E+00  0.45593999997E+02  0.45594000000E+02  0.51100000000E-03 0.  1.
         11   -1    0    0    0    0 -0.00000000000E+00 -0.00000000000E+00 -0.45593999997E+02  0.45594000000E+02  0.51100000000E-03 0. -1.
    9900012    2    1    2    0    0  0.32450670801E+01 -0.32858879522E+01  0.18148070534E+02  0.72461548545E+02  0.69999971668E+02 0.  0.
         12    1    1    2    0    0 -0.32450670801E+01  0.32858879522E+01 -0.18148070534E+02  0.18726451455E+02  0.00000000000E+00 0. -1.
         11    1    3    3    0    0 -0.14560397699E+02  0.47018667676E+01 -0.92852100535E+01  0.17897705391E+02  0.51100000000E-03 0. -1.
        -11    1    3    3    0    0 -0.61846652560E+01  0.12993766843E+02  0.13669361783E+02  0.19847909535E+02  0.51100000000E-03 0.  1.
         12    1    3    3    0    0  0.23990130035E+02 -0.20981521563E+02  0.13763918804E+02  0.34715933619E+02  0.00000000000E+00 0. -1.
</event>
<event>
 7    1  0.2886818E-013  0.7246156E+02  0.7816164E-02  0.1226708E+00
        -11   -1    0    0    0    0  0.00000000000E+00  0.00000000000E+00  0.45593999997E+02  0.45594000000E+02  0.51100000000E-03 0. -1.
         11   -1    0    0    0    0 -0.00000000000E+00 -0.00000000000E+00 -0.45593999997E+02  0.45594000000E+02  0.51100000000E-03 0.  1.
    9900012    2    1    2    0    0  0.60726462580E+01  0.53115841821E+01 -0.16899390877E+02  0.72461564912E+02  0.69999992988E+02 0.  0.
         12    1    1    2    0    0 -0.60726462580E+01 -0.53115841821E+01  0.16899390877E+02  0.18726435088E+02  0.00000000000E+00 0. -1.
         11    1    3    3    0    0 -0.12930607690E+01  0.90727800447E+01 -0.12005403810E+02  0.15103544776E+02  0.51100000000E-03 0. -1.
        -11    1    3    3    0    0 -0.12127897383E+02  0.21480127320E+02 -0.62148542408E+01  0.25438281745E+02  0.51100000000E-03 0.  1.
         12    1    3    3    0    0  0.19493604410E+02 -0.25241323183E+02  0.13208671738E+01  0.31919738392E+02  0.00000000000E+00 0. -1.
</event>
<event>
 7    1  0.2886818E-013  0.7246162E+02  0.7816164E-02  0.1226708E+00
        -11   -1    0    0    0    0  0.00000000000E+00  0.00000000000E+00  0.45593999997E+02  0.45594000000E+02  0.51100000000E-03 0.  1.
         11   -1    0    0    0    0 -0.00000000000E+00 -0.00000000000E+00 -0.45593999997E+02  0.45594000000E+02  0.51100000000E-03 0. -1.
    9900012    2    1    2    0    0  0.10015147265E+02  0.63112245427E+01  0.14510091536E+02  0.72461615235E+02  0.70000058544E+02 0.  0.
         12    1    1    2    0    0 -0.10015147265E+02 -0.63112245427E+01 -0.14510091536E+02  0.18726384765E+02  0.00000000000E+00 0. -1.
         11    1    3    3    0    0 -0.31175340100E+01  0.12699272178E+01 -0.12847792318E+02  0.13281472100E+02  0.51100000000E-03 0. -1.
        -11    1    3    3    0    0 -0.17552268754E+02 -0.48195822842E+01  0.22831858376E+01  0.18344575482E+02  0.51100000000E-03 0.  1.
        -12    1    3    3    0    0  0.30684950028E+02  0.98608796091E+01  0.25074698017E+02  0.40835567653E+02  0.00000000000E+00 0.  1.
</event>
<event>
 7    1  0.2886818E-013  0.7246157E+02  0.7816164E-02  0.1226708E+00
        -11   -1    0    0    0    0  0.00000000000E+00  0.00000000000E+00  0.45593999997E+02  0.45594000000E+02  0.51100000000E-03 0.  1.
         11   -1    0    0    0    0 -0.00000000000E+00 -0.00000000000E+00 -0.45593999997E+02  0.45594000000E+02  0.51100000000E-03 0. -1.
    9900012    2    1    2    0    0 -0.41460690662E+01 -0.16977551608E+01  0.18182599855E+02  0.72461569513E+02  0.69999998982E+02 0.  0.
         12    1    1    2    0    0  0.41460690662E+01  0.16977551608E+01 -0.18182599855E+02  0.18726430487E+02  0.00000000000E+00 0. -1.
         11    1    3    3    0    0  0.20743521425E+02 -0.36249936981E+01 -0.89220272264E+01  0.22869998480E+02  0.51100000000E-03 0. -1.
        -11    1    3    3    0    0  0.72788851850E+01  0.51334251376E+01  0.83965690497E+01  0.12240775925E+02  0.51100000000E-03 0.  1.
         12    1    3    3    0    0 -0.32168475676E+02 -0.32061866004E+01  0.18708058032E+02  0.37350795107E+02  0.00000000000E+00 0. -1.
</event>
<event>
 7    1  0.2886818E-013  0.7246216E+02  0.7816164E-02  0.1226706E+00
        -11   -1    0    0    0    0  0.00000000000E+00  0.00000000000E+00  0.45593999997E+02  0.45594000000E+02  0.51100000000E-03 0.  1.
         11   -1    0    0    0    0 -0.00000000000E+00 -0.00000000000E+00 -0.45593999997E+02  0.45594000000E+02  0.51100000000E-03 0. -1.
    9900012    2    1    2    0    0 -0.14151981256E+02 -0.71995607538E+01  0.99269749658E+01  0.72462160086E+02  0.70000768308E+02 0.  0.
         12    1    1    2    0    0  0.14151981256E+02  0.71995607538E+01 -0.99269749658E+01  0.18725839914E+02  0.00000000000E+00 0. -1.
         11    1    3    3    0    0 -0.19333501860E+02 -0.21211925690E+02  0.17052613294E+02  0.33384453060E+02  0.51100000000E-03 0. -1.
        -11    1    3    3    0    0 -0.13947818648E+02  0.10060490881E+01  0.21629447619E+01  0.14150339576E+02  0.51100000000E-03 0.  1.
         12    1    3    3    0    0  0.19129339252E+02  0.13006315848E+02 -0.92885830906E+01  0.24927367450E+02  0.00000000000E+00 0. -1.
</event>
<event>
 7    1  0.2886818E-013  0.7246157E+02  0.7816164E-02  0.1226708E+00
        -11   -1    0    0    0    0  0.00000000000E+00  0.00000000000E+00  0.45593999997E+02  0.45594000000E+02  0.51100000000E-03 0. -1.
         11   -1    0    0    0    0 -0.00000000000E+00 -0.00000000000E+00 -0.45593999997E+02  0.45594000000E+02  0.51100000000E-03 0.  1.
    9900012    2    1    2    0    0  0.11161174417E+02 -0.14302676700E+02  0.46412053786E+01  0.72461570481E+02  0.70000000243E+02 0.  0.
         12    1    1    2    0    0 -0.11161174417E+02  0.14302676700E+02 -0.46412053786E+01  0.18726429519E+02  0.00000000000E+00 0. -1.
         11    1    3    3    0    0  0.73663488128E+00  0.16716501327E+02 -0.52324964605E+01  0.17531773072E+02  0.51100000000E-03 0. -1.
        -11    1    3    3    0    0  0.23960978692E+02 -0.48420111575E+01  0.26587393569E+01  0.24589478790E+02  0.51100000000E-03 0.  1.
         12    1    3    3    0    0 -0.13536439156E+02 -0.26177166870E+02  0.72149624822E+01  0.30340318620E+02  0.00000000000E+00 0. -1.
</event>
<event>
 7    1  0.2886818E-013  0.7246156E+02  0.7816164E-02  0.1226708E+00
        -11   -1    0    0    0    0  0.00000000000E+00  0.00000000000E+00  0.45593999997E+02  0.45594000000E+02  0.51100000000E-03 0.  1.
         11   -1    0    0    0    0 -0.00000000000E+00 -0.00000000000E+00 -0.45593999997E+02  0.45594000000E+02  0.51100000000E-03 0. -1.
    9900012    2    1    2    0    0 -0.11750892291E+02  0.14246015458E+02  0.31059583594E+01  0.72461564050E+02  0.69999991866E+02 0.  0.
         12    1    1    2    0    0  0.11750892291E+02 -0.14246015458E+02 -0.31059583594E+01  0.18726435950E+02  0.00000000000E+00 0. -1.
         11    1    3    3    0    0 -0.51197230397E+01 -0.15293487352E+02 -0.63327732166E+01  0.17326463466E+02  0.51100000000E-03 0. -1.
        -11    1    3    3    0    0 -0.56928996178E+01  0.53806952090E+01  0.25123257350E+02  0.26316136630E+02  0.51100000000E-03 0.  1.
        -12    1    3    3    0    0 -0.93826963321E+00  0.24158807601E+02 -0.15684525774E+02  0.28818963953E+02  0.00000000000E+00 0.  1.
</event>
<event>
 7    1  0.2886818E-013  0.7246157E+02  0.7816164E-02  0.1226708E+00
        -11   -1    0    0    0    0  0.00000000000E+00  0.00000000000E+00  0.45593999997E+02  0.45594000000E+02  0.51100000000E-03 0. -1.
         11   -1    0    0    0    0 -0.00000000000E+00 -0.00000000000E+00 -0.45593999997E+02  0.45594000000E+02  0.51100000000E-03 0.  1.
    9900012    2    1    2    0    0  0.86122090422E+01  0.14110493392E+02 -0.87978904946E+01  0.72461573606E+02  0.70000004313E+02 0.  0.
         12    1    1    2    0    0 -0.86122090422E+01 -0.14110493392E+02  0.87978904946E+01  0.18726426394E+02  0.00000000000E+00 0. -1.
         11    1    3    3    0    0  0.31767596599E+02 -0.57560343972E+01  0.27528976966E+00  0.32286032745E+02  0.51100000000E-03 0. -1.
        -11    1    3    3    0    0  0.34751242926E+01  0.65829996396E+01 -0.72011585602E+01  0.10357077675E+02  0.51100000000E-03 0.  1.
        -12    1    3    3    0    0 -0.26630511850E+02  0.13283528150E+02 -0.18720217040E+01  0.29818463185E+02  0.00000000000E+00 0.  1.
</event>
<event>
 7    1  0.2886818E-013  0.7246094E+02  0.7816164E-02  0.1226710E+00
        -11   -1    0    0    0    0  0.00000000000E+00  0.00000000000E+00  0.45593999997E+02  0.45594000000E+02  0.51100000000E-03 0.  1.
         11   -1    0    0    0    0 -0.00000000000E+00 -0.00000000000E+00 -0.45593999997E+02  0.45594000000E+02  0.51100000000E-03 0. -1.
    9900012    2    1    2    0    0  0.17825104973E+02 -0.55356304001E+01  0.15248360994E+01  0.72460942133E+02  0.69999181698E+02 0.  0.
         12    1    1    2    0    0 -0.17825104973E+02  0.55356304001E+01 -0.15248360994E+01  0.18727057867E+02  0.00000000000E+00 0. -1.
         11    1    3    3    0    0  0.79873150305E+01 -0.14091692243E+02  0.25638459602E+02  0.30326615418E+02  0.51100000000E-03 0. -1.
        -11    1    3    3    0    0 -0.82311886113E+01 -0.11515250227E+01  0.23641796552E+01  0.86410544227E+01  0.51100000000E-03 0.  1.
         12    1    3    3    0    0  0.18068978554E+02  0.97075868657E+01 -0.26477803158E+02  0.33493272292E+02  0.00000000000E+00 0. -1.
</event>
<event>
 7    1  0.2886818E-013  0.7246157E+02  0.7816164E-02  0.1226708E+00
        -11   -1    0    0    0    0  0.00000000000E+00  0.00000000000E+00  0.45593999997E+02  0.45594000000E+02  0.51100000000E-03 0.  1.
         11   -1    0    0    0    0 -0.00000000000E+00 -0.00000000000E+00 -0.45593999997E+02  0.45594000000E+02  0.51100000000E-03 0. -1.
    9900012    2    1    2    0    0 -0.10226345600E+02 -0.83426187723E+01  0.13285392501E+02  0.72461572519E+02  0.70000002898E+02 0.  0.
         12    1    1    2    0    0  0.10226345600E+02  0.83426187723E+01 -0.13285392501E+02  0.18726427481E+02  0.00000000000E+00 0. -1.
         11    1    3    3    0    0 -0.98443817673E+01  0.11389268797E+02  0.13916454515E+02  0.20501097596E+02  0.51100000000E-03 0. -1.
        -11    1    3    3    0    0  0.11529650300E+00 -0.10534376755E+01  0.22331277342E+02  0.22356407855E+02  0.51100000000E-03 0.  1.
         12    1    3    3    0    0 -0.49726033556E+00 -0.18678449893E+02 -0.22962339356E+02  0.29604067068E+02  0.00000000000E+00 0. -1.
</event>
<event>
 7    1  0.2886818E-013  0.7246144E+02  0.7816164E-02  0.1226708E+00
        -11   -1    0    0    0    0  0.00000000000E+00  0.00000000000E+00  0.45593999997E+02  0.45594000000E+02  0.51100000000E-03 0.  1.
         11   -1    0    0    0    0 -0.00000000000E+00 -0.00000000000E+00 -0.45593999997E+02  0.45594000000E+02  0.51100000000E-03 0. -1.
    9900012    2    1    2    0    0  0.15316977699E+02 -0.87826356137E+01  0.62401421664E+01  0.72461444833E+02  0.69999836564E+02 0.  0.
         12    1    1    2    0    0 -0.15316977699E+02  0.87826356137E+01 -0.62401421664E+01  0.18726555167E+02  0.00000000000E+00 0. -1.
         11    1    3    3    0    0  0.80295244272E+01  0.31260693211E+01  0.11435717859E+02  0.14318561909E+02  0.51100000000E-03 0. -1.
        -11    1    3    3    0    0  0.78779894973E+01 -0.32480831125E+02  0.71010203418E+01  0.34168576196E+02  0.51100000000E-03 0.  1.
         12    1    3    3    0    0 -0.59053622548E+00  0.20572126191E+02 -0.12296596035E+02  0.23974306728E+02  0.00000000000E+00 0. -1.
</event>
<event>
 7    1  0.2886818E-013  0.7246110E+02  0.7816164E-02  0.1226709E+00
        -11   -1    0    0    0    0  0.00000000000E+00  0.00000000000E+00  0.45593999997E+02  0.45594000000E+02  0.51100000000E-03 0.  1.
         11   -1    0    0    0    0 -0.00000000000E+00 -0.00000000000E+00 -0.45593999997E+02  0.45594000000E+02  0.51100000000E-03 0. -1.
    9900012    2    1    2    0    0 -0.47741636355E+01 -0.15247823645E+02  0.97677031060E+01  0.72461099875E+02  0.69999387189E+02 0.  0.
         12    1    1    2    0    0  0.47741636355E+01  0.15247823645E+02 -0.97677031060E+01  0.18726900125E+02  0.00000000000E+00 0. -1.
         11    1    3    3    0    0 -0.23684049063E+01  0.12241218645E+02 -0.35575393200E+01  0.12965834412E+02  0.51100000000E-03 0. -1.
        -11    1    3    3    0    0 -0.13148927531E+02 -0.15153874420E+02  0.30029844143E+02  0.36115450221E+02  0.51100000000E-03 0.  1.
         12    1    3    3    0    0  0.10743168801E+02 -0.12335167869E+02 -0.16704601717E+02  0.23379815243E+02  0.00000000000E+00 0. -1.
</event>
<event>
 7    1  0.2886818E-013  0.7246156E+02  0.7816164E-02  0.1226708E+00
        -11   -1    0    0    0    0  0.00000000000E+00  0.00000000000E+00  0.45593999997E+02  0.45594000000E+02  0.51100000000E-03 0.  1.
         11   -1    0    0    0    0 -0.00000000000E+00 -0.00000000000E+00 -0.45593999997E+02  0.45594000000E+02  0.51100000000E-03 0. -1.
    9900012    2    1    2    0    0  0.12763015476E+02 -0.13480933769E+02  0.24595421959E+01  0.72461561814E+02  0.69999988953E+02 0.  0.
         12    1    1    2    0    0 -0.12763015476E+02  0.13480933769E+02 -0.24595421959E+01  0.18726438186E+02  0.00000000000E+00 0. -1.
         11    1    3    3    0    0  0.18431522619E+02 -0.18898860618E+02 -0.64874370858E+01  0.27184090916E+02  0.51100000000E-03 0. -1.
        -11    1    3    3    0    0 -0.23106110192E+02  0.47825989874E+01  0.13578736741E+02  0.27224027494E+02  0.51100000000E-03 0.  1.
         12    1    3    3    0    0  0.17437603049E+02  0.63532786168E+00 -0.46317574589E+01  0.18053443404E+02  0.00000000000E+00 0. -1.
</event>
<event>
 7    1  0.2886818E-013  0.7246159E+02  0.7816164E-02  0.1226708E+00
        -11   -1    0    0    0    0  0.00000000000E+00  0.00000000000E+00  0.45593999997E+02  0.45594000000E+02  0.51100000000E-03 0.  1.
         11   -1    0    0    0    0 -0.00000000000E+00 -0.00000000000E+00 -0.45593999997E+02  0.45594000000E+02  0.51100000000E-03 0. -1.
    9900012    2    1    2    0    0 -0.74865295505E+01  0.43045007047E+01  0.16616303253E+02  0.72461591246E+02  0.70000027293E+02 0.  0.
         12    1    1    2    0    0  0.74865295505E+01 -0.43045007047E+01 -0.16616303253E+02  0.18726408754E+02  0.00000000000E+00 0. -1.
         11    1    3    3    0    0  0.73352484163E+01  0.11172000903E+02 -0.21065125401E+02  0.24947123721E+02  0.51100000000E-03 0. -1.
        -11    1    3    3    0    0 -0.41836978317E+01  0.25354128113E+01 -0.20637248305E+01  0.53094826591E+01  0.51100000000E-03 0.  1.
        -12    1    3    3    0    0 -0.10638080135E+02 -0.94029130099E+01  0.39745153485E+02  0.42204984866E+02  0.00000000000E+00 0.  1.
</event>
<event>
 7    1  0.2886818E-013  0.7246158E+02  0.7816164E-02  0.1226708E+00
        -11   -1    0    0    0    0  0.00000000000E+00  0.00000000000E+00  0.45593999997E+02  0.45594000000E+02  0.51100000000E-03 0. -1.
         11   -1    0    0    0    0 -0.00000000000E+00 -0.00000000000E+00 -0.45593999997E+02  0.45594000000E+02  0.51100000000E-03 0.  1.
    9900012    2    1    2    0    0  0.58794600187E+01  0.16917740746E+02  0.54681763082E+01  0.72461576043E+02  0.70000007489E+02 0.  0.
         12    1    1    2    0    0 -0.58794600187E+01 -0.16917740746E+02 -0.54681763082E+01  0.18726423957E+02  0.00000000000E+00 0. -1.
         11    1    3    3    0    0  0.16882835336E+02 -0.15960487282E+02 -0.35817201754E+01  0.23507360613E+02  0.51100000000E-03 0. -1.
        -11    1    3    3    0    0 -0.11847249382E+02  0.18697117051E+01 -0.71453470331E+01  0.13960985792E+02  0.51100000000E-03 0.  1.
        -12    1    3    3    0    0  0.84387406452E+00  0.31008516323E+02  0.16195243517E+02  0.34993229639E+02  0.00000000000E+00 0.  1.
</event>
<event>
 7    1  0.2886818E-013  0.7246160E+02  0.7816164E-02  0.1226708E+00
        -11   -1    0    0    0    0  0.00000000000E+00  0.00000000000E+00  0.45593999997E+02  0.45594000000E+02  0.51100000000E-03 0.  1.
         11   -1    0    0    0    0 -0.00000000000E+00 -0.00000000000E+00 -0.45593999997E+02  0.45594000000E+02  0.51100000000E-03 0. -1.
    9900012    2    1    2    0    0  0.35825209363E+01  0.31114774953E+00  0.18377884099E+02  0.72461604374E+02  0.70000044396E+02 0.  0.
         12    1    1    2    0    0 -0.35825209363E+01 -0.31114774953E+00 -0.18377884099E+02  0.18726395626E+02  0.00000000000E+00 0. -1.
         11    1    3    3    0    0  0.12241427944E+02  0.17266946534E+02  0.50510568160E+01  0.21760357900E+02  0.51100000000E-03 0. -1.
        -11    1    3    3    0    0  0.18417042274E+02 -0.69394544430E+01  0.84701645821E+01  0.21426319385E+02  0.51100000000E-03 0.  1.
        -12    1    3    3    0    0 -0.27075949282E+02 -0.10016344342E+02  0.48566627006E+01  0.29274927089E+02  0.00000000000E+00 0.  1.
</event>
<event>
 7    1  0.2886818E-013  0.7246165E+02  0.7816164E-02  0.1226708E+00
        -11   -1    0    0    0    0  0.00000000000E+00  0.00000000000E+00  0.45593999997E+02  0.45594000000E+02  0.51100000000E-03 0. -1.
         11   -1    0    0    0    0 -0.00000000000E+00 -0.00000000000E+00 -0.45593999997E+02  0.45594000000E+02  0.51100000000E-03 0.  1.
    9900012    2    1    2    0    0 -0.98341496561E+01 -0.15841620008E+02  0.17345875641E+01  0.72461649102E+02  0.70000102661E+02 0.  0.
         12    1    1    2    0    0  0.98341496561E+01  0.15841620008E+02 -0.17345875641E+01  0.18726350898E+02  0.00000000000E+00 0. -1.
         11    1    3    3    0    0  0.14948442721E+02 -0.34433423972E+01  0.12158414653E+02  0.19573951920E+02  0.51100000000E-03 0. -1.
        -11    1    3    3    0    0  0.90069050584E+01  0.61348188068E+01  0.41845308060E+01  0.11673501568E+02  0.51100000000E-03 0.  1.
        -12    1    3    3    0    0 -0.33789497435E+02 -0.18533096418E+02 -0.14608357894E+02  0.41214195614E+02  0.00000000000E+00 0.  1.
</event>
<event>
 7    1  0.2886818E-013  0.7246187E+02  0.7816164E-02  0.1226707E+00
        -11   -1    0    0    0    0  0.00000000000E+00  0.00000000000E+00  0.45593999997E+02  0.45594000000E+02  0.51100000000E-03 0.  1.
         11   -1    0    0    0    0 -0.00000000000E+00 -0.00000000000E+00 -0.45593999997E+02  0.45594000000E+02  0.51100000000E-03 0. -1.
    9900012    2    1    2    0    0  0.18124648775E+02  0.35810008929E+01 -0.30563548754E+01  0.72461874781E+02  0.70000396649E+02 0.  0.
         12    1    1    2    0    0 -0.18124648775E+02 -0.35810008929E+01  0.30563548754E+01  0.18726125219E+02  0.00000000000E+00 0. -1.
         11    1    3    3    0    0  0.90285568790E+01  0.13635288066E+02 -0.66570125336E+01  0.17656492746E+02  0.51100000000E-03 0. -1.
        -11    1    3    3    0    0  0.26638894351E+02 -0.97888127056E+01  0.16682383663E+02  0.32920411166E+02  0.51100000000E-03 0.  1.
         12    1    3    3    0    0 -0.17542802455E+02 -0.26547446762E+00 -0.13081726004E+02  0.21884970868E+02  0.00000000000E+00 0. -1.
</event>
<event>
 7    1  0.2886818E-013  0.7246153E+02  0.7816164E-02  0.1226708E+00
        -11   -1    0    0    0    0  0.00000000000E+00  0.00000000000E+00  0.45593999997E+02  0.45594000000E+02  0.51100000000E-03 0.  1.
         11   -1    0    0    0    0 -0.00000000000E+00 -0.00000000000E+00 -0.45593999997E+02  0.45594000000E+02  0.51100000000E-03 0. -1.
    9900012    2    1    2    0    0  0.12655507318E+02 -0.76380132721E+01  0.11496941472E+02  0.72461527416E+02  0.69999944144E+02 0.  0.
         12    1    1    2    0    0 -0.12655507318E+02  0.76380132721E+01 -0.11496941472E+02  0.18726472584E+02  0.00000000000E+00 0. -1.
         11    1    3    3    0    0 -0.61666995983E+01  0.14761611087E+02 -0.85183733426E+01  0.18124459454E+02  0.51100000000E-03 0. -1.
        -11    1    3    3    0    0 -0.23068256094E+01 -0.26591733430E+02  0.29472530554E+01  0.26853827140E+02  0.51100000000E-03 0.  1.
        -12    1    3    3    0    0  0.21129032525E+02  0.41921090711E+01  0.17068061759E+02  0.27483240823E+02  0.00000000000E+00 0.  1.
</event>
<event>
 7    1  0.2886818E-013  0.7246162E+02  0.7816164E-02  0.1226708E+00
        -11   -1    0    0    0    0  0.00000000000E+00  0.00000000000E+00  0.45593999997E+02  0.45594000000E+02  0.51100000000E-03 0.  1.
         11   -1    0    0    0    0 -0.00000000000E+00 -0.00000000000E+00 -0.45593999997E+02  0.45594000000E+02  0.51100000000E-03 0. -1.
    9900012    2    1    2    0    0 -0.96107462213E+01  0.72167620721E+01  0.14360683097E+02  0.72461619764E+02  0.70000064443E+02 0.  0.
         12    1    1    2    0    0  0.96107462213E+01 -0.72167620721E+01 -0.14360683097E+02  0.18726380236E+02  0.00000000000E+00 0. -1.
         11    1    3    3    0    0  0.20068846006E+02  0.94634907819E+01  0.75123440344E+01  0.23425446654E+02  0.51100000000E-03 0. -1.
        -11    1    3    3    0    0  0.56467084973E+01 -0.33096002608E+01  0.11656472490E+02  0.13368325322E+02  0.51100000000E-03 0.  1.
        -12    1    3    3    0    0 -0.35326300724E+02  0.10628715510E+01 -0.48081334268E+01  0.35667847788E+02  0.00000000000E+00 0.  1.
</event>
<event>
 7    1  0.2886818E-013  0.7246157E+02  0.7816164E-02  0.1226708E+00
        -11   -1    0    0    0    0  0.00000000000E+00  0.00000000000E+00  0.45593999997E+02  0.45594000000E+02  0.51100000000E-03 0.  1.
         11   -1    0    0    0    0 -0.00000000000E+00 -0.00000000000E+00 -0.45593999997E+02  0.45594000000E+02  0.51100000000E-03 0. -1.
    9900012    2    1    2    0    0  0.16756837114E+02  0.22127624520E+01  0.80617165765E+01  0.72461569964E+02  0.69999999569E+02 0.  0.
         12    1    1    2    0    0 -0.16756837114E+02 -0.22127624520E+01 -0.80617165765E+01  0.18726430036E+02  0.00000000000E+00 0. -1.
         11    1    3    3    0    0 -0.83456444784E+01  0.95161077610E+01 -0.20201786229E+01  0.12817457260E+02  0.51100000000E-03 0. -1.
        -11    1    3    3    0    0  0.75057483640E+01 -0.86155077441E+01  0.30551716436E+02  0.32618562348E+02  0.51100000000E-03 0.  1.
         12    1    3    3    0    0  0.17596733228E+02  0.13121624351E+01 -0.20469821237E+02  0.27025550356E+02  0.00000000000E+00 0. -1.
</event>
<event>
 7    1  0.2886818E-013  0.7246159E+02  0.7816164E-02  0.1226708E+00
        -11   -1    0    0    0    0  0.00000000000E+00  0.00000000000E+00  0.45593999997E+02  0.45594000000E+02  0.51100000000E-03 0.  1.
         11   -1    0    0    0    0 -0.00000000000E+00 -0.00000000000E+00 -0.45593999997E+02  0.45594000000E+02  0.51100000000E-03 0. -1.
    9900012    2    1    2    0    0  0.69614486654E+01  0.93801800865E+01  0.14636563230E+02  0.72461587392E+02  0.70000022273E+02 0.  0.
         12    1    1    2    0    0 -0.69614486654E+01 -0.93801800865E+01 -0.14636563230E+02  0.18726412608E+02  0.00000000000E+00 0. -1.
         11    1    3    3    0    0  0.32903405801E+01 -0.12575503203E+02  0.51982199081E+01  0.13999682583E+02  0.51100000000E-03 0. -1.
        -11    1    3    3    0    0  0.66710651361E+01 -0.22311232267E+01  0.27334404339E+02  0.28225001005E+02  0.51100000000E-03 0.  1.
         12    1    3    3    0    0 -0.29999570508E+01  0.24186806517E+02 -0.17896061017E+02  0.30236903805E+02  0.00000000000E+00 0. -1.
</event>
<event>
 7    1  0.2886818E-013  0.7246174E+02  0.7816164E-02  0.1226708E+00
        -11   -1    0    0    0    0  0.00000000000E+00  0.00000000000E+00  0.45593999997E+02  0.45594000000E+02  0.51100000000E-03 0.  1.
         11   -1    0    0    0    0 -0.00000000000E+00 -0.00000000000E+00 -0.45593999997E+02  0.45594000000E+02  0.51100000000E-03 0. -1.
    9900012    2    1    2    0    0  0.44697954528E+01  0.15369945748E+02  0.97189771149E+01  0.72461739833E+02  0.70000220855E+02 0.  0.
         12    1    1    2    0    0 -0.44697954528E+01 -0.15369945748E+02 -0.97189771149E+01  0.18726260167E+02  0.00000000000E+00 0. -1.
         11    1    3    3    0    0 -0.11474131823E+02  0.34659755972E+02 -0.69350982574E+01  0.37162480720E+02  0.51100000000E-03 0. -1.
        -11    1    3    3    0    0  0.11801975966E+02 -0.61042848024E+01 -0.46772131003E+00  0.13295401203E+02  0.51100000000E-03 0.  1.
        -12    1    3    3    0    0  0.41419513098E+01 -0.13185525422E+02  0.17121796682E+02  0.22003857910E+02  0.00000000000E+00 0.  1.
</event>
<event>
 7    1  0.2886818E-013  0.7246157E+02  0.7816164E-02  0.1226708E+00
        -11   -1    0    0    0    0  0.00000000000E+00  0.00000000000E+00  0.45593999997E+02  0.45594000000E+02  0.51100000000E-03 0.  1.
         11   -1    0    0    0    0 -0.00000000000E+00 -0.00000000000E+00 -0.45593999997E+02  0.45594000000E+02  0.51100000000E-03 0. -1.
    9900012    2    1    2    0    0  0.47733320616E+01 -0.17292749501E+02  0.53717238220E+01  0.72461566781E+02  0.69999995423E+02 0.  0.
         12    1    1    2    0    0 -0.47733320616E+01  0.17292749501E+02 -0.53717238220E+01  0.18726433219E+02  0.00000000000E+00 0. -1.
         11    1    3    3    0    0  0.53756405115E+01  0.93375219909E+01  0.26627282742E+01  0.11098511160E+02  0.51100000000E-03 0.  1.
        -11    1    3    3    0    0  0.23257594604E+02 -0.28682033551E+02 -0.19006144059E+01  0.36975493111E+02  0.51100000000E-03 0. -1.
         12    1    3    3    0    0 -0.23859903054E+02  0.20517620591E+01  0.46096099537E+01  0.24387562510E+02  0.00000000000E+00 0. -1.
</event>
<event>
 7    1  0.2886818E-013  0.7246160E+02  0.7816164E-02  0.1226708E+00
        -11   -1    0    0    0    0  0.00000000000E+00  0.00000000000E+00  0.45593999997E+02  0.45594000000E+02  0.51100000000E-03 0.  1.
         11   -1    0    0    0    0 -0.00000000000E+00 -0.00000000000E+00 -0.45593999997E+02  0.45594000000E+02  0.51100000000E-03 0. -1.
    9900012    2    1    2    0    0 -0.14636852192E+02  0.91666975925E+01  0.72396404442E+01  0.72461596699E+02  0.70000034397E+02 0.  0.
         12    1    1    2    0    0  0.14636852192E+02 -0.91666975925E+01 -0.72396404442E+01  0.18726403301E+02  0.00000000000E+00 0. -1.
         11    1    3    3    0    0 -0.34185122923E+02 -0.22137732632E+01  0.15884091550E+02  0.37760134878E+02  0.51100000000E-03 0. -1.
        -11    1    3    3    0    0 -0.45139705986E+01  0.29353685502E+01 -0.74240357586E+01  0.91710755256E+01  0.51100000000E-03 0.  1.
        -12    1    3    3    0    0  0.24062241330E+02  0.84451023055E+01 -0.12204153476E+01  0.25530386296E+02  0.00000000000E+00 0.  1.
</event>
<event>
 7    1  0.2886818E-013  0.7246158E+02  0.7816164E-02  0.1226708E+00
        -11   -1    0    0    0    0  0.00000000000E+00  0.00000000000E+00  0.45593999997E+02  0.45594000000E+02  0.51100000000E-03 0.  1.
         11   -1    0    0    0    0 -0.00000000000E+00 -0.00000000000E+00 -0.45593999997E+02  0.45594000000E+02  0.51100000000E-03 0. -1.
    9900012    2    1    2    0    0 -0.88101511145E+01 -0.16127775981E+02 -0.35992972258E+01  0.72461578524E+02  0.70000010721E+02 0.  0.
         12    1    1    2    0    0  0.88101511145E+01  0.16127775981E+02  0.35992972258E+01  0.18726421476E+02  0.00000000000E+00 0. -1.
         11    1    3    3    0    0 -0.13151003201E+01  0.31548516003E+01 -0.19703797525E+02  0.19998055272E+02  0.51100000000E-03 0. -1.
        -11    1    3    3    0    0 -0.23152232453E+01  0.99885022843E+01 -0.89325665579E+01  0.13598572798E+02  0.51100000000E-03 0.  1.
        -12    1    3    3    0    0 -0.51798275491E+01 -0.29271129866E+02  0.25037066857E+02  0.38864950455E+02  0.00000000000E+00 0.  1.
</event>
<event>
 7    1  0.2886818E-013  0.7246158E+02  0.7816164E-02  0.1226708E+00
        -11   -1    0    0    0    0  0.00000000000E+00  0.00000000000E+00  0.45593999997E+02  0.45594000000E+02  0.51100000000E-03 0.  1.
         11   -1    0    0    0    0 -0.00000000000E+00 -0.00000000000E+00 -0.45593999997E+02  0.45594000000E+02  0.51100000000E-03 0. -1.
    9900012    2    1    2    0    0  0.10203251367E+02 -0.14589260158E+02  0.58074013638E+01  0.72461581201E+02  0.70000014208E+02 0.  0.
         12    1    1    2    0    0 -0.10203251367E+02  0.14589260158E+02 -0.58074013638E+01  0.18726418799E+02  0.00000000000E+00 0. -1.
         11    1    3    3    0    0 -0.51762259612E+01 -0.19234388381E+02  0.19474660626E+02  0.27857089194E+02  0.51100000000E-03 0. -1.
        -11    1    3    3    0    0 -0.83554833972E+01 -0.77571371009E+01  0.44856407779E+01  0.12251867297E+02  0.51100000000E-03 0.  1.
         12    1    3    3    0    0  0.23734960726E+02  0.12402265324E+02 -0.18152900040E+02  0.32352624711E+02  0.00000000000E+00 0. -1.
</event>
<event>
 7    1  0.2886818E-013  0.7246158E+02  0.7816164E-02  0.1226708E+00
        -11   -1    0    0    0    0  0.00000000000E+00  0.00000000000E+00  0.45593999997E+02  0.45594000000E+02  0.51100000000E-03 0. -1.
         11   -1    0    0    0    0 -0.00000000000E+00 -0.00000000000E+00 -0.45593999997E+02  0.45594000000E+02  0.51100000000E-03 0.  1.
    9900012    2    1    2    0    0  0.13485559410E+02  0.90659685550E+01  0.93073524716E+01  0.72461577264E+02  0.70000009080E+02 0.  0.
         12    1    1    2    0    0 -0.13485559410E+02 -0.90659685550E+01 -0.93073524716E+01  0.18726422736E+02  0.00000000000E+00 0. -1.
         11    1    3    3    0    0 -0.22603852959E+01  0.25458219459E+02  0.32998692075E+01  0.25770514484E+02  0.51100000000E-03 0. -1.
        -11    1    3    3    0    0 -0.13086635126E+02 -0.88237238851E+01  0.59893461841E+01  0.16881658393E+02  0.51100000000E-03 0.  1.
        -12    1    3    3    0    0  0.28832579832E+02 -0.75685270187E+01  0.18137079962E-01  0.29809404388E+02  0.00000000000E+00 0.  1.
</event>
<event>
 7    1  0.2886818E-013  0.7246154E+02  0.7816164E-02  0.1226708E+00
        -11   -1    0    0    0    0  0.00000000000E+00  0.00000000000E+00  0.45593999997E+02  0.45594000000E+02  0.51100000000E-03 0. -1.
         11   -1    0    0    0    0 -0.00000000000E+00 -0.00000000000E+00 -0.45593999997E+02  0.45594000000E+02  0.51100000000E-03 0.  1.
    9900012    2    1    2    0    0  0.10418035144E+00 -0.18682214035E+02 -0.12823823374E+01  0.72461535324E+02  0.69999954444E+02 0.  0.
         12    1    1    2    0    0 -0.10418035144E+00  0.18682214035E+02  0.12823823374E+01  0.18726464676E+02  0.00000000000E+00 0. -1.
         11    1    3    3    0    0 -0.15585912538E+02 -0.47735216353E+01 -0.44572342957E+01  0.16898938318E+02  0.51100000000E-03 0. -1.
        -11    1    3    3    0    0 -0.13837945752E+02 -0.18016518028E+02 -0.74586612384E+01  0.23910568630E+02  0.51100000000E-03 0.  1.
         12    1    3    3    0    0  0.29528038642E+02  0.41078256277E+01  0.10633513197E+02  0.31652028376E+02  0.00000000000E+00 0. -1.
</event>
<event>
 7    1  0.2886818E-013  0.7246154E+02  0.7816164E-02  0.1226708E+00
        -11   -1    0    0    0    0  0.00000000000E+00  0.00000000000E+00  0.45593999997E+02  0.45594000000E+02  0.51100000000E-03 0.  1.
         11   -1    0    0    0    0 -0.00000000000E+00 -0.00000000000E+00 -0.45593999997E+02  0.45594000000E+02  0.51100000000E-03 0. -1.
    9900012    2    1    2    0    0 -0.18713437705E+02 -0.52688298597E+00  0.45825456174E+00  0.72461538678E+02  0.69999958813E+02 0.  0.
         12    1    1    2    0    0  0.18713437705E+02  0.52688298597E+00 -0.45825456174E+00  0.18726461322E+02  0.00000000000E+00 0. -1.
         11    1    3    3    0    0  0.47052314571E+01 -0.13016214211E+02  0.13024218255E+02  0.19005033461E+02  0.51100000000E-03 0. -1.
        -11    1    3    3    0    0  0.13484324720E+02  0.32257689482E+01 -0.43550204252E+01  0.14532680470E+02  0.51100000000E-03 0.  1.
         12    1    3    3    0    0 -0.36902993883E+02  0.92635622769E+01 -0.82109432679E+01  0.38923824747E+02  0.00000000000E+00 0. -1.
</event>
<event>
 7    1  0.2886818E-013  0.7246157E+02  0.7816164E-02  0.1226708E+00
        -11   -1    0    0    0    0  0.00000000000E+00  0.00000000000E+00  0.45593999997E+02  0.45594000000E+02  0.51100000000E-03 0. -1.
         11   -1    0    0    0    0 -0.00000000000E+00 -0.00000000000E+00 -0.45593999997E+02  0.45594000000E+02  0.51100000000E-03 0.  1.
    9900012    2    1    2    0    0  0.99198323648E+01 -0.93381468232E+01 -0.12848155112E+02  0.72461570815E+02  0.70000000678E+02 0.  0.
         12    1    1    2    0    0 -0.99198323648E+01  0.93381468232E+01  0.12848155112E+02  0.18726429185E+02  0.00000000000E+00 0. -1.
         11    1    3    3    0    0 -0.82100603700E+01 -0.24985041442E+02  0.40654414186E+00  0.26302522037E+02  0.51100000000E-03 0. -1.
        -11    1    3    3    0    0  0.30968564508E+01 -0.99271396830E+01 -0.12798161484E+02  0.16490347473E+02  0.51100000000E-03 0.  1.
        -12    1    3    3    0    0  0.15033036284E+02  0.25574034301E+02 -0.45653776978E+00  0.29668701304E+02  0.00000000000E+00 0.  1.
</event>
<event>
 7    1  0.2886818E-013  0.7246151E+02  0.7816164E-02  0.1226708E+00
        -11   -1    0    0    0    0  0.00000000000E+00  0.00000000000E+00  0.45593999997E+02  0.45594000000E+02  0.51100000000E-03 0.  1.
         11   -1    0    0    0    0 -0.00000000000E+00 -0.00000000000E+00 -0.45593999997E+02  0.45594000000E+02  0.51100000000E-03 0. -1.
    9900012    2    1    2    0    0 -0.11065166932E+02 -0.62851485190E+01  0.13738284240E+02  0.72461509004E+02  0.69999920158E+02 0.  0.
         12    1    1    2    0    0  0.11065166932E+02  0.62851485190E+01 -0.13738284240E+02  0.18726490996E+02  0.00000000000E+00 0. -1.
         11    1    3    3    0    0 -0.15695976378E+01 -0.10562193685E+01 -0.77696784619E+01  0.79966955527E+01  0.51100000000E-03 0. -1.
        -11    1    3    3    0    0 -0.24489616313E+02 -0.24227215357E+02  0.41851153388E+01  0.34701793351E+02  0.51100000000E-03 0.  1.
         12    1    3    3    0    0  0.14994047018E+02  0.18998286206E+02  0.17322847363E+02  0.29763020101E+02  0.00000000000E+00 0. -1.
</event>
<event>
 7    1  0.2886818E-013  0.7246152E+02  0.7816164E-02  0.1226708E+00
        -11   -1    0    0    0    0  0.00000000000E+00  0.00000000000E+00  0.45593999997E+02  0.45594000000E+02  0.51100000000E-03 0. -1.
         11   -1    0    0    0    0 -0.00000000000E+00 -0.00000000000E+00 -0.45593999997E+02  0.45594000000E+02  0.51100000000E-03 0.  1.
    9900012    2    1    2    0    0  0.61909860913E+01  0.56461524731E+01 -0.16747350242E+02  0.72461519107E+02  0.69999933319E+02 0.  0.
         12    1    1    2    0    0 -0.61909860913E+01 -0.56461524731E+01  0.16747350242E+02  0.18726480893E+02  0.00000000000E+00 0. -1.
         11    1    3    3    0    0  0.10733860273E+02  0.36436890444E+00 -0.13932099400E+02  0.17591245408E+02  0.51100000000E-03 0. -1.
        -11    1    3    3    0    0 -0.17531686731E+02  0.23693077050E+02 -0.10152856253E+02  0.31173745846E+02  0.51100000000E-03 0.  1.
         12    1    3    3    0    0  0.12988812549E+02 -0.18411293481E+02  0.73376054115E+01  0.23696527852E+02  0.00000000000E+00 0. -1.
</event>
<event>
 7    1  0.2886818E-013  0.7246138E+02  0.7816164E-02  0.1226709E+00
        -11   -1    0    0    0    0  0.00000000000E+00  0.00000000000E+00  0.45593999997E+02  0.45594000000E+02  0.51100000000E-03 0. -1.
         11   -1    0    0    0    0 -0.00000000000E+00 -0.00000000000E+00 -0.45593999997E+02  0.45594000000E+02  0.51100000000E-03 0.  1.
    9900012    2    1    2    0    0 -0.17424572397E+02  0.45495364203E+01 -0.51353822723E+01  0.72461383756E+02  0.69999756999E+02 0.  0.
         12    1    1    2    0    0  0.17424572397E+02 -0.45495364203E+01  0.51353822723E+01  0.18726616244E+02  0.00000000000E+00 0. -1.
         11    1    3    3    0    0  0.80642854724E+01  0.61566265956E+01 -0.87173746964E+00  0.10183156568E+02  0.51100000000E-03 0. -1.
        -11    1    3    3    0    0 -0.29108923838E+01 -0.17752644000E+02 -0.22694250326E+02  0.28959603961E+02  0.51100000000E-03 0.  1.
         12    1    3    3    0    0 -0.22577965486E+02  0.16145553825E+02  0.18430605523E+02  0.33318623227E+02  0.00000000000E+00 0. -1.
</event>
<event>
 7    1  0.2886818E-013  0.7246158E+02  0.7816164E-02  0.1226708E+00
        -11   -1    0    0    0    0  0.00000000000E+00  0.00000000000E+00  0.45593999997E+02  0.45594000000E+02  0.51100000000E-03 0.  1.
         11   -1    0    0    0    0 -0.00000000000E+00 -0.00000000000E+00 -0.45593999997E+02  0.45594000000E+02  0.51100000000E-03 0. -1.
    9900012    2    1    2    0    0 -0.27564677247E+01 -0.15913521445E+02  0.94784292725E+01  0.72461577475E+02  0.70000009355E+02 0.  0.
         12    1    1    2    0    0  0.27564677247E+01  0.15913521445E+02 -0.94784292725E+01  0.18726422525E+02  0.00000000000E+00 0. -1.
         11    1    3    3    0    0  0.18853712455E+00 -0.21297483335E+01 -0.20735436372E+02  0.20845375890E+02  0.51100000000E-03 0. -1.
        -11    1    3    3    0    0 -0.14369311057E+02  0.83036720515E+01  0.87200575566E+01  0.18747465798E+02  0.51100000000E-03 0.  1.
        -12    1    3    3    0    0  0.11424306207E+02 -0.22087445163E+02  0.21493808088E+02  0.32868735787E+02  0.00000000000E+00 0.  1.
</event>
<event>
 7    1  0.2886818E-013  0.7246156E+02  0.7816164E-02  0.1226708E+00
        -11   -1    0    0    0    0  0.00000000000E+00  0.00000000000E+00  0.45593999997E+02  0.45594000000E+02  0.51100000000E-03 0.  1.
         11   -1    0    0    0    0 -0.00000000000E+00 -0.00000000000E+00 -0.45593999997E+02  0.45594000000E+02  0.51100000000E-03 0. -1.
    9900012    2    1    2    0    0 -0.12089444523E+02  0.12052588838E+02  0.76980585349E+01  0.72461556884E+02  0.69999982530E+02 0.  0.
         12    1    1    2    0    0  0.12089444523E+02 -0.12052588838E+02 -0.76980585349E+01  0.18726443116E+02  0.00000000000E+00 0. -1.
         11    1    3    3    0    0  0.44131418088E+00 -0.25518367005E+01 -0.21551727540E+02  0.21706763669E+02  0.51100000000E-03 0. -1.
        -11    1    3    3    0    0 -0.16884961558E+02  0.15974658229E+02  0.22286088153E+01  0.23350767222E+02  0.51100000000E-03 0.  1.
        -12    1    3    3    0    0  0.43542028533E+01 -0.13702326907E+01  0.27021177260E+02  0.27404025993E+02  0.00000000000E+00 0.  1.
</event>
<event>
 7    1  0.2886818E-013  0.7246151E+02  0.7816164E-02  0.1226708E+00
        -11   -1    0    0    0    0  0.00000000000E+00  0.00000000000E+00  0.45593999997E+02  0.45594000000E+02  0.51100000000E-03 0.  1.
         11   -1    0    0    0    0 -0.00000000000E+00 -0.00000000000E+00 -0.45593999997E+02  0.45594000000E+02  0.51100000000E-03 0. -1.
    9900012    2    1    2    0    0 -0.17807776394E+02  0.28988360954E+01 -0.50161172740E+01  0.72461505846E+02  0.69999916044E+02 0.  0.
         12    1    1    2    0    0  0.17807776394E+02 -0.28988360954E+01  0.50161172740E+01  0.18726494154E+02  0.00000000000E+00 0. -1.
         11    1    3    3    0    0  0.14124973063E+01 -0.29377603863E+01  0.15892750460E+01  0.36264831670E+01  0.51100000000E-03 0. -1.
        -11    1    3    3    0    0 -0.37981785822E+02  0.13019803855E+02  0.11526295917E+02  0.41773039684E+02  0.51100000000E-03 0.  1.
         12    1    3    3    0    0  0.18761512122E+02 -0.71832073737E+01 -0.18131688237E+02  0.27061982995E+02  0.00000000000E+00 0. -1.
</event>
<event>
 7    1  0.2886818E-013  0.7246158E+02  0.7816164E-02  0.1226708E+00
        -11   -1    0    0    0    0  0.00000000000E+00  0.00000000000E+00  0.45593999997E+02  0.45594000000E+02  0.51100000000E-03 0. -1.
         11   -1    0    0    0    0 -0.00000000000E+00 -0.00000000000E+00 -0.45593999997E+02  0.45594000000E+02  0.51100000000E-03 0.  1.
    9900012    2    1    2    0    0 -0.61804365154E+01 -0.43929682633E+01 -0.17122583514E+02  0.72461579309E+02  0.70000011744E+02 0.  0.
         12    1    1    2    0    0  0.61804365154E+01  0.43929682633E+01  0.17122583514E+02  0.18726420691E+02  0.00000000000E+00 0. -1.
         11    1    3    3    0    0 -0.51737640308E+01  0.40520969405E+01 -0.19055545551E+02  0.20156912968E+02  0.51100000000E-03 0. -1.
        -11    1    3    3    0    0  0.25059354092E+02 -0.57325547056E+01 -0.20874282979E+01  0.25791292487E+02  0.51100000000E-03 0.  1.
         12    1    3    3    0    0 -0.26066026577E+02 -0.27125104981E+01  0.40203903351E+01  0.26513373855E+02  0.00000000000E+00 0. -1.
</event>
<event>
 7    1  0.2886818E-013  0.7246162E+02  0.7816164E-02  0.1226708E+00
        -11   -1    0    0    0    0  0.00000000000E+00  0.00000000000E+00  0.45593999997E+02  0.45594000000E+02  0.51100000000E-03 0.  1.
         11   -1    0    0    0    0 -0.00000000000E+00 -0.00000000000E+00 -0.45593999997E+02  0.45594000000E+02  0.51100000000E-03 0. -1.
    9900012    2    1    2    0    0  0.99369599310E+01 -0.82789325691E+01  0.13542287012E+02  0.72461616615E+02  0.70000060341E+02 0.  0.
         12    1    1    2    0    0 -0.99369599310E+01  0.82789325691E+01 -0.13542287012E+02  0.18726383385E+02  0.00000000000E+00 0. -1.
         11    1    3    3    0    0  0.10788278765E+02 -0.24117708623E+02  0.84030773370E+01  0.27724763965E+02  0.51100000000E-03 0. -1.
        -11    1    3    3    0    0 -0.12464413691E+02 -0.30027420748E+01  0.15653132003E+02  0.20233601024E+02  0.51100000000E-03 0.  1.
        -12    1    3    3    0    0  0.11613094858E+02  0.18841518129E+02 -0.10513922327E+02  0.24503251626E+02  0.00000000000E+00 0.  1.
</event>
<event>
 7    1  0.2886818E-013  0.7246156E+02  0.7816164E-02  0.1226708E+00
        -11   -1    0    0    0    0  0.00000000000E+00  0.00000000000E+00  0.45593999997E+02  0.45594000000E+02  0.51100000000E-03 0.  1.
         11   -1    0    0    0    0 -0.00000000000E+00 -0.00000000000E+00 -0.45593999997E+02  0.45594000000E+02  0.51100000000E-03 0. -1.
    9900012    2    1    2    0    0  0.18100359346E+02 -0.24509802609E+01 -0.41290802526E+01  0.72461558362E+02  0.69999984456E+02 0.  0.
         12    1    1    2    0    0 -0.18100359346E+02  0.24509802609E+01  0.41290802526E+01  0.18726441638E+02  0.00000000000E+00 0. -1.
         11    1    3    3    0    0  0.12060479560E+02 -0.82527742855E+01 -0.21141065602E+02  0.25700352248E+02  0.51100000000E-03 0. -1.
        -11    1    3    3    0    0 -0.12938099046E+02  0.13576883790E+02 -0.19169290571E+01  0.18852076747E+02  0.51100000000E-03 0.  1.
         12    1    3    3    0    0  0.18977978832E+02 -0.77750897658E+01  0.18928914406E+02  0.27909129367E+02  0.00000000000E+00 0. -1.
</event>
<event>
 7    1  0.2886818E-013  0.7246158E+02  0.7816164E-02  0.1226708E+00
        -11   -1    0    0    0    0  0.00000000000E+00  0.00000000000E+00  0.45593999997E+02  0.45594000000E+02  0.51100000000E-03 0.  1.
         11   -1    0    0    0    0 -0.00000000000E+00 -0.00000000000E+00 -0.45593999997E+02  0.45594000000E+02  0.51100000000E-03 0. -1.
    9900012    2    1    2    0    0  0.15190182394E+02  0.34154809101E+01 -0.10405370958E+02  0.72461577603E+02  0.70000009521E+02 0.  0.
         12    1    1    2    0    0 -0.15190182394E+02 -0.34154809101E+01  0.10405370958E+02  0.18726422397E+02  0.00000000000E+00 0. -1.
         11    1    3    3    0    0  0.23810245260E+02 -0.72434675391E+01 -0.63133198601E+01  0.25675934437E+02  0.51100000000E-03 0. -1.
        -11    1    3    3    0    0  0.17843570783E+02  0.14562547006E+01  0.22932049779E+01  0.18049168551E+02  0.51100000000E-03 0.  1.
         12    1    3    3    0    0 -0.26463633649E+02  0.92026937486E+01 -0.63852560761E+01  0.28736474615E+02  0.00000000000E+00 0. -1.
</event>
<event>
 7    1  0.2886818E-013  0.7246152E+02  0.7816164E-02  0.1226708E+00
        -11   -1    0    0    0    0  0.00000000000E+00  0.00000000000E+00  0.45593999997E+02  0.45594000000E+02  0.51100000000E-03 0.  1.
         11   -1    0    0    0    0 -0.00000000000E+00 -0.00000000000E+00 -0.45593999997E+02  0.45594000000E+02  0.51100000000E-03 0. -1.
    9900012    2    1    2    0    0 -0.34712727916E+00  0.18690378472E+02  0.11092541737E+01  0.72461516357E+02  0.69999929737E+02 0.  0.
         12    1    1    2    0    0  0.34712727916E+00 -0.18690378472E+02 -0.11092541737E+01  0.18726483643E+02  0.00000000000E+00 0. -1.
         11    1    3    3    0    0 -0.11944189550E+02 -0.37112655662E+01  0.56876778266E+01  0.13739972177E+02  0.51100000000E-03 0.  1.
        -11    1    3    3    0    0  0.19868158303E+02 -0.11645102537E+02 -0.54820890693E+01  0.23672883818E+02  0.51100000000E-03 0. -1.
         12    1    3    3    0    0 -0.82710960322E+01  0.34046746576E+02  0.90366541641E+00  0.35048660362E+02  0.00000000000E+00 0. -1.
</event>
<event>
 7    1  0.2886818E-013  0.7246156E+02  0.7816164E-02  0.1226708E+00
        -11   -1    0    0    0    0  0.00000000000E+00  0.00000000000E+00  0.45593999997E+02  0.45594000000E+02  0.51100000000E-03 0.  1.
         11   -1    0    0    0    0 -0.00000000000E+00 -0.00000000000E+00 -0.45593999997E+02  0.45594000000E+02  0.51100000000E-03 0. -1.
    9900012    2    1    2    0    0  0.16351215035E+02 -0.86541986611E+01  0.29020813091E+01  0.72461562445E+02  0.69999989775E+02 0.  0.
         12    1    1    2    0    0 -0.16351215035E+02  0.86541986611E+01 -0.29020813091E+01  0.18726437555E+02  0.00000000000E+00 0. -1.
         11    1    3    3    0    0 -0.47378398200E+01  0.38600770611E+00  0.46666457720E+01  0.66613595558E+01  0.51100000000E-03 0. -1.
        -11    1    3    3    0    0  0.24617125577E+02 -0.18371634404E+02  0.23475386788E+02  0.38660232894E+02  0.51100000000E-03 0.  1.
         12    1    3    3    0    0 -0.35280707218E+01  0.93314280367E+01 -0.25239951250E+02  0.27139969995E+02  0.00000000000E+00 0. -1.
</event>
<event>
 7    1  0.2886818E-013  0.7246156E+02  0.7816164E-02  0.1226708E+00
        -11   -1    0    0    0    0  0.00000000000E+00  0.00000000000E+00  0.45593999997E+02  0.45594000000E+02  0.51100000000E-03 0. -1.
         11   -1    0    0    0    0 -0.00000000000E+00 -0.00000000000E+00 -0.45593999997E+02  0.45594000000E+02  0.51100000000E-03 0.  1.
    9900012    2    1    2    0    0  0.55881584346E+01 -0.17861582706E+02 -0.64488370620E+00  0.72461560764E+02  0.69999987585E+02 0.  0.
         12    1    1    2    0    0 -0.55881584346E+01  0.17861582706E+02  0.64488370620E+00  0.18726439236E+02  0.00000000000E+00 0. -1.
         11    1    3    3    0    0 -0.92156028849E+01  0.52627397417E+01 -0.75984976548E+01  0.13052238620E+02  0.51100000000E-03 0. -1.
        -11    1    3    3    0    0 -0.38950156994E+00  0.76358158140E+01 -0.16272345743E+02  0.17979060900E+02  0.51100000000E-03 0.  1.
         12    1    3    3    0    0  0.15193262889E+02 -0.30760138262E+02  0.23225959691E+02  0.41430261244E+02  0.00000000000E+00 0. -1.
</event>
<event>
 7    1  0.2886818E-013  0.7246149E+02  0.7816164E-02  0.1226708E+00
        -11   -1    0    0    0    0  0.00000000000E+00  0.00000000000E+00  0.45593999997E+02  0.45594000000E+02  0.51100000000E-03 0.  1.
         11   -1    0    0    0    0 -0.00000000000E+00 -0.00000000000E+00 -0.45593999997E+02  0.45594000000E+02  0.51100000000E-03 0. -1.
    9900012    2    1    2    0    0  0.65711071202E+01 -0.16077413156E+02  0.70014031538E+01  0.72461486478E+02  0.69999890814E+02 0.  0.
         12    1    1    2    0    0 -0.65711071202E+01  0.16077413156E+02 -0.70014031538E+01  0.18726513522E+02  0.00000000000E+00 0. -1.
         11    1    3    3    0    0 -0.11821138464E+02 -0.45758464614E+01 -0.64706925704E+01  0.14231920040E+02  0.51100000000E-03 0. -1.
        -11    1    3    3    0    0  0.27281192284E+01 -0.31018821950E+02  0.11237500777E+02  0.33104250085E+02  0.51100000000E-03 0.  1.
         12    1    3    3    0    0  0.15664126356E+02  0.19517255256E+02  0.22345949469E+01  0.25125316353E+02  0.00000000000E+00 0. -1.
</event>
<event>
 7    1  0.2886818E-013  0.7246158E+02  0.7816164E-02  0.1226708E+00
        -11   -1    0    0    0    0  0.00000000000E+00  0.00000000000E+00  0.45593999997E+02  0.45594000000E+02  0.51100000000E-03 0.  1.
         11   -1    0    0    0    0 -0.00000000000E+00 -0.00000000000E+00 -0.45593999997E+02  0.45594000000E+02  0.51100000000E-03 0. -1.
    9900012    2    1    2    0    0 -0.13340077312E+02 -0.97450341956E+01 -0.88178989287E+01  0.72461582946E+02  0.70000016481E+02 0.  0.
         12    1    1    2    0    0  0.13340077312E+02  0.97450341956E+01  0.88178989287E+01  0.18726417054E+02  0.00000000000E+00 0. -1.
         11    1    3    3    0    0 -0.18511514858E+01 -0.47952387558E+01  0.24588165528E+01  0.56979694321E+01  0.51100000000E-03 0. -1.
        -11    1    3    3    0    0  0.14523986383E+02 -0.17184697506E+02  0.15624429905E+02  0.27393116269E+02  0.51100000000E-03 0.  1.
         12    1    3    3    0    0 -0.26012912209E+02  0.12234902066E+02 -0.26901145387E+02  0.39370497245E+02  0.00000000000E+00 0. -1.
</event>
<event>
 7    1  0.2886818E-013  0.7246172E+02  0.7816164E-02  0.1226708E+00
        -11   -1    0    0    0    0  0.00000000000E+00  0.00000000000E+00  0.45593999997E+02  0.45594000000E+02  0.51100000000E-03 0.  1.
         11   -1    0    0    0    0 -0.00000000000E+00 -0.00000000000E+00 -0.45593999997E+02  0.45594000000E+02  0.51100000000E-03 0. -1.
    9900012    2    1    2    0    0 -0.17194534256E+02 -0.17668214241E+01  0.72041467046E+01  0.72461724450E+02  0.70000200816E+02 0.  0.
         12    1    1    2    0    0  0.17194534256E+02  0.17668214241E+01 -0.72041467046E+01  0.18726275550E+02  0.00000000000E+00 0. -1.
         11    1    3    3    0    0  0.65825962468E+01  0.70470939816E+01 -0.12150579518E+02  0.15512210991E+02  0.51100000000E-03 0. -1.
        -11    1    3    3    0    0  0.13071549297E+02  0.40827550378E+01  0.78239938694E+00  0.13716648234E+02  0.51100000000E-03 0.  1.
        -12    1    3    3    0    0 -0.36848679799E+02 -0.12896670443E+02  0.18572326836E+02  0.43232865225E+02  0.00000000000E+00 0.  1.
</event>
<event>
 7    1  0.2886818E-013  0.7246162E+02  0.7816164E-02  0.1226708E+00
        -11   -1    0    0    0    0  0.00000000000E+00  0.00000000000E+00  0.45593999997E+02  0.45594000000E+02  0.51100000000E-03 0.  1.
         11   -1    0    0    0    0 -0.00000000000E+00 -0.00000000000E+00 -0.45593999997E+02  0.45594000000E+02  0.51100000000E-03 0. -1.
    9900012    2    1    2    0    0 -0.69078697934E+01  0.15336904698E+02  0.82303111966E+01  0.72461619325E+02  0.70000063871E+02 0.  0.
         12    1    1    2    0    0  0.69078697934E+01 -0.15336904698E+02 -0.82303111966E+01  0.18726380675E+02  0.00000000000E+00 0. -1.
         11    1    3    3    0    0 -0.23035817836E+02  0.23250813664E+02 -0.15363322536E+02  0.36156339956E+02  0.51100000000E-03 0. -1.
        -11    1    3    3    0    0  0.30479815525E+01  0.74845788228E+00 -0.36829678003E+01  0.48388668948E+01  0.51100000000E-03 0.  1.
        -12    1    3    3    0    0  0.13079966490E+02 -0.86623668485E+01  0.27276601533E+02  0.31466412474E+02  0.00000000000E+00 0.  1.
</event>
<event>
 7    1  0.2886818E-013  0.7246164E+02  0.7816164E-02  0.1226708E+00
        -11   -1    0    0    0    0  0.00000000000E+00  0.00000000000E+00  0.45593999997E+02  0.45594000000E+02  0.51100000000E-03 0. -1.
         11   -1    0    0    0    0 -0.00000000000E+00 -0.00000000000E+00 -0.45593999997E+02  0.45594000000E+02  0.51100000000E-03 0.  1.
    9900012    2    1    2    0    0 -0.61965757672E+01  0.98679894184E+01 -0.14659532406E+02  0.72461637386E+02  0.70000087399E+02 0.  0.
         12    1    1    2    0    0  0.61965757672E+01 -0.98679894184E+01  0.14659532406E+02  0.18726362614E+02  0.00000000000E+00 0. -1.
         11    1    3    3    0    0  0.29990833862E+01  0.24666314050E+02 -0.15406080995E+02  0.29236430730E+02  0.51100000000E-03 0. -1.
        -11    1    3    3    0    0 -0.14514548297E+02  0.55141137782E+01 -0.11128168323E+02  0.19102714296E+02  0.51100000000E-03 0.  1.
         12    1    3    3    0    0  0.53188891432E+01 -0.20312438410E+02  0.11874716911E+02  0.24122492359E+02  0.00000000000E+00 0. -1.
</event>
<event>
 7    1  0.2886818E-013  0.7246160E+02  0.7816164E-02  0.1226708E+00
        -11   -1    0    0    0    0  0.00000000000E+00  0.00000000000E+00  0.45593999997E+02  0.45594000000E+02  0.51100000000E-03 0.  1.
         11   -1    0    0    0    0 -0.00000000000E+00 -0.00000000000E+00 -0.45593999997E+02  0.45594000000E+02  0.51100000000E-03 0. -1.
    9900012    2    1    2    0    0  0.18449085606E+02  0.21397567065E+01 -0.23938610681E+01  0.72461604477E+02  0.70000044529E+02 0.  0.
         12    1    1    2    0    0 -0.18449085606E+02 -0.21397567065E+01  0.23938610681E+01  0.18726395523E+02  0.00000000000E+00 0. -1.
         11    1    3    3    0    0  0.80067041488E+00 -0.25581161376E+01  0.43892431283E+00  0.27161896289E+01  0.51100000000E-03 0. -1.
        -11    1    3    3    0    0 -0.12878169948E+02  0.17357313264E+02  0.20104391129E+02  0.29517962800E+02  0.51100000000E-03 0.  1.
        -12    1    3    3    0    0  0.30526585140E+02 -0.12659440420E+02 -0.22937176509E+02  0.40227452048E+02  0.00000000000E+00 0.  1.
</event>
<event>
 7    1  0.2886818E-013  0.7246153E+02  0.7816164E-02  0.1226708E+00
        -11   -1    0    0    0    0  0.00000000000E+00  0.00000000000E+00  0.45593999997E+02  0.45594000000E+02  0.51100000000E-03 0.  1.
         11   -1    0    0    0    0 -0.00000000000E+00 -0.00000000000E+00 -0.45593999997E+02  0.45594000000E+02  0.51100000000E-03 0. -1.
    9900012    2    1    2    0    0  0.17346621616E+01  0.18610095049E+02 -0.11558220293E+01  0.72461531697E+02  0.69999949720E+02 0.  0.
         12    1    1    2    0    0 -0.17346621616E+01 -0.18610095049E+02  0.11558220293E+01  0.18726468303E+02  0.00000000000E+00 0. -1.
         11    1    3    3    0    0 -0.16715582394E+02  0.14579240596E+02 -0.99729232660E+01  0.24319213595E+02  0.51100000000E-03 0. -1.
        -11    1    3    3    0    0  0.15317189291E+02  0.18623442431E+02 -0.82353457204E+01  0.25480773441E+02  0.51100000000E-03 0.  1.
         12    1    3    3    0    0  0.31330552652E+01 -0.14592587978E+02  0.17052446957E+02  0.22661544661E+02  0.00000000000E+00 0. -1.
</event>
<event>
 7    1  0.2886818E-013  0.7246117E+02  0.7816164E-02  0.1226709E+00
        -11   -1    0    0    0    0  0.00000000000E+00  0.00000000000E+00  0.45593999997E+02  0.45594000000E+02  0.51100000000E-03 0.  1.
         11   -1    0    0    0    0 -0.00000000000E+00 -0.00000000000E+00 -0.45593999997E+02  0.45594000000E+02  0.51100000000E-03 0. -1.
    9900012    2    1    2    0    0 -0.11983948803E+02  0.65184466496E+01  0.12829221997E+02  0.72461171312E+02  0.69999480250E+02 0.  0.
         12    1    1    2    0    0  0.11983948803E+02 -0.65184466496E+01 -0.12829221997E+02  0.18726828688E+02  0.00000000000E+00 0. -1.
         11    1    3    3    0    0 -0.29169262307E+01 -0.22025961913E+01  0.40281737119E+00  0.36772477089E+01  0.51100000000E-03 0. -1.
        -11    1    3    3    0    0 -0.14773881299E+02 -0.17629317914E+01  0.37865377976E+02  0.40683686493E+02  0.51100000000E-03 0.  1.
         12    1    3    3    0    0  0.57068587261E+01  0.10483974632E+02 -0.25438973349E+02  0.28100237111E+02  0.00000000000E+00 0. -1.
</event>
<event>
 7    1  0.2886818E-013  0.7246155E+02  0.7816164E-02  0.1226708E+00
        -11   -1    0    0    0    0  0.00000000000E+00  0.00000000000E+00  0.45593999997E+02  0.45594000000E+02  0.51100000000E-03 0. -1.
         11   -1    0    0    0    0 -0.00000000000E+00 -0.00000000000E+00 -0.45593999997E+02  0.45594000000E+02  0.51100000000E-03 0.  1.
    9900012    2    1    2    0    0 -0.35316329764E+01  0.17006595863E+02 -0.69987988582E+01  0.72461550262E+02  0.69999973905E+02 0.  0.
         12    1    1    2    0    0  0.35316329764E+01 -0.17006595863E+02  0.69987988582E+01  0.18726449738E+02  0.00000000000E+00 0. -1.
         11    1    3    3    0    0  0.64327134869E+01  0.10885241256E+02  0.26410928167E+00  0.12646660981E+02  0.51100000000E-03 0.  1.
        -11    1    3    3    0    0  0.22183920320E+02  0.95136233303E+01  0.60012812471E+01  0.24872690375E+02  0.51100000000E-03 0. -1.
        -12    1    3    3    0    0 -0.32148266783E+02 -0.33922687234E+01 -0.13264189387E+02  0.34942198906E+02  0.00000000000E+00 0.  1.
</event>
<event>
 7    1  0.2886818E-013  0.7246151E+02  0.7816164E-02  0.1226708E+00
        -11   -1    0    0    0    0  0.00000000000E+00  0.00000000000E+00  0.45593999997E+02  0.45594000000E+02  0.51100000000E-03 0. -1.
         11   -1    0    0    0    0 -0.00000000000E+00 -0.00000000000E+00 -0.45593999997E+02  0.45594000000E+02  0.51100000000E-03 0.  1.
    9900012    2    1    2    0    0  0.14443035428E+02  0.53098240624E+01 -0.10671741196E+02  0.72461506358E+02  0.69999916711E+02 0.  0.
         12    1    1    2    0    0 -0.14443035428E+02 -0.53098240624E+01  0.10671741196E+02  0.18726493642E+02  0.00000000000E+00 0. -1.
         11    1    3    3    0    0  0.55729216271E+01  0.83381025317E+01 -0.10164176985E+02  0.14279072216E+02  0.51100000000E-03 0. -1.
        -11    1    3    3    0    0  0.13413400173E+02  0.25309322652E+02  0.46623477131E+01  0.29021002804E+02  0.51100000000E-03 0.  1.
         12    1    3    3    0    0 -0.45432863713E+01 -0.28337601122E+02 -0.51699119238E+01  0.29161431338E+02  0.00000000000E+00 0. -1.
</event>
<event>
 7    1  0.2886818E-013  0.7246160E+02  0.7816164E-02  0.1226708E+00
        -11   -1    0    0    0    0  0.00000000000E+00  0.00000000000E+00  0.45593999997E+02  0.45594000000E+02  0.51100000000E-03 0.  1.
         11   -1    0    0    0    0 -0.00000000000E+00 -0.00000000000E+00 -0.45593999997E+02  0.45594000000E+02  0.51100000000E-03 0. -1.
    9900012    2    1    2    0    0  0.16342526823E+02  0.33375812432E+01  0.85123700957E+01  0.72461599487E+02  0.70000038029E+02 0.  0.
         12    1    1    2    0    0 -0.16342526823E+02 -0.33375812432E+01 -0.85123700957E+01  0.18726400513E+02  0.00000000000E+00 0. -1.
         11    1    3    3    0    0  0.53493902834E+01  0.15728740936E+02  0.86441931540E+01  0.18727822708E+02  0.51100000000E-03 0. -1.
        -11    1    3    3    0    0  0.18480985531E+02  0.59992917961E+00  0.20899086113E+02  0.27904812162E+02  0.51100000000E-03 0.  1.
         12    1    3    3    0    0 -0.74878489907E+01 -0.12991088872E+02 -0.21030909171E+02  0.25828964617E+02  0.00000000000E+00 0. -1.
</event>
<event>
 7    1  0.2886818E-013  0.7246157E+02  0.7816164E-02  0.1226708E+00
        -11   -1    0    0    0    0  0.00000000000E+00  0.00000000000E+00  0.45593999997E+02  0.45594000000E+02  0.51100000000E-03 0.  1.
         11   -1    0    0    0    0 -0.00000000000E+00 -0.00000000000E+00 -0.45593999997E+02  0.45594000000E+02  0.51100000000E-03 0. -1.
    9900012    2    1    2    0    0 -0.15996604986E+02 -0.69054853497E+01  0.68630951216E+01  0.72461570185E+02  0.69999999857E+02 0.  0.
         12    1    1    2    0    0  0.15996604986E+02  0.69054853497E+01 -0.68630951216E+01  0.18726429815E+02  0.00000000000E+00 0. -1.
         11    1    3    3    0    0 -0.18243402431E+02 -0.31080939171E+02 -0.35219304198E+01  0.36211193105E+02  0.51100000000E-03 0.  1.
        -11    1    3    3    0    0 -0.56090454222E+01  0.29601040923E+01 -0.56716573924E+01  0.85083079765E+01  0.51100000000E-03 0. -1.
        -12    1    3    3    0    0  0.78558428673E+01  0.21215349729E+02  0.16056682934E+02  0.27742069103E+02  0.00000000000E+00 0.  1.
</event>
<event>
 7    1  0.2886818E-013  0.7246158E+02  0.7816164E-02  0.1226708E+00
        -11   -1    0    0    0    0  0.00000000000E+00  0.00000000000E+00  0.45593999997E+02  0.45594000000E+02  0.51100000000E-03 0. -1.
         11   -1    0    0    0    0 -0.00000000000E+00 -0.00000000000E+00 -0.45593999997E+02  0.45594000000E+02  0.51100000000E-03 0.  1.
    9900012    2    1    2    0    0 -0.52176707362E+00 -0.66266745215E+01  0.17506965866E+02  0.72461577226E+02  0.70000009029E+02 0.  0.
         12    1    1    2    0    0  0.52176707362E+00  0.66266745215E+01 -0.17506965866E+02  0.18726422774E+02  0.00000000000E+00 0. -1.
         11    1    3    3    0    0  0.31205557975E+01  0.15611166266E+02  0.22531925938E+02  0.27588658311E+02  0.51100000000E-03 0. -1.
        -11    1    3    3    0    0  0.86770937229E+01  0.18662874746E+01 -0.13807430443E+02  0.16414022058E+02  0.51100000000E-03 0.  1.
         12    1    3    3    0    0 -0.12319416594E+02 -0.24104128262E+02  0.87824703705E+01  0.28458896857E+02  0.00000000000E+00 0. -1.
</event>
<event>
 7    1  0.2886818E-013  0.7246160E+02  0.7816164E-02  0.1226708E+00
        -11   -1    0    0    0    0  0.00000000000E+00  0.00000000000E+00  0.45593999997E+02  0.45594000000E+02  0.51100000000E-03 0.  1.
         11   -1    0    0    0    0 -0.00000000000E+00 -0.00000000000E+00 -0.45593999997E+02  0.45594000000E+02  0.51100000000E-03 0. -1.
    9900012    2    1    2    0    0 -0.28518328416E+00  0.28437317750E+01  0.18507019153E+02  0.72461604248E+02  0.70000044231E+02 0.  0.
         12    1    1    2    0    0  0.28518328416E+00 -0.28437317750E+01 -0.18507019153E+02  0.18726395752E+02  0.00000000000E+00 0. -1.
         11    1    3    3    0    0  0.67299396435E+01 -0.28459172525E+00  0.91124654809E+01  0.11331818365E+02  0.51100000000E-03 0. -1.
        -11    1    3    3    0    0  0.44340560252E+01  0.29415010496E+02  0.12547052040E+02  0.32285170132E+02  0.51100000000E-03 0.  1.
         12    1    3    3    0    0 -0.11449178953E+02 -0.26286686995E+02 -0.31524983677E+01  0.28844615751E+02  0.00000000000E+00 0. -1.
</event>
<event>
 7    1  0.2886818E-013  0.7246166E+02  0.7816164E-02  0.1226708E+00
        -11   -1    0    0    0    0  0.00000000000E+00  0.00000000000E+00  0.45593999997E+02  0.45594000000E+02  0.51100000000E-03 0. -1.
         11   -1    0    0    0    0 -0.00000000000E+00 -0.00000000000E+00 -0.45593999997E+02  0.45594000000E+02  0.51100000000E-03 0.  1.
    9900012    2    1    2    0    0 -0.14347026275E+02 -0.86940150275E+01  0.83218160990E+01  0.72461663374E+02  0.70000121254E+02 0.  0.
         12    1    1    2    0    0  0.14347026275E+02  0.86940150275E+01 -0.83218160990E+01  0.18726336626E+02  0.00000000000E+00 0. -1.
         11    1    3    3    0    0  0.35804764726E+01  0.87279395233E+01  0.13016691279E+00  0.94347063431E+01  0.51100000000E-03 0. -1.
        -11    1    3    3    0    0 -0.32300522491E+02  0.78191146243E+01  0.17787236262E+01  0.33281018084E+02  0.51100000000E-03 0.  1.
         12    1    3    3    0    0  0.14373019743E+02 -0.25241069175E+02  0.64129255600E+01  0.29745938948E+02  0.00000000000E+00 0. -1.
</event>
<event>
 7    1  0.2886818E-013  0.7246167E+02  0.7816164E-02  0.1226708E+00
        -11   -1    0    0    0    0  0.00000000000E+00  0.00000000000E+00  0.45593999997E+02  0.45594000000E+02  0.51100000000E-03 0.  1.
         11   -1    0    0    0    0 -0.00000000000E+00 -0.00000000000E+00 -0.45593999997E+02  0.45594000000E+02  0.51100000000E-03 0. -1.
    9900012    2    1    2    0    0 -0.12372373314E+02 -0.84076415826E+01  0.11265500824E+02  0.72461666477E+02  0.70000125295E+02 0.  0.
         12    1    1    2    0    0  0.12372373314E+02  0.84076415826E+01 -0.11265500824E+02  0.18726333523E+02  0.00000000000E+00 0. -1.
         11    1    3    3    0    0 -0.14916597441E+02  0.12424960330E+02 -0.12498044243E+02  0.23088647179E+02  0.51100000000E-03 0. -1.
        -11    1    3    3    0    0  0.16078939496E+02 -0.11215906804E+02  0.26061115819E+02  0.32611510525E+02  0.51100000000E-03 0.  1.
         12    1    3    3    0    0 -0.13534715370E+02 -0.96166951087E+01 -0.22975707524E+01  0.16761508772E+02  0.00000000000E+00 0. -1.
</event>
<event>
 7    1  0.2886818E-013  0.7246157E+02  0.7816164E-02  0.1226708E+00
        -11   -1    0    0    0    0  0.00000000000E+00  0.00000000000E+00  0.45593999997E+02  0.45594000000E+02  0.51100000000E-03 0.  1.
         11   -1    0    0    0    0 -0.00000000000E+00 -0.00000000000E+00 -0.45593999997E+02  0.45594000000E+02  0.51100000000E-03 0. -1.
    9900012    2    1    2    0    0  0.10595849621E+02 -0.91189807527E+01  0.12459987356E+02  0.72461571508E+02  0.70000001581E+02 0.  0.
         12    1    1    2    0    0 -0.10595849621E+02  0.91189807527E+01 -0.12459987356E+02  0.18726428492E+02  0.00000000000E+00 0. -1.
         11    1    3    3    0    0 -0.11815377184E+02  0.11222263464E+01  0.21462469156E+01  0.12061049128E+02  0.51100000000E-03 0. -1.
        -11    1    3    3    0    0 -0.10006361761E+02 -0.17221447649E+02  0.17450495797E+02  0.26480659709E+02  0.51100000000E-03 0.  1.
         12    1    3    3    0    0  0.32417588566E+02  0.69802405501E+01 -0.71367553569E+01  0.33919862671E+02  0.00000000000E+00 0. -1.
</event>
<event>
 7    1  0.2886818E-013  0.7246152E+02  0.7816164E-02  0.1226708E+00
        -11   -1    0    0    0    0  0.00000000000E+00  0.00000000000E+00  0.45593999997E+02  0.45594000000E+02  0.51100000000E-03 0.  1.
         11   -1    0    0    0    0 -0.00000000000E+00 -0.00000000000E+00 -0.45593999997E+02  0.45594000000E+02  0.51100000000E-03 0. -1.
    9900012    2    1    2    0    0 -0.28391611147E+01 -0.14384006893E+02  0.11649920006E+02  0.72461518049E+02  0.69999931941E+02 0.  0.
         12    1    1    2    0    0  0.28391611147E+01  0.14384006893E+02 -0.11649920006E+02  0.18726481951E+02  0.00000000000E+00 0. -1.
         11    1    3    3    0    0 -0.10261839489E+02 -0.90133847392E+01  0.25427752965E+02  0.28863767517E+02  0.51100000000E-03 0. -1.
        -11    1    3    3    0    0 -0.54014518574E+01  0.95785285694E+01  0.84727356098E+01  0.13882043823E+02  0.51100000000E-03 0.  1.
         12    1    3    3    0    0  0.12824130232E+02 -0.14949150723E+02 -0.22250568569E+02  0.29715706709E+02  0.00000000000E+00 0. -1.
</event>
<event>
 7    1  0.2886818E-013  0.7246158E+02  0.7816164E-02  0.1226708E+00
        -11   -1    0    0    0    0  0.00000000000E+00  0.00000000000E+00  0.45593999997E+02  0.45594000000E+02  0.51100000000E-03 0. -1.
         11   -1    0    0    0    0 -0.00000000000E+00 -0.00000000000E+00 -0.45593999997E+02  0.45594000000E+02  0.51100000000E-03 0.  1.
    9900012    2    1    2    0    0  0.25757965131E+01  0.67047938782E+01 -0.17294211075E+02  0.72461582154E+02  0.70000015449E+02 0.  0.
         12    1    1    2    0    0 -0.25757965131E+01 -0.67047938782E+01  0.17294211075E+02  0.18726417846E+02  0.00000000000E+00 0. -1.
         11    1    3    3    0    0  0.36771470885E+01 -0.10821785820E+01 -0.26752719522E+02  0.27025923171E+02  0.51100000000E-03 0. -1.
        -11    1    3    3    0    0  0.19499269577E+02 -0.11199934873E+01  0.11881654882E+02  0.22861531498E+02  0.51100000000E-03 0.  1.
         12    1    3    3    0    0 -0.20600620152E+02  0.89069659474E+01 -0.24231464353E+01  0.22574127485E+02  0.00000000000E+00 0. -1.
</event>
<event>
 7    1  0.2886818E-013  0.7246153E+02  0.7816164E-02  0.1226708E+00
        -11   -1    0    0    0    0  0.00000000000E+00  0.00000000000E+00  0.45593999997E+02  0.45594000000E+02  0.51100000000E-03 0.  1.
         11   -1    0    0    0    0 -0.00000000000E+00 -0.00000000000E+00 -0.45593999997E+02  0.45594000000E+02  0.51100000000E-03 0. -1.
    9900012    2    1    2    0    0  0.18918177124E+01  0.18532169504E+02 -0.19132325873E+01  0.72461528370E+02  0.69999945385E+02 0.  0.
         12    1    1    2    0    0 -0.18918177124E+01 -0.18532169504E+02  0.19132325873E+01  0.18726471630E+02  0.00000000000E+00 0. -1.
         11    1    3    3    0    0 -0.24038630959E+02  0.36421625983E+01  0.55288118980E+01  0.24933689820E+02  0.51100000000E-03 0.  1.
        -11    1    3    3    0    0  0.62176112969E+01  0.20439121336E+02 -0.14552690743E+02  0.25849510234E+02  0.51100000000E-03 0. -1.
        -12    1    3    3    0    0  0.19712837375E+02 -0.55491144306E+01  0.71106462577E+01  0.21678328315E+02  0.00000000000E+00 0.  1.
</event>
<event>
 7    1  0.2886818E-013  0.7246154E+02  0.7816164E-02  0.1226708E+00
        -11   -1    0    0    0    0  0.00000000000E+00  0.00000000000E+00  0.45593999997E+02  0.45594000000E+02  0.51100000000E-03 0. -1.
         11   -1    0    0    0    0 -0.00000000000E+00 -0.00000000000E+00 -0.45593999997E+02  0.45594000000E+02  0.51100000000E-03 0.  1.
    9900012    2    1    2    0    0 -0.14177209516E+02  0.71031204841E+01  0.99615542305E+01  0.72461544036E+02  0.69999965794E+02 0.  0.
         12    1    1    2    0    0  0.14177209516E+02 -0.71031204841E+01 -0.99615542305E+01  0.18726455964E+02  0.00000000000E+00 0. -1.
         11    1    3    3    0    0 -0.37310847097E+01  0.59324536748E+01  0.11773306808E+02  0.13701304799E+02  0.51100000000E-03 0. -1.
        -11    1    3    3    0    0  0.20515915239E+02 -0.36753021974E+01  0.12504815376E+02  0.24305987579E+02  0.51100000000E-03 0.  1.
        -12    1    3    3    0    0 -0.30962040045E+02  0.48459690067E+01 -0.14316567954E+02  0.34454251659E+02  0.00000000000E+00 0.  1.
</event>
<event>
 7    1  0.2886818E-013  0.7246148E+02  0.7816164E-02  0.1226708E+00
        -11   -1    0    0    0    0  0.00000000000E+00  0.00000000000E+00  0.45593999997E+02  0.45594000000E+02  0.51100000000E-03 0. -1.
         11   -1    0    0    0    0 -0.00000000000E+00 -0.00000000000E+00 -0.45593999997E+02  0.45594000000E+02  0.51100000000E-03 0.  1.
    9900012    2    1    2    0    0 -0.15730611286E+02 -0.77132931863E+01 -0.66132780887E+01  0.72461482163E+02  0.69999885193E+02 0.  0.
         12    1    1    2    0    0  0.15730611286E+02  0.77132931863E+01  0.66132780887E+01  0.18726517837E+02  0.00000000000E+00 0. -1.
         11    1    3    3    0    0 -0.23473806932E+02 -0.26621920098E+02  0.39873013202E+01  0.35716170199E+02  0.51100000000E-03 0.  1.
        -11    1    3    3    0    0  0.10697184081E+02 -0.31750838049E+00  0.49982107002E+01  0.11811548133E+02  0.51100000000E-03 0. -1.
        -12    1    3    3    0    0 -0.29539884348E+01  0.19226135292E+02 -0.15598790109E+02  0.24933763832E+02  0.00000000000E+00 0.  1.
</event>
<event>
 7    1  0.2886818E-013  0.7246151E+02  0.7816164E-02  0.1226708E+00
        -11   -1    0    0    0    0  0.00000000000E+00  0.00000000000E+00  0.45593999997E+02  0.45594000000E+02  0.51100000000E-03 0.  1.
         11   -1    0    0    0    0 -0.00000000000E+00 -0.00000000000E+00 -0.45593999997E+02  0.45594000000E+02  0.51100000000E-03 0. -1.
    9900012    2    1    2    0    0 -0.35730016990E+01 -0.17936073849E+02  0.40264694744E+01  0.72461506930E+02  0.69999917457E+02 0.  0.
         12    1    1    2    0    0  0.35730016990E+01  0.17936073849E+02 -0.40264694744E+01  0.18726493070E+02  0.00000000000E+00 0. -1.
         11    1    3    3    0    0  0.22966070249E+02 -0.67271537186E+01 -0.54048843642E+01  0.24533808409E+02  0.51100000000E-03 0. -1.
        -11    1    3    3    0    0 -0.36179889955E+01 -0.52527548514E+01 -0.13519810530E+02  0.14948797775E+02  0.51100000000E-03 0.  1.
        -12    1    3    3    0    0 -0.22921082952E+02 -0.59561652790E+01  0.22951164368E+02  0.32978900746E+02  0.00000000000E+00 0.  1.
</event>
<event>
 7    1  0.2886818E-013  0.7246184E+02  0.7816164E-02  0.1226707E+00
        -11   -1    0    0    0    0  0.00000000000E+00  0.00000000000E+00  0.45593999997E+02  0.45594000000E+02  0.51100000000E-03 0.  1.
         11   -1    0    0    0    0 -0.00000000000E+00 -0.00000000000E+00 -0.45593999997E+02  0.45594000000E+02  0.51100000000E-03 0. -1.
    9900012    2    1    2    0    0  0.15455359225E+02 -0.89493279865E+01 -0.56312100647E+01  0.72461838434E+02  0.70000349301E+02 0.  0.
         12    1    1    2    0    0 -0.15455359225E+02  0.89493279865E+01  0.56312100647E+01  0.18726161566E+02  0.00000000000E+00 0. -1.
         11    1    3    3    0    0  0.24372807049E+02  0.83615540933E+01 -0.11830150494E+02  0.28353161575E+02  0.51100000000E-03 0. -1.
        -11    1    3    3    0    0  0.77086601355E+01 -0.21724802226E+02 -0.49927488445E+01  0.23586394683E+02  0.51100000000E-03 0.  1.
        -12    1    3    3    0    0 -0.16626107960E+02  0.44139201460E+01  0.11191689274E+02  0.20522282177E+02  0.00000000000E+00 0.  1.
</event>
<event>
 7    1  0.2886818E-013  0.7246157E+02  0.7816164E-02  0.1226708E+00
        -11   -1    0    0    0    0  0.00000000000E+00  0.00000000000E+00  0.45593999997E+02  0.45594000000E+02  0.51100000000E-03 0. -1.
         11   -1    0    0    0    0 -0.00000000000E+00 -0.00000000000E+00 -0.45593999997E+02  0.45594000000E+02  0.51100000000E-03 0.  1.
    9900012    2    1    2    0    0  0.14353353789E+02  0.21995825019E+01 -0.11824642004E+02  0.72461572506E+02  0.70000002881E+02 0.  0.
         12    1    1    2    0    0 -0.14353353789E+02 -0.21995825019E+01  0.11824642004E+02  0.18726427494E+02  0.00000000000E+00 0. -1.
         11    1    3    3    0    0  0.13343268935E+02  0.14479754829E+02  0.88476071004E+01  0.21586715300E+02  0.51100000000E-03 0. -1.
        -11    1    3    3    0    0 -0.12168976826E+01  0.11893854441E+02 -0.23567212208E+02  0.26426465994E+02  0.51100000000E-03 0.  1.
         12    1    3    3    0    0  0.22269825366E+01 -0.24174026769E+02  0.28949631034E+01  0.24448391211E+02  0.00000000000E+00 0. -1.
</event>
<event>
 7    1  0.2886818E-013  0.7246154E+02  0.7816164E-02  0.1226708E+00
        -11   -1    0    0    0    0  0.00000000000E+00  0.00000000000E+00  0.45593999997E+02  0.45594000000E+02  0.51100000000E-03 0.  1.
         11   -1    0    0    0    0 -0.00000000000E+00 -0.00000000000E+00 -0.45593999997E+02  0.45594000000E+02  0.51100000000E-03 0. -1.
    9900012    2    1    2    0    0 -0.36309784185E+01  0.17053254488E+02 -0.68324687268E+01  0.72461544868E+02  0.69999966877E+02 0.  0.
         12    1    1    2    0    0  0.36309784185E+01 -0.17053254488E+02  0.68324687268E+01  0.18726455132E+02  0.00000000000E+00 0. -1.
         11    1    3    3    0    0 -0.70003637516E+01 -0.31001260207E+01 -0.19367804517E+02  0.20826130847E+02  0.51100000000E-03 0. -1.
        -11    1    3    3    0    0 -0.20558164295E+02  0.91594874481E+01  0.81324976467E-01  0.22506464483E+02  0.51100000000E-03 0.  1.
         12    1    3    3    0    0  0.23927549628E+02  0.10993893061E+02  0.12454010813E+02  0.29128949538E+02  0.00000000000E+00 0. -1.
</event>
<event>
 7    1  0.2886818E-013  0.7246157E+02  0.7816164E-02  0.1226708E+00
        -11   -1    0    0    0    0  0.00000000000E+00  0.00000000000E+00  0.45593999997E+02  0.45594000000E+02  0.51100000000E-03 0.  1.
         11   -1    0    0    0    0 -0.00000000000E+00 -0.00000000000E+00 -0.45593999997E+02  0.45594000000E+02  0.51100000000E-03 0. -1.
    9900012    2    1    2    0    0  0.18265700470E+02  0.19216383395E+01  0.36538708227E+01  0.72461567356E+02  0.69999996173E+02 0.  0.
         12    1    1    2    0    0 -0.18265700470E+02 -0.19216383395E+01 -0.36538708227E+01  0.18726432644E+02  0.00000000000E+00 0. -1.
         11    1    3    3    0    0  0.10462697836E+02 -0.79960053697E+01 -0.70899445806E+01  0.14955649845E+02  0.51100000000E-03 0. -1.
        -11    1    3    3    0    0  0.26471073944E+02 -0.27218649386E+01  0.19842971119E+02  0.33194424344E+02  0.51100000000E-03 0.  1.
        -12    1    3    3    0    0 -0.18668071309E+02  0.12639508648E+02 -0.90991557153E+01  0.24311493167E+02  0.00000000000E+00 0.  1.
</event>
<event>
 7    1  0.2886818E-013  0.7246162E+02  0.7816164E-02  0.1226708E+00
        -11   -1    0    0    0    0  0.00000000000E+00  0.00000000000E+00  0.45593999997E+02  0.45594000000E+02  0.51100000000E-03 0. -1.
         11   -1    0    0    0    0 -0.00000000000E+00 -0.00000000000E+00 -0.45593999997E+02  0.45594000000E+02  0.51100000000E-03 0.  1.
    9900012    2    1    2    0    0 -0.12894199796E+02  0.13579955054E+02  0.42041881913E-01  0.72461619272E+02  0.70000063803E+02 0.  0.
         12    1    1    2    0    0  0.12894199796E+02 -0.13579955054E+02 -0.42041881913E-01  0.18726380728E+02  0.00000000000E+00 0. -1.
         11    1    3    3    0    0 -0.56913348092E+00  0.29862647794E+01  0.14876104603E+02  0.15183549607E+02  0.51100000000E-03 0. -1.
        -11    1    3    3    0    0 -0.17496706938E+02 -0.11435220875E+02 -0.24901869783E+02  0.32511569465E+02  0.51100000000E-03 0.  1.
         12    1    3    3    0    0  0.51716406234E+01  0.22028911149E+02  0.10067807062E+02  0.24766500201E+02  0.00000000000E+00 0. -1.
</event>
<event>
 7    1  0.2886818E-013  0.7246155E+02  0.7816164E-02  0.1226708E+00
        -11   -1    0    0    0    0  0.00000000000E+00  0.00000000000E+00  0.45593999997E+02  0.45594000000E+02  0.51100000000E-03 0.  1.
         11   -1    0    0    0    0 -0.00000000000E+00 -0.00000000000E+00 -0.45593999997E+02  0.45594000000E+02  0.51100000000E-03 0. -1.
    9900012    2    1    2    0    0  0.18586376334E+02  0.28386020014E+00 -0.22684395617E+01  0.72461553997E+02  0.69999978770E+02 0.  0.
         12    1    1    2    0    0 -0.18586376334E+02 -0.28386020014E+00  0.22684395617E+01  0.18726446003E+02  0.00000000000E+00 0. -1.
         11    1    3    3    0    0  0.75774703633E+01 -0.90492036900E+01  0.65659135718E+01  0.13506197312E+02  0.51100000000E-03 0. -1.
        -11    1    3    3    0    0  0.29147459600E+02 -0.13400507604E+01  0.98666521574E+01  0.30801314294E+02  0.51100000000E-03 0.  1.
         12    1    3    3    0    0 -0.18138553629E+02  0.10673114650E+02 -0.18701005291E+02  0.28154042392E+02  0.00000000000E+00 0. -1.
</event>
<event>
 7    1  0.2886818E-013  0.7246156E+02  0.7816164E-02  0.1226708E+00
        -11   -1    0    0    0    0  0.00000000000E+00  0.00000000000E+00  0.45593999997E+02  0.45594000000E+02  0.51100000000E-03 0. -1.
         11   -1    0    0    0    0 -0.00000000000E+00 -0.00000000000E+00 -0.45593999997E+02  0.45594000000E+02  0.51100000000E-03 0.  1.
    9900012    2    1    2    0    0  0.44497062768E-01  0.10841111412E+02 -0.15269175419E+02  0.72461564285E+02  0.69999992172E+02 0.  0.
         12    1    1    2    0    0 -0.44497062768E-01 -0.10841111412E+02  0.15269175419E+02  0.18726435715E+02  0.00000000000E+00 0. -1.
         11    1    3    3    0    0  0.17632247932E+02 -0.18306971378E+02  0.16564740693E+01  0.25471263706E+02  0.51100000000E-03 0. -1.
        -11    1    3    3    0    0  0.24621922688E+01 -0.41765350223E+01 -0.28874252944E+01  0.56429655903E+01  0.51100000000E-03 0.  1.
        -12    1    3    3    0    0 -0.20049943138E+02  0.33324617812E+02 -0.14038224194E+02  0.41347334989E+02  0.00000000000E+00 0.  1.
</event>
<event>
 7    1  0.2886818E-013  0.7246159E+02  0.7816164E-02  0.1226708E+00
        -11   -1    0    0    0    0  0.00000000000E+00  0.00000000000E+00  0.45593999997E+02  0.45594000000E+02  0.51100000000E-03 0.  1.
         11   -1    0    0    0    0 -0.00000000000E+00 -0.00000000000E+00 -0.45593999997E+02  0.45594000000E+02  0.51100000000E-03 0. -1.
    9900012    2    1    2    0    0 -0.13493333404E+02  0.12953783433E+02  0.89878950727E+00  0.72461591531E+02  0.70000027665E+02 0.  0.
         12    1    1    2    0    0  0.13493333404E+02 -0.12953783433E+02 -0.89878950727E+00  0.18726408469E+02  0.00000000000E+00 0. -1.
         11    1    3    3    0    0 -0.68061078674E+00  0.29563171726E+01  0.14533953436E+02  0.14847183066E+02  0.51100000000E-03 0. -1.
        -11    1    3    3    0    0 -0.26512870285E+02  0.22063884870E+02  0.54651700275E+00  0.34497043169E+02  0.51100000000E-03 0.  1.
         12    1    3    3    0    0  0.13700147668E+02 -0.12066418610E+02 -0.14181680931E+02  0.23117365296E+02  0.00000000000E+00 0. -1.
</event>
<event>
 7    1  0.2886818E-013  0.7246158E+02  0.7816164E-02  0.1226708E+00
        -11   -1    0    0    0    0  0.00000000000E+00  0.00000000000E+00  0.45593999997E+02  0.45594000000E+02  0.51100000000E-03 0.  1.
         11   -1    0    0    0    0 -0.00000000000E+00 -0.00000000000E+00 -0.45593999997E+02  0.45594000000E+02  0.51100000000E-03 0. -1.
    9900012    2    1    2    0    0  0.10639673830E+02  0.62394351986E+01  0.14090624899E+02  0.72461576934E+02  0.70000008649E+02 0.  0.
         12    1    1    2    0    0 -0.10639673830E+02 -0.62394351986E+01 -0.14090624899E+02  0.18726423066E+02  0.00000000000E+00 0. -1.
         11    1    3    3    0    0  0.83908131679E+01  0.78174925435E+01  0.26311552354E+01  0.11766134175E+02  0.51100000000E-03 0. -1.
        -11    1    3    3    0    0  0.29985830754E+02 -0.82004508940E+01  0.58777586298E+01  0.31637722542E+02  0.51100000000E-03 0.  1.
         12    1    3    3    0    0 -0.27736970091E+02  0.66223935492E+01  0.55817110339E+01  0.29057720217E+02  0.00000000000E+00 0. -1.
</event>
<event>
 7    1  0.2886818E-013  0.7246155E+02  0.7816164E-02  0.1226708E+00
        -11   -1    0    0    0    0  0.00000000000E+00  0.00000000000E+00  0.45593999997E+02  0.45594000000E+02  0.51100000000E-03 0. -1.
         11   -1    0    0    0    0 -0.00000000000E+00 -0.00000000000E+00 -0.45593999997E+02  0.45594000000E+02  0.51100000000E-03 0.  1.
    9900012    2    1    2    0    0 -0.10912125686E+02  0.13857339883E+02 -0.62912227301E+01  0.72461552418E+02  0.69999976713E+02 0.  0.
         12    1    1    2    0    0  0.10912125686E+02 -0.13857339883E+02  0.62912227301E+01  0.18726447582E+02  0.00000000000E+00 0. -1.
         11    1    3    3    0    0  0.12081632709E+02 -0.12937684616E+02  0.62897779428E+01  0.18785921297E+02  0.51100000000E-03 0. -1.
        -11    1    3    3    0    0  0.31501259302E+01 -0.77339296962E+01  0.68660569961E+00  0.83790446693E+01  0.51100000000E-03 0.  1.
         12    1    3    3    0    0 -0.26143884325E+02  0.34528954194E+02 -0.13267606373E+02  0.45296586452E+02  0.00000000000E+00 0. -1.
</event>
<event>
 7    1  0.2886818E-013  0.7246155E+02  0.7816164E-02  0.1226708E+00
        -11   -1    0    0    0    0  0.00000000000E+00  0.00000000000E+00  0.45593999997E+02  0.45594000000E+02  0.51100000000E-03 0.  1.
         11   -1    0    0    0    0 -0.00000000000E+00 -0.00000000000E+00 -0.45593999997E+02  0.45594000000E+02  0.51100000000E-03 0. -1.
    9900012    2    1    2    0    0 -0.31422733565E+01  0.15023921013E+01  0.18399693089E+02  0.72461554271E+02  0.69999979126E+02 0.  0.
         12    1    1    2    0    0  0.31422733565E+01 -0.15023921013E+01 -0.18399693089E+02  0.18726445729E+02  0.00000000000E+00 0. -1.
         11    1    3    3    0    0 -0.15364127800E+02 -0.23440891648E+02 -0.23698582270E+01  0.28127354170E+02  0.51100000000E-03 0. -1.
        -11    1    3    3    0    0  0.81185718303E+01 -0.43966737628E+01  0.26442281590E+01  0.96038477475E+01  0.51100000000E-03 0.  1.
        -12    1    3    3    0    0  0.41032826135E+01  0.29339957512E+02  0.18125323157E+02  0.34730352353E+02  0.00000000000E+00 0.  1.
</event>
<event>
 7    1  0.2886818E-013  0.7246153E+02  0.7816164E-02  0.1226708E+00
        -11   -1    0    0    0    0  0.00000000000E+00  0.00000000000E+00  0.45593999997E+02  0.45594000000E+02  0.51100000000E-03 0.  1.
         11   -1    0    0    0    0 -0.00000000000E+00 -0.00000000000E+00 -0.45593999997E+02  0.45594000000E+02  0.51100000000E-03 0. -1.
    9900012    2    1    2    0    0 -0.16704723924E+02 -0.70090273997E+01 -0.47441098766E+01  0.72461525559E+02  0.69999941724E+02 0.  0.
         12    1    1    2    0    0  0.16704723924E+02  0.70090273997E+01  0.47441098766E+01  0.18726474441E+02  0.00000000000E+00 0. -1.
         11    1    3    3    0    0  0.11673497216E+02  0.99155141047E+01 -0.54281650296E+01  0.16249705630E+02  0.51100000000E-03 0. -1.
        -11    1    3    3    0    0  0.30058588840E+01 -0.23836385738E+02  0.14215010535E+01  0.24067179689E+02  0.51100000000E-03 0.  1.
         12    1    3    3    0    0 -0.31384080024E+02  0.69118442339E+01 -0.73744590046E+00  0.32144640240E+02  0.00000000000E+00 0. -1.
</event>
<event>
 7    1  0.2886818E-013  0.7246157E+02  0.7816164E-02  0.1226708E+00
        -11   -1    0    0    0    0  0.00000000000E+00  0.00000000000E+00  0.45593999997E+02  0.45594000000E+02  0.51100000000E-03 0.  1.
         11   -1    0    0    0    0 -0.00000000000E+00 -0.00000000000E+00 -0.45593999997E+02  0.45594000000E+02  0.51100000000E-03 0. -1.
    9900012    2    1    2    0    0  0.16558640642E+01  0.57613824150E+01  0.17741018485E+02  0.72461570815E+02  0.70000000679E+02 0.  0.
         12    1    1    2    0    0 -0.16558640642E+01 -0.57613824150E+01 -0.17741018485E+02  0.18726429185E+02  0.00000000000E+00 0. -1.
         11    1    3    3    0    0 -0.26755306297E+01 -0.26363983235E+01  0.19956424831E+00  0.37615005544E+01  0.51100000000E-03 0. -1.
        -11    1    3    3    0    0  0.12187635314E+02 -0.24182703286E+02 -0.60086999002E+01  0.27738890885E+02  0.51100000000E-03 0.  1.
         12    1    3    3    0    0 -0.78562406202E+01  0.32580484025E+02  0.23550154137E+02  0.40961179376E+02  0.00000000000E+00 0. -1.
</event>
<event>
 7    1  0.2886818E-013  0.7246153E+02  0.7816164E-02  0.1226708E+00
        -11   -1    0    0    0    0  0.00000000000E+00  0.00000000000E+00  0.45593999997E+02  0.45594000000E+02  0.51100000000E-03 0.  1.
         11   -1    0    0    0    0 -0.00000000000E+00 -0.00000000000E+00 -0.45593999997E+02  0.45594000000E+02  0.51100000000E-03 0. -1.
    9900012    2    1    2    0    0  0.17654809497E+02 -0.40363181497E+01  0.47640805738E+01  0.72461531398E+02  0.69999949330E+02 0.  0.
         12    1    1    2    0    0 -0.17654809497E+02  0.40363181497E+01 -0.47640805738E+01  0.18726468602E+02  0.00000000000E+00 0. -1.
         11    1    3    3    0    0  0.38653055379E+02  0.47324653251E+01  0.35872028224E+01  0.39106558817E+02  0.51100000000E-03 0. -1.
        -11    1    3    3    0    0 -0.81122589005E+01  0.73642574491E+01 -0.46479998362E+01  0.11901467766E+02  0.51100000000E-03 0.  1.
        -12    1    3    3    0    0 -0.12885986981E+02 -0.16133040924E+02  0.58248775877E+01  0.21453504815E+02  0.00000000000E+00 0.  1.
</event>
<event>
 7    1  0.2886818E-013  0.7246156E+02  0.7816164E-02  0.1226708E+00
        -11   -1    0    0    0    0  0.00000000000E+00  0.00000000000E+00  0.45593999997E+02  0.45594000000E+02  0.51100000000E-03 0.  1.
         11   -1    0    0    0    0 -0.00000000000E+00 -0.00000000000E+00 -0.45593999997E+02  0.45594000000E+02  0.51100000000E-03 0. -1.
    9900012    2    1    2    0    0 -0.12550583150E+02  0.85153637468E+01  0.10984116419E+02  0.72461564924E+02  0.69999993004E+02 0.  0.
         12    1    1    2    0    0  0.12550583150E+02 -0.85153637468E+01 -0.10984116419E+02  0.18726435076E+02  0.00000000000E+00 0. -1.
         11    1    3    3    0    0 -0.84795299871E+01 -0.93834936651E+01  0.10158804432E+02  0.16222012511E+02  0.51100000000E-03 0. -1.
        -11    1    3    3    0    0 -0.25157236091E+02 -0.30623954576E+01 -0.52797494255E+01  0.25887072989E+02  0.51100000000E-03 0.  1.
         12    1    3    3    0    0  0.21086182928E+02  0.20961252869E+02  0.61050614118E+01  0.30352479424E+02  0.00000000000E+00 0. -1.
</event>
<event>
 7    1  0.2886818E-013  0.7246158E+02  0.7816164E-02  0.1226708E+00
        -11   -1    0    0    0    0  0.00000000000E+00  0.00000000000E+00  0.45593999997E+02  0.45594000000E+02  0.51100000000E-03 0.  1.
         11   -1    0    0    0    0 -0.00000000000E+00 -0.00000000000E+00 -0.45593999997E+02  0.45594000000E+02  0.51100000000E-03 0. -1.
    9900012    2    1    2    0    0 -0.14910674164E+02  0.18333240407E+01  0.11179875107E+02  0.72461577798E+02  0.70000009775E+02 0.  0.
         12    1    1    2    0    0  0.14910674164E+02 -0.18333240407E+01 -0.11179875107E+02  0.18726422202E+02  0.00000000000E+00 0. -1.
         11    1    3    3    0    0  0.61752462125E+01  0.10858895951E+02  0.10450722804E+02  0.16287016131E+02  0.51100000000E-03 0. -1.
        -11    1    3    3    0    0 -0.62630728957E+01 -0.23707969084E+02  0.16897396286E+02  0.29779454020E+02  0.51100000000E-03 0.  1.
        -12    1    3    3    0    0 -0.14822847481E+02  0.14682397174E+02 -0.16168243983E+02  0.26395107647E+02  0.00000000000E+00 0.  1.
</event>
<event>
 7    1  0.2886818E-013  0.7246157E+02  0.7816164E-02  0.1226708E+00
        -11   -1    0    0    0    0  0.00000000000E+00  0.00000000000E+00  0.45593999997E+02  0.45594000000E+02  0.51100000000E-03 0. -1.
         11   -1    0    0    0    0 -0.00000000000E+00 -0.00000000000E+00 -0.45593999997E+02  0.45594000000E+02  0.51100000000E-03 0.  1.
    9900012    2    1    2    0    0  0.11244782078E+02 -0.61536820608E+01 -0.13651607387E+02  0.72461566513E+02  0.69999995074E+02 0.  0.
         12    1    1    2    0    0 -0.11244782078E+02  0.61536820608E+01  0.13651607387E+02  0.18726433487E+02  0.00000000000E+00 0. -1.
         11    1    3    3    0    0  0.18877630035E+01  0.31370061298E+01 -0.23941138012E+02  0.24219466266E+02  0.51100000000E-03 0. -1.
        -11    1    3    3    0    0 -0.39281575811E+01 -0.71359523138E+01 -0.16422139695E+02  0.18331364102E+02  0.51100000000E-03 0.  1.
         12    1    3    3    0    0  0.13285176656E+02 -0.21547358768E+01  0.26711670320E+02  0.29910736146E+02  0.00000000000E+00 0. -1.
</event>
<event>
 7    1  0.2886818E-013  0.7246157E+02  0.7816164E-02  0.1226708E+00
        -11   -1    0    0    0    0  0.00000000000E+00  0.00000000000E+00  0.45593999997E+02  0.45594000000E+02  0.51100000000E-03 0.  1.
         11   -1    0    0    0    0 -0.00000000000E+00 -0.00000000000E+00 -0.45593999997E+02  0.45594000000E+02  0.51100000000E-03 0. -1.
    9900012    2    1    2    0    0 -0.17183284703E+02  0.47100617850E+01  0.57644813106E+01  0.72461569481E+02  0.69999998941E+02 0.  0.
         12    1    1    2    0    0  0.17183284703E+02 -0.47100617850E+01 -0.57644813106E+01  0.18726430519E+02  0.00000000000E+00 0. -1.
         11    1    3    3    0    0  0.73328861216E+01  0.42442075321E+01  0.46490684654E+01  0.96642823999E+01  0.51100000000E-03 0. -1.
        -11    1    3    3    0    0 -0.29741366226E+02  0.17808087801E+02  0.17088063055E+02  0.38648140386E+02  0.51100000000E-03 0.  1.
         12    1    3    3    0    0  0.52251954013E+01 -0.17342233548E+02 -0.15972650209E+02  0.24149146695E+02  0.00000000000E+00 0. -1.
</event>
<event>
 7    1  0.2886818E-013  0.7246156E+02  0.7816164E-02  0.1226708E+00
        -11   -1    0    0    0    0  0.00000000000E+00  0.00000000000E+00  0.45593999997E+02  0.45594000000E+02  0.51100000000E-03 0.  1.
         11   -1    0    0    0    0 -0.00000000000E+00 -0.00000000000E+00 -0.45593999997E+02  0.45594000000E+02  0.51100000000E-03 0. -1.
    9900012    2    1    2    0    0  0.41534545258E+01  0.15622592259E+02  0.94531965702E+01  0.72461561503E+02  0.69999988548E+02 0.  0.
         12    1    1    2    0    0 -0.41534545258E+01 -0.15622592259E+02 -0.94531965702E+01  0.18726438497E+02  0.00000000000E+00 0. -1.
         11    1    3    3    0    0 -0.11140632644E+02  0.25639268796E+02 -0.91262473712E+01  0.29407043229E+02  0.51100000000E-03 0. -1.
        -11    1    3    3    0    0 -0.93830300945E+01 -0.68136199381E+00 -0.19705210359E+01  0.96118916627E+01  0.51100000000E-03 0.  1.
         12    1    3    3    0    0  0.24677117264E+02 -0.93353145434E+01  0.20549964977E+02  0.33442626612E+02  0.00000000000E+00 0. -1.
</event>
<event>
 7    1  0.2886818E-013  0.7246157E+02  0.7816164E-02  0.1226708E+00
        -11   -1    0    0    0    0  0.00000000000E+00  0.00000000000E+00  0.45593999997E+02  0.45594000000E+02  0.51100000000E-03 0. -1.
         11   -1    0    0    0    0 -0.00000000000E+00 -0.00000000000E+00 -0.45593999997E+02  0.45594000000E+02  0.51100000000E-03 0.  1.
    9900012    2    1    2    0    0  0.12960107044E+02  0.97707992411E+01 -0.93405764792E+01  0.72461567842E+02  0.69999996805E+02 0.  0.
         12    1    1    2    0    0 -0.12960107044E+02 -0.97707992411E+01  0.93405764792E+01  0.18726432158E+02  0.00000000000E+00 0. -1.
         11    1    3    3    0    0  0.87970478326E+01  0.10840725136E+01 -0.89563120119E+01  0.12600745569E+02  0.51100000000E-03 0. -1.
        -11    1    3    3    0    0 -0.15502168562E+01 -0.23043128754E+02 -0.11445826540E+02  0.25775878268E+02  0.51100000000E-03 0.  1.
         12    1    3    3    0    0  0.57132760678E+01  0.31729855481E+02  0.11061562072E+02  0.34084944004E+02  0.00000000000E+00 0. -1.
</event>
<event>
 7    1  0.2886818E-013  0.7246156E+02  0.7816164E-02  0.1226708E+00
        -11   -1    0    0    0    0  0.00000000000E+00  0.00000000000E+00  0.45593999997E+02  0.45594000000E+02  0.51100000000E-03 0.  1.
         11   -1    0    0    0    0 -0.00000000000E+00 -0.00000000000E+00 -0.45593999997E+02  0.45594000000E+02  0.51100000000E-03 0. -1.
    9900012    2    1    2    0    0  0.11685015211E+01 -0.13593745080E+02  0.12826708075E+02  0.72461555032E+02  0.69999980117E+02 0.  0.
         12    1    1    2    0    0 -0.11685015211E+01  0.13593745080E+02 -0.12826708075E+02  0.18726444968E+02  0.00000000000E+00 0. -1.
         11    1    3    3    0    0 -0.21037438238E+02 -0.99672928659E+01 -0.79882152044E+01  0.24611629712E+02  0.51100000000E-03 0. -1.
        -11    1    3    3    0    0 -0.60580551400E+01  0.97785031878E+01  0.31563705749E+01  0.11928194840E+02  0.51100000000E-03 0.  1.
        -12    1    3    3    0    0  0.28263994899E+02 -0.13404955402E+02  0.17658552704E+02  0.35921730479E+02  0.00000000000E+00 0.  1.
</event>
<event>
 7    1  0.2886818E-013  0.7246154E+02  0.7816164E-02  0.1226708E+00
        -11   -1    0    0    0    0  0.00000000000E+00  0.00000000000E+00  0.45593999997E+02  0.45594000000E+02  0.51100000000E-03 0.  1.
         11   -1    0    0    0    0 -0.00000000000E+00 -0.00000000000E+00 -0.45593999997E+02  0.45594000000E+02  0.51100000000E-03 0. -1.
    9900012    2    1    2    0    0 -0.27211284869E+01  0.13591292662E+02  0.12591761785E+02  0.72461541677E+02  0.69999962721E+02 0.  0.
         12    1    1    2    0    0  0.27211284869E+01 -0.13591292662E+02 -0.12591761785E+02  0.18726458323E+02  0.00000000000E+00 0. -1.
         11    1    3    3    0    0 -0.31005296471E+01 -0.15939153358E+02  0.17947134532E+02  0.24202676134E+02  0.51100000000E-03 0. -1.
        -11    1    3    3    0    0 -0.16997051867E+02  0.54781291807E+01 -0.51495783708E+01  0.18585688826E+02  0.51100000000E-03 0.  1.
        -12    1    3    3    0    0  0.17376453027E+02  0.24052316840E+02 -0.20579437662E+00  0.29673176717E+02  0.00000000000E+00 0.  1.
</event>
<event>
 7    1  0.2886818E-013  0.7246147E+02  0.7816164E-02  0.1226708E+00
        -11   -1    0    0    0    0  0.00000000000E+00  0.00000000000E+00  0.45593999997E+02  0.45594000000E+02  0.51100000000E-03 0.  1.
         11   -1    0    0    0    0 -0.00000000000E+00 -0.00000000000E+00 -0.45593999997E+02  0.45594000000E+02  0.51100000000E-03 0. -1.
    9900012    2    1    2    0    0 -0.17522255363E+02  0.21402378391E+01 -0.62508383061E+01  0.72461467205E+02  0.69999865706E+02 0.  0.
         12    1    1    2    0    0  0.17522255363E+02 -0.21402378391E+01  0.62508383061E+01  0.18726532795E+02  0.00000000000E+00 0. -1.
         11    1    3    3    0    0  0.18547318209E+02  0.11297946137E+02 -0.91565189931E+00  0.21736720506E+02  0.51100000000E-03 0. -1.
        -11    1    3    3    0    0 -0.14711182746E+02  0.94270861843E+01 -0.12544255324E+02  0.21509235078E+02  0.51100000000E-03 0.  1.
         12    1    3    3    0    0 -0.21358390826E+02 -0.18584794482E+02  0.72090689176E+01  0.29215511621E+02  0.00000000000E+00 0. -1.
</event>
<event>
 7    1  0.2886818E-013  0.7246140E+02  0.7816164E-02  0.1226708E+00
        -11   -1    0    0    0    0  0.00000000000E+00  0.00000000000E+00  0.45593999997E+02  0.45594000000E+02  0.51100000000E-03 0.  1.
         11   -1    0    0    0    0 -0.00000000000E+00 -0.00000000000E+00 -0.45593999997E+02  0.45594000000E+02  0.51100000000E-03 0. -1.
    9900012    2    1    2    0    0 -0.49220539537E+01 -0.38235053367E+01  0.17658983209E+02  0.72461401372E+02  0.69999779947E+02 0.  0.
         12    1    1    2    0    0  0.49220539537E+01  0.38235053367E+01 -0.17658983209E+02  0.18726598628E+02  0.00000000000E+00 0. -1.
         11    1    3    3    0    0 -0.64805684515E+01 -0.21231699241E+02 -0.11036906987E+02  0.24791049518E+02  0.51100000000E-03 0. -1.
        -11    1    3    3    0    0  0.23155375840E+01  0.15802325742E+02 -0.27228294134E+01  0.16201512690E+02  0.51100000000E-03 0.  1.
        -12    1    3    3    0    0 -0.75702308625E+00  0.16058681621E+01  0.31418719609E+02  0.31468839165E+02  0.00000000000E+00 0.  1.
</event>
<event>
 7    1  0.2886818E-013  0.7246144E+02  0.7816164E-02  0.1226708E+00
        -11   -1    0    0    0    0  0.00000000000E+00  0.00000000000E+00  0.45593999997E+02  0.45594000000E+02  0.51100000000E-03 0. -1.
         11   -1    0    0    0    0 -0.00000000000E+00 -0.00000000000E+00 -0.45593999997E+02  0.45594000000E+02  0.51100000000E-03 0.  1.
    9900012    2    1    2    0    0 -0.96766720644E+01 -0.65067504606E+01 -0.14652929819E+02  0.72461437687E+02  0.69999827254E+02 0.  0.
         12    1    1    2    0    0  0.96766720644E+01  0.65067504606E+01  0.14652929819E+02  0.18726562313E+02  0.00000000000E+00 0. -1.
         11    1    3    3    0    0 -0.22701437493E+02 -0.13992552636E+02  0.33477645661E+01  0.26876650114E+02  0.51100000000E-03 0. -1.
        -11    1    3    3    0    0  0.95078617667E+01 -0.83623013206E+01 -0.24908846567E+02  0.27942407847E+02  0.51100000000E-03 0.  1.
         12    1    3    3    0    0  0.35169036622E+01  0.15848103496E+02  0.69081521823E+01  0.17642379725E+02  0.00000000000E+00 0. -1.
</event>
<event>
 7    1  0.2886818E-013  0.7246160E+02  0.7816164E-02  0.1226708E+00
        -11   -1    0    0    0    0  0.00000000000E+00  0.00000000000E+00  0.45593999997E+02  0.45594000000E+02  0.51100000000E-03 0. -1.
         11   -1    0    0    0    0 -0.00000000000E+00 -0.00000000000E+00 -0.45593999997E+02  0.45594000000E+02  0.51100000000E-03 0.  1.
    9900012    2    1    2    0    0 -0.21278539817E+01 -0.16008210694E+02 -0.94809010910E+01  0.72461599980E+02  0.70000038671E+02 0.  0.
         12    1    1    2    0    0  0.21278539817E+01  0.16008210694E+02  0.94809010910E+01  0.18726400020E+02  0.00000000000E+00 0. -1.
         11    1    3    3    0    0  0.21480638374E+01 -0.45464882466E+01  0.20427401111E+01  0.54274783324E+01  0.51100000000E-03 0. -1.
        -11    1    3    3    0    0 -0.28386817339E+02 -0.81808563910E+01  0.13188963662E+02  0.32352535800E+02  0.51100000000E-03 0.  1.
         12    1    3    3    0    0  0.24110899520E+02 -0.32808660568E+01 -0.24712604865E+02  0.34681585848E+02  0.00000000000E+00 0. -1.
</event>
<event>
 7    1  0.2886818E-013  0.7246159E+02  0.7816164E-02  0.1226708E+00
        -11   -1    0    0    0    0  0.00000000000E+00  0.00000000000E+00  0.45593999997E+02  0.45594000000E+02  0.51100000000E-03 0.  1.
         11   -1    0    0    0    0 -0.00000000000E+00 -0.00000000000E+00 -0.45593999997E+02  0.45594000000E+02  0.51100000000E-03 0. -1.
    9900012    2    1    2    0    0 -0.16516958292E+02  0.79322658895E+01  0.38662196749E+01  0.72461590629E+02  0.70000026490E+02 0.  0.
         12    1    1    2    0    0  0.16516958292E+02 -0.79322658895E+01 -0.38662196749E+01  0.18726409371E+02  0.00000000000E+00 0. -1.
         11    1    3    3    0    0 -0.16336273216E+02  0.23801689642E+02  0.73421638203E+01  0.29787608535E+02  0.51100000000E-03 0. -1.
        -11    1    3    3    0    0 -0.16218932168E+02  0.12791857898E+01  0.60190502112E+01  0.17347018264E+02  0.51100000000E-03 0.  1.
        -12    1    3    3    0    0  0.16038247093E+02 -0.17148609542E+02 -0.94949943565E+01  0.25326963830E+02  0.00000000000E+00 0.  1.
</event>
<event>
 7    1  0.2886818E-013  0.7246225E+02  0.7816164E-02  0.1226706E+00
        -11   -1    0    0    0    0  0.00000000000E+00  0.00000000000E+00  0.45593999997E+02  0.45594000000E+02  0.51100000000E-03 0.  1.
         11   -1    0    0    0    0 -0.00000000000E+00 -0.00000000000E+00 -0.45593999997E+02  0.45594000000E+02  0.51100000000E-03 0. -1.
    9900012    2    1    2    0    0 -0.83275141774E+01 -0.98560226285E+01  0.13570742707E+02  0.72462249493E+02  0.70000884777E+02 0.  0.
         12    1    1    2    0    0  0.83275141774E+01  0.98560226285E+01 -0.13570742707E+02  0.18725750507E+02  0.00000000000E+00 0. -1.
         11    1    3    3    0    0 -0.11321748651E+02 -0.12832826332E+02 -0.24631209390E+01  0.17289603501E+02  0.51100000000E-03 0. -1.
        -11    1    3    3    0    0 -0.17282206768E+02  0.87439878753E+01 -0.98998948764E+01  0.21751779549E+02  0.51100000000E-03 0.  1.
         12    1    3    3    0    0  0.20276441242E+02 -0.57671841718E+01  0.25933758522E+02  0.33420866443E+02  0.00000000000E+00 0. -1.
</event>
<event>
 7    1  0.2886818E-013  0.7246156E+02  0.7816164E-02  0.1226708E+00
        -11   -1    0    0    0    0  0.00000000000E+00  0.00000000000E+00  0.45593999997E+02  0.45594000000E+02  0.51100000000E-03 0. -1.
         11   -1    0    0    0    0 -0.00000000000E+00 -0.00000000000E+00 -0.45593999997E+02  0.45594000000E+02  0.51100000000E-03 0.  1.
    9900012    2    1    2    0    0  0.96081344274E+01  0.56547638397E+01 -0.15046159043E+02  0.72461561385E+02  0.69999988394E+02 0.  0.
         12    1    1    2    0    0 -0.96081344274E+01 -0.56547638397E+01  0.15046159043E+02  0.18726438615E+02  0.00000000000E+00 0. -1.
         11    1    3    3    0    0  0.15507465938E+02  0.82638781170E+00 -0.10554188036E+02  0.18776456055E+02  0.51100000000E-03 0. -1.
        -11    1    3    3    0    0  0.14269801031E+00  0.97879980378E+01 -0.27603272856E+02  0.29287641437E+02  0.51100000000E-03 0.  1.
         12    1    3    3    0    0 -0.60420295210E+01 -0.49596220098E+01  0.23111301849E+02  0.24397463893E+02  0.00000000000E+00 0. -1.
</event>
<event>
 7    1  0.2886818E-013  0.7246163E+02  0.7816164E-02  0.1226708E+00
        -11   -1    0    0    0    0  0.00000000000E+00  0.00000000000E+00  0.45593999997E+02  0.45594000000E+02  0.51100000000E-03 0. -1.
         11   -1    0    0    0    0 -0.00000000000E+00 -0.00000000000E+00 -0.45593999997E+02  0.45594000000E+02  0.51100000000E-03 0.  1.
    9900012    2    1    2    0    0  0.15026670217E+02 -0.54867896071E+01 -0.97350485037E+01  0.72461632296E+02  0.70000080769E+02 0.  0.
         12    1    1    2    0    0 -0.15026670217E+02  0.54867896071E+01  0.97350485037E+01  0.18726367704E+02  0.00000000000E+00 0. -1.
         11    1    3    3    0    0  0.15477620839E+02 -0.72687491511E+01  0.10386632038E+01  0.17130974362E+02  0.51100000000E-03 0. -1.
        -11    1    3    3    0    0  0.22138998380E+02  0.43215411244E-01  0.10273257369E+02  0.24406493687E+02  0.51100000000E-03 0.  1.
         12    1    3    3    0    0 -0.22589949002E+02  0.17387441327E+01 -0.21046969077E+02  0.30924164247E+02  0.00000000000E+00 0. -1.
</event>
<event>
 7    1  0.2886818E-013  0.7246157E+02  0.7816164E-02  0.1226708E+00
        -11   -1    0    0    0    0  0.00000000000E+00  0.00000000000E+00  0.45593999997E+02  0.45594000000E+02  0.51100000000E-03 0.  1.
         11   -1    0    0    0    0 -0.00000000000E+00 -0.00000000000E+00 -0.45593999997E+02  0.45594000000E+02  0.51100000000E-03 0. -1.
    9900012    2    1    2    0    0 -0.36004526581E+00 -0.13754935773E+02  0.12702407647E+02  0.72461573465E+02  0.70000004131E+02 0.  0.
         12    1    1    2    0    0  0.36004526581E+00  0.13754935773E+02 -0.12702407647E+02  0.18726426535E+02  0.00000000000E+00 0. -1.
         11    1    3    3    0    0 -0.13532438805E+02  0.12045858409E+02  0.50926030691E+01  0.18819251077E+02  0.51100000000E-03 0. -1.
        -11    1    3    3    0    0  0.14412973535E+02  0.36138242593E+00  0.20010510379E+02  0.24663433039E+02  0.51100000000E-03 0.  1.
         12    1    3    3    0    0 -0.12405799960E+01 -0.26162176608E+02 -0.12400705801E+02  0.28978889350E+02  0.00000000000E+00 0. -1.
</event>
<event>
 7    1  0.2886818E-013  0.7246165E+02  0.7816164E-02  0.1226708E+00
        -11   -1    0    0    0    0  0.00000000000E+00  0.00000000000E+00  0.45593999997E+02  0.45594000000E+02  0.51100000000E-03 0.  1.
         11   -1    0    0    0    0 -0.00000000000E+00 -0.00000000000E+00 -0.45593999997E+02  0.45594000000E+02  0.51100000000E-03 0. -1.
    9900012    2    1    2    0    0  0.67422201730E+01  0.16773375295E+02  0.48859700298E+01  0.72461645449E+02  0.70000097903E+02 0.  0.
         12    1    1    2    0    0 -0.67422201730E+01 -0.16773375295E+02 -0.48859700298E+01  0.18726354551E+02  0.00000000000E+00 0. -1.
         11    1    3    3    0    0  0.17718755251E+01  0.31601907882E+02  0.35600134931E+01  0.31851119619E+02  0.51100000000E-03 0. -1.
        -11    1    3    3    0    0 -0.15825755292E+02 -0.16961973844E+01  0.17429661553E+01  0.16011544192E+02  0.51100000000E-03 0.  1.
        -12    1    3    3    0    0  0.20796099940E+02 -0.13132335203E+02 -0.41700961865E+00  0.24598981638E+02  0.00000000000E+00 0.  1.
</event>
<event>
 7    1  0.2886818E-013  0.7246157E+02  0.7816164E-02  0.1226708E+00
        -11   -1    0    0    0    0  0.00000000000E+00  0.00000000000E+00  0.45593999997E+02  0.45594000000E+02  0.51100000000E-03 0. -1.
         11   -1    0    0    0    0 -0.00000000000E+00 -0.00000000000E+00 -0.45593999997E+02  0.45594000000E+02  0.51100000000E-03 0.  1.
    9900012    2    1    2    0    0 -0.17086490237E+02  0.32835260202E+01 -0.69245589312E+01  0.72461569263E+02  0.69999998657E+02 0.  0.
         12    1    1    2    0    0  0.17086490237E+02 -0.32835260202E+01  0.69245589312E+01  0.18726430737E+02  0.00000000000E+00 0. -1.
         11    1    3    3    0    0 -0.46058851683E+01 -0.22415013793E-02 -0.14621363176E+02  0.15329658985E+02  0.51100000000E-03 0. -1.
        -11    1    3    3    0    0 -0.18713382466E+02  0.15898561110E+02  0.24857981172E+02  0.34941009672E+02  0.51100000000E-03 0.  1.
         12    1    3    3    0    0  0.62327773969E+01 -0.12612793589E+02 -0.17161176927E+02  0.22190900606E+02  0.00000000000E+00 0. -1.
</event>
<event>
 7    1  0.2886818E-013  0.7246167E+02  0.7816164E-02  0.1226708E+00
        -11   -1    0    0    0    0  0.00000000000E+00  0.00000000000E+00  0.45593999997E+02  0.45594000000E+02  0.51100000000E-03 0.  1.
         11   -1    0    0    0    0 -0.00000000000E+00 -0.00000000000E+00 -0.45593999997E+02  0.45594000000E+02  0.51100000000E-03 0. -1.
    9900012    2    1    2    0    0  0.99256204359E+01 -0.53531977216E+00  0.15870447405E+02  0.72461665358E+02  0.70000123837E+02 0.  0.
         12    1    1    2    0    0 -0.99256204359E+01  0.53531977216E+00 -0.15870447405E+02  0.18726334642E+02  0.00000000000E+00 0. -1.
         11    1    3    3    0    0  0.47984379904E+01  0.85175401978E+00  0.77693049614E+01  0.91712917249E+01  0.51100000000E-03 0. -1.
        -11    1    3    3    0    0 -0.21794607209E+02 -0.13456540012E+02  0.18943082149E+02  0.31857867694E+02  0.51100000000E-03 0.  1.
         12    1    3    3    0    0  0.26921789654E+02  0.12069466220E+02 -0.10841939705E+02  0.31432505939E+02  0.00000000000E+00 0. -1.
</event>
<event>
 7    1  0.2886818E-013  0.7246156E+02  0.7816164E-02  0.1226708E+00
        -11   -1    0    0    0    0  0.00000000000E+00  0.00000000000E+00  0.45593999997E+02  0.45594000000E+02  0.51100000000E-03 0.  1.
         11   -1    0    0    0    0 -0.00000000000E+00 -0.00000000000E+00 -0.45593999997E+02  0.45594000000E+02  0.51100000000E-03 0. -1.
    9900012    2    1    2    0    0 -0.11060251672E+02  0.11404887663E+02  0.99135785606E+01  0.72461556944E+02  0.69999982608E+02 0.  0.
         12    1    1    2    0    0  0.11060251672E+02 -0.11404887663E+02 -0.99135785606E+01  0.18726443056E+02  0.00000000000E+00 0. -1.
         11    1    3    3    0    0 -0.81210519971E+01  0.20588359628E+02  0.11852148151E+01  0.22163861851E+02  0.51100000000E-03 0. -1.
        -11    1    3    3    0    0 -0.46202273975E+01  0.13744147729E+02  0.19992603898E+02  0.24697212573E+02  0.51100000000E-03 0.  1.
         12    1    3    3    0    0  0.16810277223E+01 -0.22927619694E+02 -0.11264240152E+02  0.25600482520E+02  0.00000000000E+00 0. -1.
</event>
<event>
 7    1  0.2886818E-013  0.7246153E+02  0.7816164E-02  0.1226708E+00
        -11   -1    0    0    0    0  0.00000000000E+00  0.00000000000E+00  0.45593999997E+02  0.45594000000E+02  0.51100000000E-03 0.  1.
         11   -1    0    0    0    0 -0.00000000000E+00 -0.00000000000E+00 -0.45593999997E+02  0.45594000000E+02  0.51100000000E-03 0. -1.
    9900012    2    1    2    0    0  0.89606907439E+01 -0.40780541664E+01  0.15929725679E+02  0.72461530375E+02  0.69999947998E+02 0.  0.
         12    1    1    2    0    0 -0.89606907439E+01  0.40780541664E+01 -0.15929725679E+02  0.18726469625E+02  0.00000000000E+00 0. -1.
         11    1    3    3    0    0 -0.30610725067E+01  0.56930644701E+01  0.46904674643E+01  0.79863404164E+01  0.51100000000E-03 0. -1.
        -11    1    3    3    0    0 -0.24403310966E+02 -0.61357119430E+01  0.11963354456E+02  0.27861988393E+02  0.51100000000E-03 0.  1.
         12    1    3    3    0    0  0.36425074216E+02 -0.36354066936E+01 -0.72409624060E+00  0.36613201565E+02  0.00000000000E+00 0. -1.
</event>
<event>
 7    1  0.2886818E-013  0.7246157E+02  0.7816164E-02  0.1226708E+00
        -11   -1    0    0    0    0  0.00000000000E+00  0.00000000000E+00  0.45593999997E+02  0.45594000000E+02  0.51100000000E-03 0.  1.
         11   -1    0    0    0    0 -0.00000000000E+00 -0.00000000000E+00 -0.45593999997E+02  0.45594000000E+02  0.51100000000E-03 0. -1.
    9900012    2    1    2    0    0  0.14617839378E+02  0.55744317946E+01  0.10291925496E+02  0.72461568190E+02  0.69999997259E+02 0.  0.
         12    1    1    2    0    0 -0.14617839378E+02 -0.55744317946E+01 -0.10291925496E+02  0.18726431810E+02  0.00000000000E+00 0. -1.
         11    1    3    3    0    0 -0.14405912655E+02  0.46672212190E+01 -0.53017979956E+01  0.16044386419E+02  0.51100000000E-03 0. -1.
        -11    1    3    3    0    0  0.18076958010E+02  0.27634383944E+01 -0.15138997746E+02  0.23740308668E+02  0.51100000000E-03 0.  1.
         12    1    3    3    0    0  0.10946794023E+02 -0.18562278188E+01  0.30732721237E+02  0.32676873102E+02  0.00000000000E+00 0. -1.
</event>
<event>
 7    1  0.2886818E-013  0.7246154E+02  0.7816164E-02  0.1226708E+00
        -11   -1    0    0    0    0  0.00000000000E+00  0.00000000000E+00  0.45593999997E+02  0.45594000000E+02  0.51100000000E-03 0.  1.
         11   -1    0    0    0    0 -0.00000000000E+00 -0.00000000000E+00 -0.45593999997E+02  0.45594000000E+02  0.51100000000E-03 0. -1.
    9900012    2    1    2    0    0  0.43135594205E+01  0.11639052588E+02  0.14021623309E+02  0.72461541172E+02  0.69999962063E+02 0.  0.
         12    1    1    2    0    0 -0.43135594205E+01 -0.11639052588E+02 -0.14021623309E+02  0.18726458828E+02  0.00000000000E+00 0. -1.
         11    1    3    3    0    0  0.17010106626E+02  0.24260365455E+02 -0.65565251329E+01  0.30346286123E+02  0.51100000000E-03 0. -1.
        -11    1    3    3    0    0 -0.12286906015E+01  0.69284944594E+01 -0.44688235254E+01  0.83357123289E+01  0.51100000000E-03 0.  1.
        -12    1    3    3    0    0 -0.11467856604E+02 -0.19549807326E+02  0.25046971968E+02  0.33779542719E+02  0.00000000000E+00 0.  1.
</event>
<event>
 7    1  0.2886818E-013  0.7246158E+02  0.7816164E-02  0.1226708E+00
        -11   -1    0    0    0    0  0.00000000000E+00  0.00000000000E+00  0.45593999997E+02  0.45594000000E+02  0.51100000000E-03 0.  1.
         11   -1    0    0    0    0 -0.00000000000E+00 -0.00000000000E+00 -0.45593999997E+02  0.45594000000E+02  0.51100000000E-03 0. -1.
    9900012    2    1    2    0    0  0.25114958072E+01  0.96497195228E+01  0.15851001865E+02  0.72461575937E+02  0.70000007350E+02 0.  0.
         12    1    1    2    0    0 -0.25114958072E+01 -0.96497195228E+01 -0.15851001865E+02  0.18726424063E+02  0.00000000000E+00 0. -1.
         11    1    3    3    0    0  0.43724997966E+01  0.24726519917E+02 -0.67093133795E+01  0.25991045150E+02  0.51100000000E-03 0. -1.
        -11    1    3    3    0    0  0.10282774112E+02  0.84141028214E+01  0.12299221114E+02  0.18105342030E+02  0.51100000000E-03 0.  1.
         12    1    3    3    0    0 -0.12143778102E+02 -0.23490903216E+02  0.10261094131E+02  0.28365188757E+02  0.00000000000E+00 0. -1.
</event>
<event>
 7    1  0.2886818E-013  0.7246159E+02  0.7816164E-02  0.1226708E+00
        -11   -1    0    0    0    0  0.00000000000E+00  0.00000000000E+00  0.45593999997E+02  0.45594000000E+02  0.51100000000E-03 0. -1.
         11   -1    0    0    0    0 -0.00000000000E+00 -0.00000000000E+00 -0.45593999997E+02  0.45594000000E+02  0.51100000000E-03 0.  1.
    9900012    2    1    2    0    0 -0.23768664054E+01 -0.78809830347E+01 -0.16820198661E+02  0.72461588958E+02  0.70000024313E+02 0.  0.
         12    1    1    2    0    0  0.23768664054E+01  0.78809830347E+01  0.16820198661E+02  0.18726411042E+02  0.00000000000E+00 0. -1.
         11    1    3    3    0    0  0.54477584526E-01  0.14667629999E+01 -0.63956264021E+00  0.16010628148E+01  0.51100000000E-03 0. -1.
        -11    1    3    3    0    0 -0.16546289586E+02  0.25857596234E+02 -0.36496214686E+01  0.30914636003E+02  0.51100000000E-03 0.  1.
         12    1    3    3    0    0  0.14114945597E+02 -0.35205342268E+02 -0.12531014552E+02  0.39945890141E+02  0.00000000000E+00 0. -1.
</event>
<event>
 7    1  0.2886818E-013  0.7246155E+02  0.7816164E-02  0.1226708E+00
        -11   -1    0    0    0    0  0.00000000000E+00  0.00000000000E+00  0.45593999997E+02  0.45594000000E+02  0.51100000000E-03 0. -1.
         11   -1    0    0    0    0 -0.00000000000E+00 -0.00000000000E+00 -0.45593999997E+02  0.45594000000E+02  0.51100000000E-03 0.  1.
    9900012    2    1    2    0    0  0.13203273799E+02 -0.30282524568E+01 -0.12929933754E+02  0.72461549753E+02  0.69999973241E+02 0.  0.
         12    1    1    2    0    0 -0.13203273799E+02  0.30282524568E+01  0.12929933754E+02  0.18726450247E+02  0.00000000000E+00 0. -1.
         11    1    3    3    0    0  0.14160662743E+02  0.16915348719E+02 -0.23735468065E+02  0.32404102149E+02  0.51100000000E-03 0. -1.
        -11    1    3    3    0    0  0.12621657423E+02  0.69429219411E-01 -0.18576996867E+01  0.12757825242E+02  0.51100000000E-03 0.  1.
         12    1    3    3    0    0 -0.13579046367E+02 -0.20013030395E+02  0.12663233997E+02  0.27299622362E+02  0.00000000000E+00 0. -1.
</event>
<event>
 7    1  0.2886818E-013  0.7246153E+02  0.7816164E-02  0.1226708E+00
        -11   -1    0    0    0    0  0.00000000000E+00  0.00000000000E+00  0.45593999997E+02  0.45594000000E+02  0.51100000000E-03 0. -1.
         11   -1    0    0    0    0 -0.00000000000E+00 -0.00000000000E+00 -0.45593999997E+02  0.45594000000E+02  0.51100000000E-03 0.  1.
    9900012    2    1    2    0    0 -0.20995326919E+01 -0.48800486259E+00 -0.18602005465E+02  0.72461526932E+02  0.69999943512E+02 0.  0.
         12    1    1    2    0    0  0.20995326919E+01  0.48800486259E+00  0.18602005465E+02  0.18726473068E+02  0.00000000000E+00 0. -1.
         11    1    3    3    0    0  0.55164165614E+01 -0.14642639943E+02  0.90503672396E+01  0.18076141834E+02  0.51100000000E-03 0. -1.
        -11    1    3    3    0    0  0.69382493653E+01  0.20448424138E+01  0.99406183709E+01  0.12293761776E+02  0.51100000000E-03 0.  1.
        -12    1    3    3    0    0 -0.14554198619E+02  0.12109792666E+02 -0.37592991075E+02  0.42091623321E+02  0.00000000000E+00 0.  1.
</event>
<event>
 7    1  0.2886818E-013  0.7246158E+02  0.7816164E-02  0.1226708E+00
        -11   -1    0    0    0    0  0.00000000000E+00  0.00000000000E+00  0.45593999997E+02  0.45594000000E+02  0.51100000000E-03 0. -1.
         11   -1    0    0    0    0 -0.00000000000E+00 -0.00000000000E+00 -0.45593999997E+02  0.45594000000E+02  0.51100000000E-03 0.  1.
    9900012    2    1    2    0    0  0.12557543430E+02  0.99516160229E+01 -0.96928885721E+01  0.72461584237E+02  0.70000018162E+02 0.  0.
         12    1    1    2    0    0 -0.12557543430E+02 -0.99516160229E+01  0.96928885721E+01  0.18726415763E+02  0.00000000000E+00 0. -1.
         11    1    3    3    0    0 -0.11935710567E+02  0.53161644238E+01  0.91173458935E+01  0.15932632781E+02  0.51100000000E-03 0. -1.
        -11    1    3    3    0    0  0.14429996667E+02 -0.14089107308E+02  0.85298715182E+01  0.21897179200E+02  0.51100000000E-03 0.  1.
         12    1    3    3    0    0  0.10063257331E+02  0.18724558907E+02 -0.27340105984E+02  0.34631772256E+02  0.00000000000E+00 0. -1.
</event>
<event>
 7    1  0.2886818E-013  0.7246166E+02  0.7816164E-02  0.1226708E+00
        -11   -1    0    0    0    0  0.00000000000E+00  0.00000000000E+00  0.45593999997E+02  0.45594000000E+02  0.51100000000E-03 0. -1.
         11   -1    0    0    0    0 -0.00000000000E+00 -0.00000000000E+00 -0.45593999997E+02  0.45594000000E+02  0.51100000000E-03 0.  1.
    9900012    2    1    2    0    0  0.10670399663E+02 -0.13066262116E+02  0.81296572956E+01  0.72461655926E+02  0.70000111551E+02 0.  0.
         12    1    1    2    0    0 -0.10670399663E+02  0.13066262116E+02 -0.81296572956E+01  0.18726344074E+02  0.00000000000E+00 0. -1.
         11    1    3    3    0    0 -0.57223711288E+01  0.92618788234E+01 -0.20777607617E+02  0.23457129177E+02  0.51100000000E-03 0. -1.
        -11    1    3    3    0    0 -0.56980650229E+01  0.23760559137E+01  0.67040624773E+01  0.91136184181E+01  0.51100000000E-03 0.  1.
        -12    1    3    3    0    0  0.22090835814E+02 -0.24704196853E+02  0.22203202435E+02  0.39890908331E+02  0.00000000000E+00 0.  1.
</event>
<event>
 7    1  0.2886818E-013  0.7246154E+02  0.7816164E-02  0.1226708E+00
        -11   -1    0    0    0    0  0.00000000000E+00  0.00000000000E+00  0.45593999997E+02  0.45594000000E+02  0.51100000000E-03 0.  1.
         11   -1    0    0    0    0 -0.00000000000E+00 -0.00000000000E+00 -0.45593999997E+02  0.45594000000E+02  0.51100000000E-03 0. -1.
    9900012    2    1    2    0    0 -0.11153055684E+02 -0.26648711620E+01  0.14805005067E+02  0.72461538390E+02  0.69999958439E+02 0.  0.
         12    1    1    2    0    0  0.11153055684E+02  0.26648711620E+01 -0.14805005067E+02  0.18726461610E+02  0.00000000000E+00 0. -1.
         11    1    3    3    0    0  0.17403584681E+01 -0.57806909490E+01  0.17409798567E+01  0.62830125392E+01  0.51100000000E-03 0. -1.
        -11    1    3    3    0    0 -0.13785959461E+02 -0.25596607754E+02  0.21590988224E+02  0.36213392268E+02  0.51100000000E-03 0.  1.
         12    1    3    3    0    0  0.89254530958E+00  0.28712427541E+02 -0.85269630141E+01  0.29965133583E+02  0.00000000000E+00 0. -1.
</event>
<event>
 7    1  0.2886818E-013  0.7246158E+02  0.7816164E-02  0.1226708E+00
        -11   -1    0    0    0    0  0.00000000000E+00  0.00000000000E+00  0.45593999997E+02  0.45594000000E+02  0.51100000000E-03 0.  1.
         11   -1    0    0    0    0 -0.00000000000E+00 -0.00000000000E+00 -0.45593999997E+02  0.45594000000E+02  0.51100000000E-03 0. -1.
    9900012    2    1    2    0    0 -0.18527381562E+02  0.22098900836E+01 -0.15910458762E+01  0.72461577258E+02  0.70000009072E+02 0.  0.
         12    1    1    2    0    0  0.18527381562E+02 -0.22098900836E+01  0.15910458762E+01  0.18726422742E+02  0.00000000000E+00 0. -1.
         11    1    3    3    0    0 -0.26872318920E+02  0.63189483684E+01  0.13698941959E+02  0.30817391902E+02  0.51100000000E-03 0. -1.
        -11    1    3    3    0    0  0.58992069532E+01  0.16089089721E+02 -0.17959671648E+01  0.17230349649E+02  0.51100000000E-03 0.  1.
         12    1    3    3    0    0  0.24457304050E+01 -0.20198148006E+02 -0.13494020670E+02  0.24413835707E+02  0.00000000000E+00 0. -1.
</event>
<event>
 7    1  0.2886818E-013  0.7246155E+02  0.7816164E-02  0.1226708E+00
        -11   -1    0    0    0    0  0.00000000000E+00  0.00000000000E+00  0.45593999997E+02  0.45594000000E+02  0.51100000000E-03 0.  1.
         11   -1    0    0    0    0 -0.00000000000E+00 -0.00000000000E+00 -0.45593999997E+02  0.45594000000E+02  0.51100000000E-03 0. -1.
    9900012    2    1    2    0    0 -0.47575034188E+01  0.31310597458E+01  0.17839351045E+02  0.72461552937E+02  0.69999977389E+02 0.  0.
         12    1    1    2    0    0  0.47575034188E+01 -0.31310597458E+01 -0.17839351045E+02  0.18726447063E+02  0.00000000000E+00 0. -1.
         11    1    3    3    0    0 -0.24146490743E+02 -0.42985538102E+01 -0.11192140974E+02  0.26959128322E+02  0.51100000000E-03 0. -1.
        -11    1    3    3    0    0 -0.39590363798E+01  0.68080923205E+01  0.18050022024E+02  0.19693333528E+02  0.51100000000E-03 0.  1.
         12    1    3    3    0    0  0.23348023704E+02  0.62152123548E+00  0.10981469994E+02  0.25809091087E+02  0.00000000000E+00 0. -1.
</event>
<event>
 7    1  0.2886818E-013  0.7246152E+02  0.7816164E-02  0.1226708E+00
        -11   -1    0    0    0    0  0.00000000000E+00  0.00000000000E+00  0.45593999997E+02  0.45594000000E+02  0.51100000000E-03 0.  1.
         11   -1    0    0    0    0 -0.00000000000E+00 -0.00000000000E+00 -0.45593999997E+02  0.45594000000E+02  0.51100000000E-03 0. -1.
    9900012    2    1    2    0    0  0.13398600066E+02 -0.11788988164E+02 -0.56726069896E+01  0.72461516195E+02  0.69999929525E+02 0.  0.
         12    1    1    2    0    0 -0.13398600066E+02  0.11788988164E+02  0.56726069896E+01  0.18726483805E+02  0.00000000000E+00 0. -1.
         11    1    3    3    0    0 -0.17778630159E+02  0.24792985982E+01 -0.14865084907E+02  0.23306594805E+02  0.51100000000E-03 0. -1.
        -11    1    3    3    0    0 -0.52092893044E+01  0.36237655527E+01  0.55740952058E+01  0.84462364081E+01  0.51100000000E-03 0.  1.
        -12    1    3    3    0    0  0.36386519529E+02 -0.17892052315E+02  0.36183827114E+01  0.40708684981E+02  0.00000000000E+00 0.  1.
</event>
<event>
 7    1  0.2886818E-013  0.7246158E+02  0.7816164E-02  0.1226708E+00
        -11   -1    0    0    0    0  0.00000000000E+00  0.00000000000E+00  0.45593999997E+02  0.45594000000E+02  0.51100000000E-03 0. -1.
         11   -1    0    0    0    0 -0.00000000000E+00 -0.00000000000E+00 -0.45593999997E+02  0.45594000000E+02  0.51100000000E-03 0.  1.
    9900012    2    1    2    0    0 -0.50897473870E+01  0.17022277509E+02 -0.59173913530E+01  0.72461575342E+02  0.70000006575E+02 0.  0.
         12    1    1    2    0    0  0.50897473870E+01 -0.17022277509E+02  0.59173913530E+01  0.18726424658E+02  0.00000000000E+00 0. -1.
         11    1    3    3    0    0 -0.58330772114E+01  0.10186969022E+02  0.40710603596E+01  0.12424679485E+02  0.51100000000E-03 0. -1.
        -11    1    3    3    0    0  0.18989185755E+02  0.25642926323E+02 -0.11168483958E+02  0.33806565638E+02  0.51100000000E-03 0.  1.
        -12    1    3    3    0    0 -0.18245855931E+02 -0.18807617835E+02  0.11800322453E+01  0.26230330218E+02  0.00000000000E+00 0.  1.
</event>
<event>
 7    1  0.2886818E-013  0.7246148E+02  0.7816164E-02  0.1226708E+00
        -11   -1    0    0    0    0  0.00000000000E+00  0.00000000000E+00  0.45593999997E+02  0.45594000000E+02  0.51100000000E-03 0.  1.
         11   -1    0    0    0    0 -0.00000000000E+00 -0.00000000000E+00 -0.45593999997E+02  0.45594000000E+02  0.51100000000E-03 0. -1.
    9900012    2    1    2    0    0  0.33207478402E+01 -0.69330393001E+01  0.17075950744E+02  0.72461481531E+02  0.69999884370E+02 0.  0.
         12    1    1    2    0    0 -0.33207478402E+01  0.69330393001E+01 -0.17075950744E+02  0.18726518469E+02  0.00000000000E+00 0. -1.
         11    1    3    3    0    0 -0.48501247311E+01 -0.21090418706E+01 -0.80314758437E+01  0.96164635916E+01  0.51100000000E-03 0. -1.
        -11    1    3    3    0    0 -0.23939479145E+02  0.24389075453E+01  0.60767187301E+01  0.24818812271E+02  0.51100000000E-03 0.  1.
        -12    1    3    3    0    0  0.32110351716E+02 -0.72629049748E+01  0.19030707857E+02  0.38026205669E+02  0.00000000000E+00 0.  1.
</event>
<event>
 7    1  0.2886818E-013  0.7246158E+02  0.7816164E-02  0.1226708E+00
        -11   -1    0    0    0    0  0.00000000000E+00  0.00000000000E+00  0.45593999997E+02  0.45594000000E+02  0.51100000000E-03 0. -1.
         11   -1    0    0    0    0 -0.00000000000E+00 -0.00000000000E+00 -0.45593999997E+02  0.45594000000E+02  0.51100000000E-03 0.  1.
    9900012    2    1    2    0    0  0.17844711519E+02 -0.18487791286E+01 -0.53690703449E+01  0.72461584705E+02  0.70000018772E+02 0.  0.
         12    1    1    2    0    0 -0.17844711519E+02  0.18487791286E+01  0.53690703449E+01  0.18726415295E+02  0.00000000000E+00 0. -1.
         11    1    3    3    0    0 -0.10194049237E+02  0.12087719009E+01  0.11424756142E+02  0.15359193420E+02  0.51100000000E-03 0. -1.
        -11    1    3    3    0    0  0.16079374439E+01  0.17531099035E+02  0.34757923408E+01  0.17944526432E+02  0.51100000000E-03 0.  1.
        -12    1    3    3    0    0  0.26430823312E+02 -0.20588650065E+02 -0.20269618827E+02  0.39157864853E+02  0.00000000000E+00 0.  1.
</event>
<event>
 7    1  0.2886818E-013  0.7246150E+02  0.7816164E-02  0.1226708E+00
        -11   -1    0    0    0    0  0.00000000000E+00  0.00000000000E+00  0.45593999997E+02  0.45594000000E+02  0.51100000000E-03 0.  1.
         11   -1    0    0    0    0 -0.00000000000E+00 -0.00000000000E+00 -0.45593999997E+02  0.45594000000E+02  0.51100000000E-03 0. -1.
    9900012    2    1    2    0    0 -0.92053648999E+01 -0.38509993987E+01  0.15846543570E+02  0.72461497860E+02  0.69999905640E+02 0.  0.
         12    1    1    2    0    0  0.92053648999E+01  0.38509993987E+01 -0.15846543570E+02  0.18726502140E+02  0.00000000000E+00 0. -1.
         11    1    3    3    0    0 -0.59505795503E+01 -0.14984488518E+02  0.52383345517E+01  0.16952417004E+02  0.51100000000E-03 0. -1.
        -11    1    3    3    0    0 -0.24558360927E+02 -0.59647987081E+01  0.12366939287E+02  0.28135975238E+02  0.51100000000E-03 0.  1.
         12    1    3    3    0    0  0.21303575577E+02  0.17098287827E+02 -0.17587302689E+01  0.27373105618E+02  0.00000000000E+00 0. -1.
</event>
<event>
 7    1  0.2886818E-013  0.7246158E+02  0.7816164E-02  0.1226708E+00
        -11   -1    0    0    0    0  0.00000000000E+00  0.00000000000E+00  0.45593999997E+02  0.45594000000E+02  0.51100000000E-03 0. -1.
         11   -1    0    0    0    0 -0.00000000000E+00 -0.00000000000E+00 -0.45593999997E+02  0.45594000000E+02  0.51100000000E-03 0.  1.
    9900012    2    1    2    0    0 -0.15056895136E+02  0.10147113173E+02  0.45831174096E+01  0.72461575833E+02  0.70000007215E+02 0.  0.
         12    1    1    2    0    0  0.15056895136E+02 -0.10147113173E+02 -0.45831174096E+01  0.18726424167E+02  0.00000000000E+00 0. -1.
         11    1    3    3    0    0  0.19064691584E+02  0.80903361077E+01 -0.98318829408E+01  0.22925573623E+02  0.51100000000E-03 0. -1.
        -11    1    3    3    0    0 -0.13519984632E+02  0.16990437621E+02  0.90941167638E+01  0.23540771333E+02  0.51100000000E-03 0.  1.
        -12    1    3    3    0    0 -0.20601602088E+02 -0.14933660556E+02  0.53208835867E+01  0.25995230877E+02  0.00000000000E+00 0.  1.
</event>
<event>
 7    1  0.2886818E-013  0.7246155E+02  0.7816164E-02  0.1226708E+00
        -11   -1    0    0    0    0  0.00000000000E+00  0.00000000000E+00  0.45593999997E+02  0.45594000000E+02  0.51100000000E-03 0.  1.
         11   -1    0    0    0    0 -0.00000000000E+00 -0.00000000000E+00 -0.45593999997E+02  0.45594000000E+02  0.51100000000E-03 0. -1.
    9900012    2    1    2    0    0 -0.17388357357E+02  0.19999910429E+01  0.66576882344E+01  0.72461554839E+02  0.69999979867E+02 0.  0.
         12    1    1    2    0    0  0.17388357357E+02 -0.19999910429E+01 -0.66576882344E+01  0.18726445161E+02  0.00000000000E+00 0. -1.
         11    1    3    3    0    0 -0.14238552295E+02 -0.22546160411E+02 -0.11931878564E+02  0.29213617494E+02  0.51100000000E-03 0.  1.
        -11    1    3    3    0    0  0.46645327918E+01  0.80355676026E+01 -0.71230046571E+01  0.11707493689E+02  0.51100000000E-03 0. -1.
        -12    1    3    3    0    0 -0.78143378537E+01  0.16510583851E+02  0.25712571456E+02  0.31540443657E+02  0.00000000000E+00 0.  1.
</event>
<event>
 7    1  0.2886818E-013  0.7246176E+02  0.7816164E-02  0.1226708E+00
        -11   -1    0    0    0    0  0.00000000000E+00  0.00000000000E+00  0.45593999997E+02  0.45594000000E+02  0.51100000000E-03 0.  1.
         11   -1    0    0    0    0 -0.00000000000E+00 -0.00000000000E+00 -0.45593999997E+02  0.45594000000E+02  0.51100000000E-03 0. -1.
    9900012    2    1    2    0    0 -0.64871941351E+01  0.12174791993E+02  0.12663446259E+02  0.72461758547E+02  0.70000245233E+02 0.  0.
         12    1    1    2    0    0  0.64871941351E+01 -0.12174791993E+02 -0.12663446259E+02  0.18726241453E+02  0.00000000000E+00 0. -1.
         11    1    3    3    0    0 -0.65620386934E+01  0.60056583191E+00  0.64476418197E+00  0.66209328832E+01  0.51100000000E-03 0. -1.
        -11    1    3    3    0    0 -0.31137262142E+02  0.12112687954E+02  0.81084469561E+01  0.34380128206E+02  0.51100000000E-03 0.  1.
         12    1    3    3    0    0  0.31212106701E+02 -0.53846179347E+00  0.39102351208E+01  0.31460697457E+02  0.00000000000E+00 0. -1.
</event>
<event>
 7    1  0.2886818E-013  0.7246164E+02  0.7816164E-02  0.1226708E+00
        -11   -1    0    0    0    0  0.00000000000E+00  0.00000000000E+00  0.45593999997E+02  0.45594000000E+02  0.51100000000E-03 0.  1.
         11   -1    0    0    0    0 -0.00000000000E+00 -0.00000000000E+00 -0.45593999997E+02  0.45594000000E+02  0.51100000000E-03 0. -1.
    9900012    2    1    2    0    0  0.80844945113E+01 -0.17180262143E+01  0.16803743257E+02  0.72461642825E+02  0.70000094485E+02 0.  0.
         12    1    1    2    0    0 -0.80844945113E+01  0.17180262143E+01 -0.16803743257E+02  0.18726357175E+02  0.00000000000E+00 0. -1.
         11    1    3    3    0    0  0.15563632515E+02  0.24030199458E+02 -0.75231823826E+01  0.29601949538E+02  0.51100000000E-03 0. -1.
        -11    1    3    3    0    0  0.44209535566E+01 -0.22451307010E+02  0.14637582702E+02  0.27163667728E+02  0.51100000000E-03 0.  1.
        -12    1    3    3    0    0 -0.11900091560E+02 -0.32969186622E+01  0.96893429377E+01  0.15696025560E+02  0.00000000000E+00 0.  1.
</event>
<event>
 7    1  0.2886818E-013  0.7246164E+02  0.7816164E-02  0.1226708E+00
        -11   -1    0    0    0    0  0.00000000000E+00  0.00000000000E+00  0.45593999997E+02  0.45594000000E+02  0.51100000000E-03 0.  1.
         11   -1    0    0    0    0 -0.00000000000E+00 -0.00000000000E+00 -0.45593999997E+02  0.45594000000E+02  0.51100000000E-03 0. -1.
    9900012    2    1    2    0    0 -0.14097248230E+02 -0.64282884644E+01  0.10517666808E+02  0.72461638492E+02  0.70000088840E+02 0.  0.
         12    1    1    2    0    0  0.14097248230E+02  0.64282884644E+01 -0.10517666808E+02  0.18726361508E+02  0.00000000000E+00 0. -1.
         11    1    3    3    0    0  0.70686710374E+01 -0.25101444211E+01  0.12881220396E+02  0.14906132107E+02  0.51100000000E-03 0. -1.
        -11    1    3    3    0    0  0.11618872283E+02 -0.18292523885E+02 -0.19162393417E+01  0.21755151038E+02  0.51100000000E-03 0.  1.
         12    1    3    3    0    0 -0.32784791551E+02  0.14374379841E+02 -0.44731424631E+00  0.35800355346E+02  0.00000000000E+00 0. -1.
</event>
<event>
 7    1  0.2886818E-013  0.7246155E+02  0.7816164E-02  0.1226708E+00
        -11   -1    0    0    0    0  0.00000000000E+00  0.00000000000E+00  0.45593999997E+02  0.45594000000E+02  0.51100000000E-03 0.  1.
         11   -1    0    0    0    0 -0.00000000000E+00 -0.00000000000E+00 -0.45593999997E+02  0.45594000000E+02  0.51100000000E-03 0. -1.
    9900012    2    1    2    0    0  0.84667139087E+01  0.11604419837E+02  0.12013830398E+02  0.72461550123E+02  0.69999973723E+02 0.  0.
         12    1    1    2    0    0 -0.84667139087E+01 -0.11604419837E+02 -0.12013830398E+02  0.18726449877E+02  0.00000000000E+00 0. -1.
         11    1    3    3    0    0 -0.51864924398E+00  0.14691691214E+02  0.12852496237E+02  0.19526941582E+02  0.51100000000E-03 0. -1.
        -11    1    3    3    0    0  0.20916091926E+02 -0.83082035972E+01  0.18830772441E+02  0.29344627097E+02  0.51100000000E-03 0.  1.
         12    1    3    3    0    0 -0.11930728773E+02  0.52209322202E+01 -0.19669438279E+02  0.23589981444E+02  0.00000000000E+00 0. -1.
</event>
<event>
 7    1  0.2886818E-013  0.7246171E+02  0.7816164E-02  0.1226708E+00
        -11   -1    0    0    0    0  0.00000000000E+00  0.00000000000E+00  0.45593999997E+02  0.45594000000E+02  0.51100000000E-03 0.  1.
         11   -1    0    0    0    0 -0.00000000000E+00 -0.00000000000E+00 -0.45593999997E+02  0.45594000000E+02  0.51100000000E-03 0. -1.
    9900012    2    1    2    0    0 -0.14574026100E+02  0.11564943248E+02  0.21269043830E+01  0.72461711758E+02  0.70000184282E+02 0.  0.
         12    1    1    2    0    0  0.14574026100E+02 -0.11564943248E+02 -0.21269043830E+01  0.18726288242E+02  0.00000000000E+00 0. -1.
         11    1    3    3    0    0  0.99254448179E+01  0.89630048479E+01 -0.46990764314E+01  0.14175021351E+02  0.51100000000E-03 0. -1.
        -11    1    3    3    0    0  0.18502967524E+00  0.11693790854E+01 -0.21016530176E+02  0.21049850933E+02  0.51100000000E-03 0.  1.
        -12    1    3    3    0    0 -0.24684500593E+02  0.14325593144E+01  0.27842510990E+02  0.37236839473E+02  0.00000000000E+00 0.  1.
</event>
<event>
 7    1  0.2886818E-013  0.7246162E+02  0.7816164E-02  0.1226708E+00
        -11   -1    0    0    0    0  0.00000000000E+00  0.00000000000E+00  0.45593999997E+02  0.45594000000E+02  0.51100000000E-03 0. -1.
         11   -1    0    0    0    0 -0.00000000000E+00 -0.00000000000E+00 -0.45593999997E+02  0.45594000000E+02  0.51100000000E-03 0.  1.
    9900012    2    1    2    0    0  0.16531543177E+02 -0.82245478610E+01 -0.31212748482E+01  0.72461615832E+02  0.70000059321E+02 0.  0.
         12    1    1    2    0    0 -0.16531543177E+02  0.82245478610E+01  0.31212748482E+01  0.18726384168E+02  0.00000000000E+00 0. -1.
         11    1    3    3    0    0  0.13358670070E+02  0.39420944399E+01 -0.30616596775E+00  0.13931543794E+02  0.51100000000E-03 0. -1.
        -11    1    3    3    0    0  0.21906592886E+02 -0.11139803503E+02 -0.21055868137E+02  0.32362688659E+02  0.51100000000E-03 0.  1.
        -12    1    3    3    0    0 -0.18733719779E+02 -0.10268387976E+01  0.18240759257E+02  0.26167383380E+02  0.00000000000E+00 0.  1.
</event>
<event>
 7    1  0.2886818E-013  0.7246162E+02  0.7816164E-02  0.1226708E+00
        -11   -1    0    0    0    0  0.00000000000E+00  0.00000000000E+00  0.45593999997E+02  0.45594000000E+02  0.51100000000E-03 0. -1.
         11   -1    0    0    0    0 -0.00000000000E+00 -0.00000000000E+00 -0.45593999997E+02  0.45594000000E+02  0.51100000000E-03 0.  1.
    9900012    2    1    2    0    0  0.13184562572E+02  0.12279836768E+02 -0.51039478484E+01  0.72461618479E+02  0.70000062769E+02 0.  0.
         12    1    1    2    0    0 -0.13184562572E+02 -0.12279836768E+02  0.51039478484E+01  0.18726381521E+02  0.00000000000E+00 0. -1.
         11    1    3    3    0    0 -0.29224739223E+01 -0.94465372534E+01  0.10815562999E+01  0.99472450557E+01  0.51100000000E-03 0. -1.
        -11    1    3    3    0    0 -0.83980985366E+01  0.33756496238E+02 -0.15113687132E+01  0.34818290207E+02  0.51100000000E-03 0.  1.
         12    1    3    3    0    0  0.24505135030E+02 -0.12030122217E+02 -0.46741354352E+01  0.27696083216E+02  0.00000000000E+00 0. -1.
</event>
<event>
 7    1  0.2886818E-013  0.7246154E+02  0.7816164E-02  0.1226708E+00
        -11   -1    0    0    0    0  0.00000000000E+00  0.00000000000E+00  0.45593999997E+02  0.45594000000E+02  0.51100000000E-03 0. -1.
         11   -1    0    0    0    0 -0.00000000000E+00 -0.00000000000E+00 -0.45593999997E+02  0.45594000000E+02  0.51100000000E-03 0.  1.
    9900012    2    1    2    0    0  0.16807176408E+02 -0.78953626515E+01 -0.24212019650E+01  0.72461544138E+02  0.69999965926E+02 0.  0.
         12    1    1    2    0    0 -0.16807176408E+02  0.78953626515E+01  0.24212019650E+01  0.18726455862E+02  0.00000000000E+00 0. -1.
         11    1    3    3    0    0 -0.85555314407E+01  0.67718020935E+01  0.16812560241E+02  0.20042869155E+02  0.51100000000E-03 0. -1.
        -11    1    3    3    0    0  0.12965765821E+02 -0.26904334935E+02 -0.58061904583E+01  0.30424762440E+02  0.51100000000E-03 0.  1.
         12    1    3    3    0    0  0.12396942028E+02  0.12237170190E+02 -0.13427571748E+02  0.21993912543E+02  0.00000000000E+00 0. -1.
</event>
<event>
 7    1  0.2886818E-013  0.7246156E+02  0.7816164E-02  0.1226708E+00
        -11   -1    0    0    0    0  0.00000000000E+00  0.00000000000E+00  0.45593999997E+02  0.45594000000E+02  0.51100000000E-03 0. -1.
         11   -1    0    0    0    0 -0.00000000000E+00 -0.00000000000E+00 -0.45593999997E+02  0.45594000000E+02  0.51100000000E-03 0.  1.
    9900012    2    1    2    0    0  0.44178927431E+01  0.31424404257E+01 -0.17924479630E+02  0.72461556715E+02  0.69999982310E+02 0.  0.
         12    1    1    2    0    0 -0.44178927431E+01 -0.31424404257E+01  0.17924479630E+02  0.18726443285E+02  0.00000000000E+00 0. -1.
         11    1    3    3    0    0 -0.11509621683E+02 -0.57464248750E+00  0.21486393264E+02  0.24381687822E+02  0.51100000000E-03 0. -1.
        -11    1    3    3    0    0  0.16582867196E+01 -0.68216692234E+01 -0.31137002253E+01  0.76798577586E+01  0.51100000000E-03 0.  1.
        -12    1    3    3    0    0  0.14269227707E+02  0.10538752137E+02 -0.36297172668E+02  0.40400011134E+02  0.00000000000E+00 0.  1.
</event>
<event>
 7    1  0.2886818E-013  0.7246143E+02  0.7816164E-02  0.1226708E+00
        -11   -1    0    0    0    0  0.00000000000E+00  0.00000000000E+00  0.45593999997E+02  0.45594000000E+02  0.51100000000E-03 0.  1.
         11   -1    0    0    0    0 -0.00000000000E+00 -0.00000000000E+00 -0.45593999997E+02  0.45594000000E+02  0.51100000000E-03 0. -1.
    9900012    2    1    2    0    0 -0.17761998826E+02 -0.47398693819E+01  0.35678344203E+01  0.72461430466E+02  0.69999817848E+02 0.  0.
         12    1    1    2    0    0  0.17761998826E+02  0.47398693819E+01 -0.35678344203E+01  0.18726569534E+02  0.00000000000E+00 0. -1.
         11    1    3    3    0    0 -0.13293665491E+02 -0.68417332344E+01  0.13194089426E+02  0.19940282141E+02  0.51100000000E-03 0. -1.
        -11    1    3    3    0    0 -0.25890015964E+02  0.10963896450E+02 -0.82350582988E+01  0.29297032912E+02  0.51100000000E-03 0.  1.
         12    1    3    3    0    0  0.21421682629E+02 -0.88620325978E+01 -0.13911967067E+01  0.23224115413E+02  0.00000000000E+00 0. -1.
</event>
<event>
 7    1  0.2886818E-013  0.7246124E+02  0.7816164E-02  0.1226709E+00
        -11   -1    0    0    0    0  0.00000000000E+00  0.00000000000E+00  0.45593999997E+02  0.45594000000E+02  0.51100000000E-03 0.  1.
         11   -1    0    0    0    0 -0.00000000000E+00 -0.00000000000E+00 -0.45593999997E+02  0.45594000000E+02  0.51100000000E-03 0. -1.
    9900012    2    1    2    0    0  0.11238352667E+02  0.64131010837E+01 -0.13537466646E+02  0.72461242689E+02  0.69999573232E+02 0.  0.
         12    1    1    2    0    0 -0.11238352667E+02 -0.64131010837E+01  0.13537466646E+02  0.18726757311E+02  0.00000000000E+00 0. -1.
         11    1    3    3    0    0 -0.19483208219E+02  0.16441478748E+02  0.37086696747E+01  0.25761829456E+02  0.51100000000E-03 0. -1.
        -11    1    3    3    0    0  0.56331199679E+01  0.45396004195E+00  0.78668066547E+01  0.96863185729E+01  0.51100000000E-03 0.  1.
        -12    1    3    3    0    0  0.25088440917E+02 -0.10482337706E+02 -0.25112942976E+02  0.37013094661E+02  0.00000000000E+00 0.  1.
</event>
<event>
 7    1  0.2886818E-013  0.7246158E+02  0.7816164E-02  0.1226708E+00
        -11   -1    0    0    0    0  0.00000000000E+00  0.00000000000E+00  0.45593999997E+02  0.45594000000E+02  0.51100000000E-03 0.  1.
         11   -1    0    0    0    0 -0.00000000000E+00 -0.00000000000E+00 -0.45593999997E+02  0.45594000000E+02  0.51100000000E-03 0. -1.
    9900012    2    1    2    0    0 -0.39539753460E+01  0.58852019924E+01  0.17332318018E+02  0.72461580925E+02  0.70000013848E+02 0.  0.
         12    1    1    2    0    0  0.39539753460E+01 -0.58852019924E+01 -0.17332318018E+02  0.18726419075E+02  0.00000000000E+00 0. -1.
         11    1    3    3    0    0 -0.14716815958E+02  0.15020923625E+02  0.10199118659E+02  0.23371667467E+02  0.51100000000E-03 0. -1.
        -11    1    3    3    0    0 -0.15963541091E+01  0.10380021168E+01 -0.18647029195E+02  0.18743998850E+02  0.51100000000E-03 0.  1.
        -12    1    3    3    0    0  0.12359194721E+02 -0.10173723750E+02  0.25780228553E+02  0.30345914607E+02  0.00000000000E+00 0.  1.
</event>
<event>
 7    1  0.2886818E-013  0.7246157E+02  0.7816164E-02  0.1226708E+00
        -11   -1    0    0    0    0  0.00000000000E+00  0.00000000000E+00  0.45593999997E+02  0.45594000000E+02  0.51100000000E-03 0. -1.
         11   -1    0    0    0    0 -0.00000000000E+00 -0.00000000000E+00 -0.45593999997E+02  0.45594000000E+02  0.51100000000E-03 0.  1.
    9900012    2    1    2    0    0 -0.22498059432E+00 -0.14089971794E+02  0.12332927465E+02  0.72461574252E+02  0.70000005156E+02 0.  0.
         12    1    1    2    0    0  0.22498059432E+00  0.14089971794E+02 -0.12332927465E+02  0.18726425748E+02  0.00000000000E+00 0. -1.
         11    1    3    3    0    0 -0.38838896637E+01 -0.13300477384E+01 -0.68394511291E+01  0.79769491608E+01  0.51100000000E-03 0. -1.
        -11    1    3    3    0    0 -0.24714760331E+02  0.83410152178E+01  0.10170447040E+02  0.27996962448E+02  0.51100000000E-03 0.  1.
         12    1    3    3    0    0  0.28373669400E+02 -0.21100939274E+02  0.90019315541E+01  0.36487662643E+02  0.00000000000E+00 0. -1.
</event>
<event>
 7    1  0.2886818E-013  0.7246166E+02  0.7816164E-02  0.1226708E+00
        -11   -1    0    0    0    0  0.00000000000E+00  0.00000000000E+00  0.45593999997E+02  0.45594000000E+02  0.51100000000E-03 0. -1.
         11   -1    0    0    0    0 -0.00000000000E+00 -0.00000000000E+00 -0.45593999997E+02  0.45594000000E+02  0.51100000000E-03 0.  1.
    9900012    2    1    2    0    0  0.17711829937E+02 -0.25946221877E+01 -0.54986346192E+01  0.72461655811E+02  0.70000111401E+02 0.  0.
         12    1    1    2    0    0 -0.17711829937E+02  0.25946221877E+01  0.54986346192E+01  0.18726344189E+02  0.00000000000E+00 0. -1.
         11    1    3    3    0    0 -0.10920873386E+01 -0.49708407050E+01  0.66826949429E+01  0.84000192875E+01  0.51100000000E-03 0. -1.
        -11    1    3    3    0    0  0.13837228127E+02 -0.41856005185E+01 -0.36035857606E+02  0.38827453787E+02  0.51100000000E-03 0.  1.
         12    1    3    3    0    0  0.49666891491E+01  0.65618190358E+01  0.23854528044E+02  0.25234182736E+02  0.00000000000E+00 0. -1.
</event>
<event>
 7    1  0.2886818E-013  0.7246158E+02  0.7816164E-02  0.1226708E+00
        -11   -1    0    0    0    0  0.00000000000E+00  0.00000000000E+00  0.45593999997E+02  0.45594000000E+02  0.51100000000E-03 0.  1.
         11   -1    0    0    0    0 -0.00000000000E+00 -0.00000000000E+00 -0.45593999997E+02  0.45594000000E+02  0.51100000000E-03 0. -1.
    9900012    2    1    2    0    0  0.95676131420E+00 -0.18119222039E+02 -0.46321898764E+01  0.72461580626E+02  0.70000013459E+02 0.  0.
         12    1    1    2    0    0 -0.95676131420E+00  0.18119222039E+02  0.46321898764E+01  0.18726419374E+02  0.00000000000E+00 0. -1.
         11    1    3    3    0    0 -0.17624363722E+02 -0.16422107248E+00 -0.89623614240E+01  0.19772938267E+02  0.51100000000E-03 0. -1.
        -11    1    3    3    0    0 -0.77607476017E+01 -0.10313206301E+02  0.17915431525E+02  0.22080627585E+02  0.51100000000E-03 0.  1.
         12    1    3    3    0    0  0.26341872638E+02 -0.76417946654E+01 -0.13585259978E+02  0.30608014774E+02  0.00000000000E+00 0. -1.
</event>
<event>
 7    1  0.2886818E-013  0.7246155E+02  0.7816164E-02  0.1226708E+00
        -11   -1    0    0    0    0  0.00000000000E+00  0.00000000000E+00  0.45593999997E+02  0.45594000000E+02  0.51100000000E-03 0.  1.
         11   -1    0    0    0    0 -0.00000000000E+00 -0.00000000000E+00 -0.45593999997E+02  0.45594000000E+02  0.51100000000E-03 0. -1.
    9900012    2    1    2    0    0 -0.67740726805E+01 -0.12778876859E+02 -0.11895049880E+02  0.72461549025E+02  0.69999972293E+02 0.  0.
         12    1    1    2    0    0  0.67740726805E+01  0.12778876859E+02  0.11895049880E+02  0.18726450975E+02  0.00000000000E+00 0. -1.
         11    1    3    3    0    0 -0.68887361512E+01  0.56497146649E+01 -0.19006627927E+02  0.20991090180E+02  0.51100000000E-03 0. -1.
        -11    1    3    3    0    0  0.73432535276E+01 -0.33422900791E+02  0.31860637912E+01  0.34368076356E+02  0.51100000000E-03 0.  1.
         12    1    3    3    0    0 -0.72285900569E+01  0.14994309268E+02  0.39255142551E+01  0.17102382489E+02  0.00000000000E+00 0. -1.
</event>
<event>
 7    1  0.2886818E-013  0.7246156E+02  0.7816164E-02  0.1226708E+00
        -11   -1    0    0    0    0  0.00000000000E+00  0.00000000000E+00  0.45593999997E+02  0.45594000000E+02  0.51100000000E-03 0.  1.
         11   -1    0    0    0    0 -0.00000000000E+00 -0.00000000000E+00 -0.45593999997E+02  0.45594000000E+02  0.51100000000E-03 0. -1.
    9900012    2    1    2    0    0 -0.16509764972E+00  0.11034091729E+02  0.15129481841E+02  0.72461557244E+02  0.69999982999E+02 0.  0.
         12    1    1    2    0    0  0.16509764972E+00 -0.11034091729E+02 -0.15129481841E+02  0.18726442756E+02  0.00000000000E+00 0. -1.
         11    1    3    3    0    0 -0.60135126742E+01  0.69447376860E+01  0.59183163143E+01  0.10927862758E+02  0.51100000000E-03 0. -1.
        -11    1    3    3    0    0  0.79622688243E+01 -0.34344237585E+01  0.34235925828E+02  0.35317015855E+02  0.51100000000E-03 0.  1.
         12    1    3    3    0    0 -0.21138537999E+01  0.75237778011E+01 -0.25024760301E+02  0.26216678630E+02  0.00000000000E+00 0. -1.
</event>
<event>
 7    1  0.2886818E-013  0.7246159E+02  0.7816164E-02  0.1226708E+00
        -11   -1    0    0    0    0  0.00000000000E+00  0.00000000000E+00  0.45593999997E+02  0.45594000000E+02  0.51100000000E-03 0.  1.
         11   -1    0    0    0    0 -0.00000000000E+00 -0.00000000000E+00 -0.45593999997E+02  0.45594000000E+02  0.51100000000E-03 0. -1.
    9900012    2    1    2    0    0  0.18684287818E+02  0.12192531778E+01  0.29884965334E+00  0.72461588153E+02  0.70000023264E+02 0.  0.
         12    1    1    2    0    0 -0.18684287818E+02 -0.12192531778E+01 -0.29884965334E+00  0.18726411847E+02  0.00000000000E+00 0. -1.
         11    1    3    3    0    0  0.26560809144E+02 -0.51459399279E+01 -0.17254089087E+02  0.32088329196E+02  0.51100000000E-03 0. -1.
        -11    1    3    3    0    0  0.74476243893E+01  0.52298498864E+01 -0.69499510159E+01  0.11450775444E+02  0.51100000000E-03 0.  1.
        -12    1    3    3    0    0 -0.15324145716E+02  0.11353432194E+01  0.24502889756E+02  0.28922483513E+02  0.00000000000E+00 0.  1.
</event>
<event>
 7    1  0.2886818E-013  0.7246171E+02  0.7816164E-02  0.1226708E+00
        -11   -1    0    0    0    0  0.00000000000E+00  0.00000000000E+00  0.45593999997E+02  0.45594000000E+02  0.51100000000E-03 0.  1.
         11   -1    0    0    0    0 -0.00000000000E+00 -0.00000000000E+00 -0.45593999997E+02  0.45594000000E+02  0.51100000000E-03 0. -1.
    9900012    2    1    2    0    0  0.73357146149E+01  0.10811950436E+02  0.13415030307E+02  0.72461707807E+02  0.70000179136E+02 0.  0.
         12    1    1    2    0    0 -0.73357146149E+01 -0.10811950436E+02 -0.13415030307E+02  0.18726292193E+02  0.00000000000E+00 0. -1.
         11    1    3    3    0    0 -0.15445706536E+02  0.99132092223E+01 -0.17967393458E+02  0.25684018288E+02  0.51100000000E-03 0. -1.
        -11    1    3    3    0    0  0.14293647215E+02  0.41256191462E+00  0.36857237129E-01  0.14299647435E+02  0.51100000000E-03 0.  1.
        -12    1    3    3    0    0  0.84877739355E+01  0.48617929933E+00  0.31345566528E+02  0.32478042085E+02  0.00000000000E+00 0.  1.
</event>
<event>
 7    1  0.2886818E-013  0.7246153E+02  0.7816164E-02  0.1226708E+00
        -11   -1    0    0    0    0  0.00000000000E+00  0.00000000000E+00  0.45593999997E+02  0.45594000000E+02  0.51100000000E-03 0. -1.
         11   -1    0    0    0    0 -0.00000000000E+00 -0.00000000000E+00 -0.45593999997E+02  0.45594000000E+02  0.51100000000E-03 0.  1.
    9900012    2    1    2    0    0 -0.55573693252E+01  0.71799833375E+01 -0.16378160744E+02  0.72461530394E+02  0.69999948022E+02 0.  0.
         12    1    1    2    0    0  0.55573693252E+01 -0.71799833375E+01  0.16378160744E+02  0.18726469606E+02  0.00000000000E+00 0. -1.
         11    1    3    3    0    0  0.18549430782E+02  0.11904946088E+02 -0.21365048730E+02  0.30696488906E+02  0.51100000000E-03 0. -1.
        -11    1    3    3    0    0  0.33006804424E+00  0.11678486421E+02 -0.10160556782E+01  0.11727248586E+02  0.51100000000E-03 0.  1.
        -12    1    3    3    0    0 -0.24436868151E+02 -0.16403449172E+02  0.60029436637E+01  0.30037792902E+02  0.00000000000E+00 0.  1.
</event>
<event>
 7    1  0.2886818E-013  0.7246157E+02  0.7816164E-02  0.1226708E+00
        -11   -1    0    0    0    0  0.00000000000E+00  0.00000000000E+00  0.45593999997E+02  0.45594000000E+02  0.51100000000E-03 0. -1.
         11   -1    0    0    0    0 -0.00000000000E+00 -0.00000000000E+00 -0.45593999997E+02  0.45594000000E+02  0.51100000000E-03 0.  1.
    9900012    2    1    2    0    0  0.12596656217E+02  0.13742050332E+02  0.17775419886E+01  0.72461565457E+02  0.69999993699E+02 0.  0.
         12    1    1    2    0    0 -0.12596656217E+02 -0.13742050332E+02 -0.17775419886E+01  0.18726434543E+02  0.00000000000E+00 0. -1.
         11    1    3    3    0    0  0.10414840615E+02  0.16559782960E+02 -0.32966843455E+01  0.19838433523E+02  0.51100000000E-03 0. -1.
        -11    1    3    3    0    0  0.19896432871E+02  0.15984296332E+02  0.76981628353E+01  0.26657597070E+02  0.51100000000E-03 0.  1.
         12    1    3    3    0    0 -0.17714617270E+02 -0.18802028960E+02 -0.26239365012E+01  0.25965534864E+02  0.00000000000E+00 0. -1.
</event>
<event>
 7    1  0.2886818E-013  0.7246153E+02  0.7816164E-02  0.1226708E+00
        -11   -1    0    0    0    0  0.00000000000E+00  0.00000000000E+00  0.45593999997E+02  0.45594000000E+02  0.51100000000E-03 0.  1.
         11   -1    0    0    0    0 -0.00000000000E+00 -0.00000000000E+00 -0.45593999997E+02  0.45594000000E+02  0.51100000000E-03 0. -1.
    9900012    2    1    2    0    0  0.58803252977E+01 -0.67564005787E+01  0.16445471127E+02  0.72461529564E+02  0.69999946941E+02 0.  0.
         12    1    1    2    0    0 -0.58803252977E+01  0.67564005787E+01 -0.16445471127E+02  0.18726470436E+02  0.00000000000E+00 0. -1.
         11    1    3    3    0    0 -0.24438230834E+02 -0.18757943158E+02 -0.53492832245E+01  0.31268232906E+02  0.51100000000E-03 0. -1.
        -11    1    3    3    0    0  0.11695453535E+02 -0.97942537084E+00  0.41749265738E+01  0.12456842280E+02  0.51100000000E-03 0.  1.
        -12    1    3    3    0    0  0.18623102597E+02  0.12980967950E+02  0.17619827778E+02  0.28736454377E+02  0.00000000000E+00 0.  1.
</event>
<event>
 7    1  0.2886818E-013  0.7246129E+02  0.7816164E-02  0.1226709E+00
        -11   -1    0    0    0    0  0.00000000000E+00  0.00000000000E+00  0.45593999997E+02  0.45594000000E+02  0.51100000000E-03 0.  1.
         11   -1    0    0    0    0 -0.00000000000E+00 -0.00000000000E+00 -0.45593999997E+02  0.45594000000E+02  0.51100000000E-03 0. -1.
    9900012    2    1    2    0    0 -0.17970432207E+02  0.16572539561E+01  0.50006766174E+01  0.72461289370E+02  0.69999634043E+02 0.  0.
         12    1    1    2    0    0  0.17970432207E+02 -0.16572539561E+01 -0.50006766174E+01  0.18726710630E+02  0.00000000000E+00 0. -1.
         11    1    3    3    0    0 -0.45006269512E+01 -0.68991448858E+01  0.43271012236E+01  0.93047110847E+01  0.51100000000E-03 0. -1.
        -11    1    3    3    0    0 -0.34129846115E+02 -0.91438900817E+01  0.47359073958E+01  0.35649487244E+02  0.51100000000E-03 0.  1.
         12    1    3    3    0    0  0.20660040859E+02  0.17700288924E+02 -0.40623320020E+01  0.27507091041E+02  0.00000000000E+00 0. -1.
</event>
<event>
 7    1  0.2886818E-013  0.7246158E+02  0.7816164E-02  0.1226708E+00
        -11   -1    0    0    0    0  0.00000000000E+00  0.00000000000E+00  0.45593999997E+02  0.45594000000E+02  0.51100000000E-03 0. -1.
         11   -1    0    0    0    0 -0.00000000000E+00 -0.00000000000E+00 -0.45593999997E+02  0.45594000000E+02  0.51100000000E-03 0.  1.
    9900012    2    1    2    0    0 -0.31214043408E+01  0.44496888054E+01 -0.17920265307E+02  0.72461580048E+02  0.70000012706E+02 0.  0.
         12    1    1    2    0    0  0.31214043408E+01 -0.44496888054E+01  0.17920265307E+02  0.18726419952E+02  0.00000000000E+00 0. -1.
         11    1    3    3    0    0  0.89523690772E+01 -0.14296385049E+01 -0.31881853198E+01  0.96100626555E+01  0.51100000000E-03 0. -1.
        -11    1    3    3    0    0  0.15008784288E+02  0.81885361957E+00 -0.28372753020E+02  0.32108367153E+02  0.51100000000E-03 0.  1.
         12    1    3    3    0    0 -0.27082557706E+02  0.50604736908E+01  0.13640673033E+02  0.30743150239E+02  0.00000000000E+00 0. -1.
</event>
<event>
 7    1  0.2886818E-013  0.7246157E+02  0.7816164E-02  0.1226708E+00
        -11   -1    0    0    0    0  0.00000000000E+00  0.00000000000E+00  0.45593999997E+02  0.45594000000E+02  0.51100000000E-03 0.  1.
         11   -1    0    0    0    0 -0.00000000000E+00 -0.00000000000E+00 -0.45593999997E+02  0.45594000000E+02  0.51100000000E-03 0. -1.
    9900012    2    1    2    0    0 -0.86386054081E+01  0.16517898368E+02 -0.17924470774E+01  0.72461565838E+02  0.69999994195E+02 0.  0.
         12    1    1    2    0    0  0.86386054081E+01 -0.16517898368E+02  0.17924470774E+01  0.18726434162E+02  0.00000000000E+00 0. -1.
         11    1    3    3    0    0 -0.99812003327E+01 -0.70563887724E+01 -0.11627600463E+02  0.16870627593E+02  0.51100000000E-03 0. -1.
        -11    1    3    3    0    0 -0.14326298937E+02  0.63366927282E+01  0.23754166651E+02  0.28454471521E+02  0.51100000000E-03 0.  1.
        -12    1    3    3    0    0  0.15668893862E+02  0.17237594413E+02 -0.13919013265E+02  0.27136466724E+02  0.00000000000E+00 0.  1.
</event>
<event>
 7    1  0.2886818E-013  0.7246154E+02  0.7816164E-02  0.1226708E+00
        -11   -1    0    0    0    0  0.00000000000E+00  0.00000000000E+00  0.45593999997E+02  0.45594000000E+02  0.51100000000E-03 0. -1.
         11   -1    0    0    0    0 -0.00000000000E+00 -0.00000000000E+00 -0.45593999997E+02  0.45594000000E+02  0.51100000000E-03 0.  1.
    9900012    2    1    2    0    0 -0.10584222858E+02 -0.15291014585E+02 -0.21998782280E+01  0.72461538381E+02  0.69999958427E+02 0.  0.
         12    1    1    2    0    0  0.10584222858E+02  0.15291014585E+02  0.21998782280E+01  0.18726461619E+02  0.00000000000E+00 0. -1.
         11    1    3    3    0    0 -0.97995102368E+01 -0.12820195527E+02  0.11714320685E+02  0.19940238805E+02  0.51100000000E-03 0. -1.
        -11    1    3    3    0    0 -0.57564025375E+01 -0.53886157049E+01 -0.32302311275E+02  0.33250754328E+02  0.51100000000E-03 0.  1.
         12    1    3    3    0    0  0.49716899161E+01  0.29177966472E+01  0.18388112362E+02  0.19270545248E+02  0.00000000000E+00 0. -1.
</event>
<event>
 7    1  0.2886818E-013  0.7246155E+02  0.7816164E-02  0.1226708E+00
        -11   -1    0    0    0    0  0.00000000000E+00  0.00000000000E+00  0.45593999997E+02  0.45594000000E+02  0.51100000000E-03 0. -1.
         11   -1    0    0    0    0 -0.00000000000E+00 -0.00000000000E+00 -0.45593999997E+02  0.45594000000E+02  0.51100000000E-03 0.  1.
    9900012    2    1    2    0    0  0.14388261732E+02  0.11038059534E+02  0.46711081502E+01  0.72461545843E+02  0.69999968147E+02 0.  0.
         12    1    1    2    0    0 -0.14388261732E+02 -0.11038059534E+02 -0.46711081502E+01  0.18726454157E+02  0.00000000000E+00 0. -1.
         11    1    3    3    0    0  0.10290950687E+01 -0.13650933000E+02  0.20426327569E+02  0.24589466580E+02  0.51100000000E-03 0. -1.
        -11    1    3    3    0    0 -0.10299532755E+02  0.11944059563E+02 -0.13750764630E+02  0.20924255351E+02  0.51100000000E-03 0.  1.
        -12    1    3    3    0    0  0.23658699419E+02  0.12744932971E+02 -0.20044547897E+01  0.26947823912E+02  0.00000000000E+00 0.  1.
</event>
<event>
 7    1  0.2886818E-013  0.7246166E+02  0.7816164E-02  0.1226708E+00
        -11   -1    0    0    0    0  0.00000000000E+00  0.00000000000E+00  0.45593999997E+02  0.45594000000E+02  0.51100000000E-03 0.  1.
         11   -1    0    0    0    0 -0.00000000000E+00 -0.00000000000E+00 -0.45593999997E+02  0.45594000000E+02  0.51100000000E-03 0. -1.
    9900012    2    1    2    0    0  0.26861787063E+01 -0.83065024552E+01  0.16566899512E+02  0.72461662971E+02  0.70000120729E+02 0.  0.
         12    1    1    2    0    0 -0.26861787063E+01  0.83065024552E+01 -0.16566899512E+02  0.18726337029E+02  0.00000000000E+00 0. -1.
         11    1    3    3    0    0  0.10257221850E+01 -0.15125308374E+01 -0.17922319808E+01  0.25596779620E+01  0.51100000000E-03 0. -1.
        -11    1    3    3    0    0 -0.36686067282E+01 -0.36732835712E+02  0.79638497703E+01  0.37764835471E+02  0.51100000000E-03 0.  1.
         12    1    3    3    0    0  0.53290632494E+01  0.29938864094E+02  0.10395281722E+02  0.32137149538E+02  0.00000000000E+00 0. -1.
</event>
<event>
 7    1  0.2886818E-013  0.7246156E+02  0.7816164E-02  0.1226708E+00
        -11   -1    0    0    0    0  0.00000000000E+00  0.00000000000E+00  0.45593999997E+02  0.45594000000E+02  0.51100000000E-03 0.  1.
         11   -1    0    0    0    0 -0.00000000000E+00 -0.00000000000E+00 -0.45593999997E+02  0.45594000000E+02  0.51100000000E-03 0. -1.
    9900012    2    1    2    0    0  0.22577625343E+01 -0.18236712293E+02  0.36061665088E+01  0.72461558699E+02  0.69999984895E+02 0.  0.
         12    1    1    2    0    0 -0.22577625343E+01  0.18236712293E+02 -0.36061665088E+01  0.18726441301E+02  0.00000000000E+00 0. -1.
         11    1    3    3    0    0  0.18623366631E+01  0.50146619712E+01  0.12037213479E+02  0.13172305840E+02  0.51100000000E-03 0. -1.
        -11    1    3    3    0    0 -0.22658859057E+02 -0.30407526643E+01  0.83489441440E+01  0.24338753853E+02  0.51100000000E-03 0.  1.
        -12    1    3    3    0    0  0.23054284928E+02 -0.20210621600E+02 -0.16779991115E+02  0.34950499006E+02  0.00000000000E+00 0.  1.
</event>
<event>
 7    1  0.2886818E-013  0.7246156E+02  0.7816164E-02  0.1226708E+00
        -11   -1    0    0    0    0  0.00000000000E+00  0.00000000000E+00  0.45593999997E+02  0.45594000000E+02  0.51100000000E-03 0.  1.
         11   -1    0    0    0    0 -0.00000000000E+00 -0.00000000000E+00 -0.45593999997E+02  0.45594000000E+02  0.51100000000E-03 0. -1.
    9900012    2    1    2    0    0  0.53148326259E+01 -0.16183861999E+02  0.77791283703E+01  0.72461556845E+02  0.69999982479E+02 0.  0.
         12    1    1    2    0    0 -0.53148326259E+01  0.16183861999E+02 -0.77791283703E+01  0.18726443155E+02  0.00000000000E+00 0. -1.
         11    1    3    3    0    0  0.71732296394E+01  0.50647495247E+01 -0.81681927902E+01  0.11992759688E+02  0.51100000000E-03 0. -1.
        -11    1    3    3    0    0 -0.23184060585E+01  0.18414841147E+02  0.67570862583E+01  0.19751951703E+02  0.51100000000E-03 0.  1.
        -12    1    3    3    0    0  0.46000904507E+00 -0.39663452671E+02  0.91902349021E+01  0.40716845453E+02  0.00000000000E+00 0.  1.
</event>
<event>
 7    1  0.2886818E-013  0.7246164E+02  0.7816164E-02  0.1226708E+00
        -11   -1    0    0    0    0  0.00000000000E+00  0.00000000000E+00  0.45593999997E+02  0.45594000000E+02  0.51100000000E-03 0. -1.
         11   -1    0    0    0    0 -0.00000000000E+00 -0.00000000000E+00 -0.45593999997E+02  0.45594000000E+02  0.51100000000E-03 0.  1.
    9900012    2    1    2    0    0 -0.25972486464E+01  0.18366777669E+02  0.25675626891E+01  0.72461638885E+02  0.70000089352E+02 0.  0.
         12    1    1    2    0    0  0.25972486464E+01 -0.18366777669E+02 -0.25675626891E+01  0.18726361115E+02  0.00000000000E+00 0. -1.
         11    1    3    3    0    0 -0.16923768661E+02  0.25212183421E+01  0.21002274026E+02  0.27089961280E+02  0.51100000000E-03 0. -1.
        -11    1    3    3    0    0 -0.53527796818E+01  0.11143549338E+02  0.59216632883E+01  0.13707554068E+02  0.51100000000E-03 0.  1.
        -12    1    3    3    0    0  0.19679299696E+02  0.47020099882E+01 -0.24356374625E+02  0.31664123537E+02  0.00000000000E+00 0.  1.
</event>
<event>
 7    1  0.2886818E-013  0.7246152E+02  0.7816164E-02  0.1226708E+00
        -11   -1    0    0    0    0  0.00000000000E+00  0.00000000000E+00  0.45593999997E+02  0.45594000000E+02  0.51100000000E-03 0. -1.
         11   -1    0    0    0    0 -0.00000000000E+00 -0.00000000000E+00 -0.45593999997E+02  0.45594000000E+02  0.51100000000E-03 0.  1.
    9900012    2    1    2    0    0 -0.43162286890E+01  0.95262943047E+01 -0.15533859905E+02  0.72461523641E+02  0.69999939225E+02 0.  0.
         12    1    1    2    0    0  0.43162286890E+01 -0.95262943047E+01  0.15533859905E+02  0.18726476359E+02  0.00000000000E+00 0. -1.
         11    1    3    3    0    0  0.88805573403E+00  0.94280518708E+01 -0.63373565977E+01  0.11394687094E+02  0.51100000000E-03 0. -1.
        -11    1    3    3    0    0  0.26432681607E+02  0.76485044409E+01 -0.73860468638E+01  0.28491050624E+02  0.51100000000E-03 0.  1.
        -12    1    3    3    0    0 -0.31636966030E+02 -0.75502620070E+01 -0.18104564439E+01  0.32575785923E+02  0.00000000000E+00 0.  1.
</event>
<event>
 7    1  0.2886818E-013  0.7246156E+02  0.7816164E-02  0.1226708E+00
        -11   -1    0    0    0    0  0.00000000000E+00  0.00000000000E+00  0.45593999997E+02  0.45594000000E+02  0.51100000000E-03 0.  1.
         11   -1    0    0    0    0 -0.00000000000E+00 -0.00000000000E+00 -0.45593999997E+02  0.45594000000E+02  0.51100000000E-03 0. -1.
    9900012    2    1    2    0    0  0.84611206201E+01 -0.16342595028E+02  0.34653629334E+01  0.72461555739E+02  0.69999981039E+02 0.  0.
         12    1    1    2    0    0 -0.84611206201E+01  0.16342595028E+02 -0.34653629334E+01  0.18726444261E+02  0.00000000000E+00 0. -1.
         11    1    3    3    0    0 -0.38653045726E+01  0.12789600667E+02 -0.56691181168E+01  0.14513902478E+02  0.51100000000E-03 0. -1.
        -11    1    3    3    0    0  0.15844895209E+02 -0.84304303489E+01  0.25598880759E+02  0.31263965782E+02  0.51100000000E-03 0.  1.
         12    1    3    3    0    0 -0.35184700166E+01 -0.20701765346E+02 -0.16464399709E+02  0.26683687479E+02  0.00000000000E+00 0. -1.
</event>
<event>
 7    1  0.2886818E-013  0.7246157E+02  0.7816164E-02  0.1226708E+00
        -11   -1    0    0    0    0  0.00000000000E+00  0.00000000000E+00  0.45593999997E+02  0.45594000000E+02  0.51100000000E-03 0.  1.
         11   -1    0    0    0    0 -0.00000000000E+00 -0.00000000000E+00 -0.45593999997E+02  0.45594000000E+02  0.51100000000E-03 0. -1.
    9900012    2    1    2    0    0 -0.17401964265E+02 -0.19495366338E+01 -0.66370256980E+01  0.72461570455E+02  0.70000000210E+02 0.  0.
         12    1    1    2    0    0  0.17401964265E+02  0.19495366338E+01  0.66370256980E+01  0.18726429545E+02  0.00000000000E+00 0. -1.
         11    1    3    3    0    0 -0.15834762114E+02 -0.16135378860E+01 -0.11287850974E+02  0.19513041167E+02  0.51100000000E-03 0. -1.
        -11    1    3    3    0    0 -0.24558614652E+02  0.10139311753E+02 -0.25109634640E+01  0.26687752513E+02  0.51100000000E-03 0.  1.
         12    1    3    3    0    0  0.22991412501E+02 -0.10475310500E+02  0.71617887402E+01  0.26260776775E+02  0.00000000000E+00 0. -1.
</event>
<event>
 7    1  0.2886818E-013  0.7246167E+02  0.7816164E-02  0.1226708E+00
        -11   -1    0    0    0    0  0.00000000000E+00  0.00000000000E+00  0.45593999997E+02  0.45594000000E+02  0.51100000000E-03 0.  1.
         11   -1    0    0    0    0 -0.00000000000E+00 -0.00000000000E+00 -0.45593999997E+02  0.45594000000E+02  0.51100000000E-03 0. -1.
    9900012    2    1    2    0    0 -0.18337113697E+02 -0.33472173922E+01  0.17949066764E+01  0.72461673799E+02  0.70000134834E+02 0.  0.
         12    1    1    2    0    0  0.18337113697E+02  0.33472173922E+01 -0.17949066764E+01  0.18726326201E+02  0.00000000000E+00 0. -1.
         11    1    3    3    0    0  0.18144178345E+02 -0.11039277133E+02 -0.14990313495E+01  0.21291405371E+02  0.51100000000E-03 0. -1.
        -11    1    3    3    0    0 -0.75638851158E+01 -0.10314296587E+02 -0.82288358784E+01  0.15208905690E+02  0.51100000000E-03 0.  1.
        -12    1    3    3    0    0 -0.28917406926E+02  0.18006356327E+02  0.11522773904E+02  0.35961362738E+02  0.00000000000E+00 0.  1.
</event>
<event>
 7    1  0.2886818E-013  0.7246122E+02  0.7816164E-02  0.1226709E+00
        -11   -1    0    0    0    0  0.00000000000E+00  0.00000000000E+00  0.45593999997E+02  0.45594000000E+02  0.51100000000E-03 0. -1.
         11   -1    0    0    0    0 -0.00000000000E+00 -0.00000000000E+00 -0.45593999997E+02  0.45594000000E+02  0.51100000000E-03 0.  1.
    9900012    2    1    2    0    0  0.17775128845E+02  0.54469552769E+01  0.22511643328E+01  0.72461220563E+02  0.69999544408E+02 0.  0.
         12    1    1    2    0    0 -0.17775128845E+02 -0.54469552769E+01 -0.22511643328E+01  0.18726779437E+02  0.00000000000E+00 0. -1.
         11    1    3    3    0    0  0.92443376433E+01 -0.20716486412E+02  0.13813081302E+02  0.26559966172E+02  0.51100000000E-03 0. -1.
        -11    1    3    3    0    0 -0.10295894392E+02 -0.18672740156E+01 -0.45717395492E+01  0.11418973524E+02  0.51100000000E-03 0.  1.
        -12    1    3    3    0    0  0.18826685594E+02  0.28030715705E+02 -0.69901774204E+01  0.34482280866E+02  0.00000000000E+00 0.  1.
</event>
<event>
 7    1  0.2886818E-013  0.7246159E+02  0.7816164E-02  0.1226708E+00
        -11   -1    0    0    0    0  0.00000000000E+00  0.00000000000E+00  0.45593999997E+02  0.45594000000E+02  0.51100000000E-03 0.  1.
         11   -1    0    0    0    0 -0.00000000000E+00 -0.00000000000E+00 -0.45593999997E+02  0.45594000000E+02  0.51100000000E-03 0. -1.
    9900012    2    1    2    0    0  0.12961194497E+01  0.17122867522E+02 -0.74703371325E+01  0.72461589381E+02  0.70000024864E+02 0.  0.
         12    1    1    2    0    0 -0.12961194497E+01 -0.17122867522E+02  0.74703371325E+01  0.18726410619E+02  0.00000000000E+00 0. -1.
         11    1    3    3    0    0  0.45862718116E+01  0.10854915105E+02  0.82919535688E+01  0.14409009866E+02  0.51100000000E-03 0. -1.
        -11    1    3    3    0    0  0.79139931088E+01 -0.15174510225E+02  0.12244365859E+02  0.21043325380E+02  0.51100000000E-03 0.  1.
         12    1    3    3    0    0 -0.11204145471E+02  0.21442462643E+02 -0.28006656561E+02  0.37009254135E+02  0.00000000000E+00 0. -1.
</event>
<event>
 7    1  0.2886818E-013  0.7246148E+02  0.7816164E-02  0.1226708E+00
        -11   -1    0    0    0    0  0.00000000000E+00  0.00000000000E+00  0.45593999997E+02  0.45594000000E+02  0.51100000000E-03 0. -1.
         11   -1    0    0    0    0 -0.00000000000E+00 -0.00000000000E+00 -0.45593999997E+02  0.45594000000E+02  0.51100000000E-03 0.  1.
    9900012    2    1    2    0    0 -0.77570939423E+01  0.80668519610E+01 -0.15014527179E+02  0.72461477808E+02  0.69999879519E+02 0.  0.
         12    1    1    2    0    0  0.77570939423E+01 -0.80668519610E+01  0.15014527179E+02  0.18726522192E+02  0.00000000000E+00 0. -1.
         11    1    3    3    0    0 -0.54648002826E+01 -0.18299527664E+02 -0.85439861293E+01  0.20922152234E+02  0.51100000000E-03 0. -1.
        -11    1    3    3    0    0  0.12927886013E+02  0.19056552855E+02 -0.19529401560E+02  0.30194038635E+02  0.51100000000E-03 0.  1.
         12    1    3    3    0    0 -0.15220179673E+02  0.73098267701E+01  0.13058860510E+02  0.21345286939E+02  0.00000000000E+00 0. -1.
</event>
<event>
 7    1  0.2886818E-013  0.7246166E+02  0.7816164E-02  0.1226708E+00
        -11   -1    0    0    0    0  0.00000000000E+00  0.00000000000E+00  0.45593999997E+02  0.45594000000E+02  0.51100000000E-03 0.  1.
         11   -1    0    0    0    0 -0.00000000000E+00 -0.00000000000E+00 -0.45593999997E+02  0.45594000000E+02  0.51100000000E-03 0. -1.
    9900012    2    1    2    0    0 -0.17934793197E+02 -0.33124500002E+01 -0.42481386541E+01  0.72461659886E+02  0.70000116710E+02 0.  0.
         12    1    1    2    0    0  0.17934793197E+02  0.33124500002E+01  0.42481386541E+01  0.18726340114E+02  0.00000000000E+00 0. -1.
         11    1    3    3    0    0 -0.13862220546E+02  0.10006317638E+02 -0.16559646902E+01  0.17176430667E+02  0.51100000000E-03 0. -1.
        -11    1    3    3    0    0 -0.15785606870E+02  0.86196623274E+01  0.16127821049E+02  0.24157619397E+02  0.51100000000E-03 0.  1.
         12    1    3    3    0    0  0.11713034219E+02 -0.21938429965E+02 -0.18719995012E+02  0.31127609822E+02  0.00000000000E+00 0. -1.
</event>
<event>
 7    1  0.2886818E-013  0.7246162E+02  0.7816164E-02  0.1226708E+00
        -11   -1    0    0    0    0  0.00000000000E+00  0.00000000000E+00  0.45593999997E+02  0.45594000000E+02  0.51100000000E-03 0.  1.
         11   -1    0    0    0    0 -0.00000000000E+00 -0.00000000000E+00 -0.45593999997E+02  0.45594000000E+02  0.51100000000E-03 0. -1.
    9900012    2    1    2    0    0  0.14701837878E+02 -0.32417388362E+01  0.11136619102E+02  0.72461623076E+02  0.70000068758E+02 0.  0.
         12    1    1    2    0    0 -0.14701837878E+02  0.32417388362E+01 -0.11136619102E+02  0.18726376924E+02  0.00000000000E+00 0. -1.
         11    1    3    3    0    0  0.13534914617E+02  0.69310481220E+01  0.56703364648E+01  0.16229173042E+02  0.51100000000E-03 0. -1.
        -11    1    3    3    0    0  0.80522678459E+01  0.94275966095E+01  0.24880426109E+02  0.27798456772E+02  0.51100000000E-03 0.  1.
         12    1    3    3    0    0 -0.68853445850E+01 -0.19600383568E+02 -0.19414143472E+02  0.28433993262E+02  0.00000000000E+00 0. -1.
</event>
<event>
 7    1  0.2886818E-013  0.7246164E+02  0.7816164E-02  0.1226708E+00
        -11   -1    0    0    0    0  0.00000000000E+00  0.00000000000E+00  0.45593999997E+02  0.45594000000E+02  0.51100000000E-03 0. -1.
         11   -1    0    0    0    0 -0.00000000000E+00 -0.00000000000E+00 -0.45593999997E+02  0.45594000000E+02  0.51100000000E-03 0.  1.
    9900012    2    1    2    0    0  0.81456756974E+01  0.80244299856E+01 -0.14830135280E+02  0.72461643665E+02  0.70000095579E+02 0.  0.
         12    1    1    2    0    0 -0.81456756974E+01 -0.80244299856E+01  0.14830135280E+02  0.18726356335E+02  0.00000000000E+00 0. -1.
         11    1    3    3    0    0 -0.14337822355E+01 -0.48782955199E+01 -0.19936292460E+02  0.20574480698E+02  0.51100000000E-03 0. -1.
        -11    1    3    3    0    0  0.14825017287E+02  0.16624005018E+02 -0.17536365014E+02  0.28348946692E+02  0.51100000000E-03 0.  1.
         12    1    3    3    0    0 -0.52455593536E+01 -0.37212795125E+01  0.22642522193E+02  0.23538216275E+02  0.00000000000E+00 0. -1.
</event>
<event>
 7    1  0.2886818E-013  0.7246156E+02  0.7816164E-02  0.1226708E+00
        -11   -1    0    0    0    0  0.00000000000E+00  0.00000000000E+00  0.45593999997E+02  0.45594000000E+02  0.51100000000E-03 0. -1.
         11   -1    0    0    0    0 -0.00000000000E+00 -0.00000000000E+00 -0.45593999997E+02  0.45594000000E+02  0.51100000000E-03 0.  1.
    9900012    2    1    2    0    0  0.12813777819E+02 -0.55868776474E+00 -0.13644581810E+02  0.72461557551E+02  0.69999983400E+02 0.  0.
         12    1    1    2    0    0 -0.12813777819E+02  0.55868776474E+00  0.13644581810E+02  0.18726442449E+02  0.00000000000E+00 0. -1.
         11    1    3    3    0    0  0.26572697953E+02  0.24151340418E+02 -0.49771323492E+01  0.36251446415E+02  0.51100000000E-03 0. -1.
        -11    1    3    3    0    0  0.50317792017E+01 -0.15296483605E+01 -0.20546168197E+01  0.56462444668E+01  0.51100000000E-03 0.  1.
         12    1    3    3    0    0 -0.18790699336E+02 -0.23180379822E+02 -0.66128326414E+01  0.30563866670E+02  0.00000000000E+00 0. -1.
</event>
<event>
 7    1  0.2886818E-013  0.7246157E+02  0.7816164E-02  0.1226708E+00
        -11   -1    0    0    0    0  0.00000000000E+00  0.00000000000E+00  0.45593999997E+02  0.45594000000E+02  0.51100000000E-03 0.  1.
         11   -1    0    0    0    0 -0.00000000000E+00 -0.00000000000E+00 -0.45593999997E+02  0.45594000000E+02  0.51100000000E-03 0. -1.
    9900012    2    1    2    0    0  0.16414256873E+00  0.64063309072E+01  0.17595771526E+02  0.72461569639E+02  0.69999999146E+02 0.  0.
         12    1    1    2    0    0 -0.16414256873E+00 -0.64063309072E+01 -0.17595771526E+02  0.18726430361E+02  0.00000000000E+00 0. -1.
         11    1    3    3    0    0 -0.14101976698E+01 -0.14996796465E+02 -0.25244487733E+01  0.15273028630E+02  0.51100000000E-03 0. -1.
        -11    1    3    3    0    0 -0.14354195678E+02  0.12635982986E+02  0.30687784412E+02  0.36158693449E+02  0.51100000000E-03 0.  1.
         12    1    3    3    0    0  0.15928535916E+02  0.87671443856E+01 -0.10567564112E+02  0.21029847559E+02  0.00000000000E+00 0. -1.
</event>
<event>
 7    1  0.2886818E-013  0.7246157E+02  0.7816164E-02  0.1226708E+00
        -11   -1    0    0    0    0  0.00000000000E+00  0.00000000000E+00  0.45593999997E+02  0.45594000000E+02  0.51100000000E-03 0.  1.
         11   -1    0    0    0    0 -0.00000000000E+00 -0.00000000000E+00 -0.45593999997E+02  0.45594000000E+02  0.51100000000E-03 0. -1.
    9900012    2    1    2    0    0 -0.16834943423E+02  0.49659885838E+01  0.65270848058E+01  0.72461569514E+02  0.69999998984E+02 0.  0.
         12    1    1    2    0    0  0.16834943423E+02 -0.49659885838E+01 -0.65270848058E+01  0.18726430486E+02  0.00000000000E+00 0. -1.
         11    1    3    3    0    0  0.43598657274E+01  0.12416332408E+02  0.35541048338E+01  0.13631045487E+02  0.51100000000E-03 0.  1.
        -11    1    3    3    0    0 -0.11971071445E+02 -0.18118118105E+02  0.24724734792E+02  0.32907222094E+02  0.51100000000E-03 0. -1.
         12    1    3    3    0    0 -0.92237377061E+01  0.10667774280E+02 -0.21751754820E+02  0.25923301933E+02  0.00000000000E+00 0. -1.
</event>
<event>
 7    1  0.2886818E-013  0.7246155E+02  0.7816164E-02  0.1226708E+00
        -11   -1    0    0    0    0  0.00000000000E+00  0.00000000000E+00  0.45593999997E+02  0.45594000000E+02  0.51100000000E-03 0.  1.
         11   -1    0    0    0    0 -0.00000000000E+00 -0.00000000000E+00 -0.45593999997E+02  0.45594000000E+02  0.51100000000E-03 0. -1.
    9900012    2    1    2    0    0 -0.10794625681E+02 -0.13810263189E+02  0.65903306683E+01  0.72461554228E+02  0.69999979070E+02 0.  0.
         12    1    1    2    0    0  0.10794625681E+02  0.13810263189E+02 -0.65903306683E+01  0.18726445772E+02  0.00000000000E+00 0. -1.
         11    1    3    3    0    0 -0.35160069576E+02 -0.16490100321E+02 -0.27942450631E+01  0.38935352919E+02  0.51100000000E-03 0. -1.
        -11    1    3    3    0    0 -0.16768029402E+01 -0.36322447793E+01  0.49514791698E+01  0.63656905727E+01  0.51100000000E-03 0.  1.
        -12    1    3    3    0    0  0.26042246835E+02  0.63120819113E+01  0.44330965616E+01  0.27160510735E+02  0.00000000000E+00 0.  1.
</event>
<event>
 7    1  0.2886818E-013  0.7246153E+02  0.7816164E-02  0.1226708E+00
        -11   -1    0    0    0    0  0.00000000000E+00  0.00000000000E+00  0.45593999997E+02  0.45594000000E+02  0.51100000000E-03 0.  1.
         11   -1    0    0    0    0 -0.00000000000E+00 -0.00000000000E+00 -0.45593999997E+02  0.45594000000E+02  0.51100000000E-03 0. -1.
    9900012    2    1    2    0    0 -0.13548390382E+02  0.42792097139E+01  0.12198782623E+02  0.72461526354E+02  0.69999942760E+02 0.  0.
         12    1    1    2    0    0  0.13548390382E+02 -0.42792097139E+01 -0.12198782623E+02  0.18726473646E+02  0.00000000000E+00 0. -1.
         11    1    3    3    0    0  0.17784922102E+01  0.36160631642E+01  0.78608663319E+01  0.88335817819E+01  0.51100000000E-03 0. -1.
        -11    1    3    3    0    0  0.21181768779E+02  0.56478449750E+00  0.14566685734E+02  0.25713316466E+02  0.51100000000E-03 0.  1.
         12    1    3    3    0    0 -0.36508651372E+02  0.98362052239E-01 -0.10228769443E+02  0.37914628106E+02  0.00000000000E+00 0. -1.
</event>
<event>
 7    1  0.2886818E-013  0.7246215E+02  0.7816164E-02  0.1226706E+00
        -11   -1    0    0    0    0  0.00000000000E+00  0.00000000000E+00  0.45593999997E+02  0.45594000000E+02  0.51100000000E-03 0.  1.
         11   -1    0    0    0    0 -0.00000000000E+00 -0.00000000000E+00 -0.45593999997E+02  0.45594000000E+02  0.51100000000E-03 0. -1.
    9900012    2    1    2    0    0  0.15336195440E+02  0.50352479616E+01  0.94923528676E+01  0.72462152206E+02  0.70000758045E+02 0.  0.
         12    1    1    2    0    0 -0.15336195440E+02 -0.50352479616E+01 -0.94923528676E+01  0.18725847794E+02  0.00000000000E+00 0. -1.
         11    1    3    3    0    0  0.14291099033E+02  0.71670867496E+01  0.27134241537E+02  0.31493963042E+02  0.51100000000E-03 0. -1.
        -11    1    3    3    0    0  0.16415792170E+02  0.31926523199E+01  0.33151472253E+00  0.16726660267E+02  0.51100000000E-03 0.  1.
         12    1    3    3    0    0 -0.15370695763E+02 -0.53244911079E+01 -0.17973403392E+02  0.24241528897E+02  0.00000000000E+00 0. -1.
</event>
<event>
 7    1  0.2886818E-013  0.7246159E+02  0.7816164E-02  0.1226708E+00
        -11   -1    0    0    0    0  0.00000000000E+00  0.00000000000E+00  0.45593999997E+02  0.45594000000E+02  0.51100000000E-03 0.  1.
         11   -1    0    0    0    0 -0.00000000000E+00 -0.00000000000E+00 -0.45593999997E+02  0.45594000000E+02  0.51100000000E-03 0. -1.
    9900012    2    1    2    0    0  0.25296154096E+01 -0.17506933121E+02 -0.61470862922E+01  0.72461592675E+02  0.70000029155E+02 0.  0.
         12    1    1    2    0    0 -0.25296154096E+01  0.17506933121E+02  0.61470862922E+01  0.18726407325E+02  0.00000000000E+00 0. -1.
         11    1    3    3    0    0 -0.96179027728E+01  0.16038672720E+02 -0.40475997937E+01  0.19134422926E+02  0.51100000000E-03 0. -1.
        -11    1    3    3    0    0 -0.45655729317E+01 -0.35214548200E+02 -0.61784036401E+01  0.36042773658E+02  0.51100000000E-03 0.  1.
         12    1    3    3    0    0  0.16713091114E+02  0.16689423598E+01  0.40789171415E+01  0.17284396091E+02  0.00000000000E+00 0. -1.
</event>
<event>
 7    1  0.2886818E-013  0.7246152E+02  0.7816164E-02  0.1226708E+00
        -11   -1    0    0    0    0  0.00000000000E+00  0.00000000000E+00  0.45593999997E+02  0.45594000000E+02  0.51100000000E-03 0. -1.
         11   -1    0    0    0    0 -0.00000000000E+00 -0.00000000000E+00 -0.45593999997E+02  0.45594000000E+02  0.51100000000E-03 0.  1.
    9900012    2    1    2    0    0 -0.18332280620E+02 -0.13474637390E+00  0.38197201498E+01  0.72461523253E+02  0.69999938720E+02 0.  0.
         12    1    1    2    0    0  0.18332280620E+02  0.13474637390E+00 -0.38197201498E+01  0.18726476747E+02  0.00000000000E+00 0. -1.
         11    1    3    3    0    0  0.22154638626E+02 -0.43061887214E+01 -0.10135214074E+02  0.24740530280E+02  0.51100000000E-03 0. -1.
        -11    1    3    3    0    0 -0.14890007047E+02  0.10827852458E+02  0.10082529840E+02  0.20990762420E+02  0.51100000000E-03 0.  1.
        -12    1    3    3    0    0 -0.25596912199E+02 -0.66564101102E+01  0.38724043839E+01  0.26730230553E+02  0.00000000000E+00 0.  1.
</event>
<event>
 7    1  0.2886818E-013  0.7246157E+02  0.7816164E-02  0.1226708E+00
        -11   -1    0    0    0    0  0.00000000000E+00  0.00000000000E+00  0.45593999997E+02  0.45594000000E+02  0.51100000000E-03 0. -1.
         11   -1    0    0    0    0 -0.00000000000E+00 -0.00000000000E+00 -0.45593999997E+02  0.45594000000E+02  0.51100000000E-03 0.  1.
    9900012    2    1    2    0    0 -0.34576497356E+01  0.98530801978E+01 -0.15544791589E+02  0.72461572775E+02  0.70000003231E+02 0.  0.
         12    1    1    2    0    0  0.34576497356E+01 -0.98530801978E+01  0.15544791589E+02  0.18726427225E+02  0.00000000000E+00 0. -1.
         11    1    3    3    0    0  0.82157121605E+01  0.10746810658E+02  0.18007105582E+01  0.13646773406E+02  0.51100000000E-03 0. -1.
        -11    1    3    3    0    0  0.13310007232E+02  0.18781435180E+02 -0.13745232640E+02  0.26811005586E+02  0.51100000000E-03 0.  1.
         12    1    3    3    0    0 -0.24983369129E+02 -0.19675165640E+02 -0.36002695070E+01  0.32003793783E+02  0.00000000000E+00 0. -1.
</event>
<event>
 7    1  0.2886818E-013  0.7246148E+02  0.7816164E-02  0.1226708E+00
        -11   -1    0    0    0    0  0.00000000000E+00  0.00000000000E+00  0.45593999997E+02  0.45594000000E+02  0.51100000000E-03 0.  1.
         11   -1    0    0    0    0 -0.00000000000E+00 -0.00000000000E+00 -0.45593999997E+02  0.45594000000E+02  0.51100000000E-03 0. -1.
    9900012    2    1    2    0    0  0.14765140828E+02  0.22929929429E+01  0.11287845113E+02  0.72461477430E+02  0.69999879026E+02 0.  0.
         12    1    1    2    0    0 -0.14765140828E+02 -0.22929929429E+01 -0.11287845113E+02  0.18726522570E+02  0.00000000000E+00 0. -1.
         11    1    3    3    0    0  0.14586997586E+02  0.26842601019E+01 -0.59319450750E+01  0.15974157991E+02  0.51100000000E-03 0. -1.
        -11    1    3    3    0    0  0.12674629328E+02  0.16220494749E+02 -0.94687209305E+01  0.22658494099E+02  0.51100000000E-03 0.  1.
         12    1    3    3    0    0 -0.12496486086E+02 -0.16611761908E+02  0.26688511118E+02  0.33828825340E+02  0.00000000000E+00 0. -1.
</event>
<event>
 7    1  0.2886818E-013  0.7246152E+02  0.7816164E-02  0.1226708E+00
        -11   -1    0    0    0    0  0.00000000000E+00  0.00000000000E+00  0.45593999997E+02  0.45594000000E+02  0.51100000000E-03 0.  1.
         11   -1    0    0    0    0 -0.00000000000E+00 -0.00000000000E+00 -0.45593999997E+02  0.45594000000E+02  0.51100000000E-03 0. -1.
    9900012    2    1    2    0    0  0.42565826333E+01 -0.15882642727E+02  0.89612661214E+01  0.72461518050E+02  0.69999931942E+02 0.  0.
         12    1    1    2    0    0 -0.42565826333E+01  0.15882642727E+02 -0.89612661214E+01  0.18726481950E+02  0.00000000000E+00 0. -1.
         11    1    3    3    0    0 -0.12473314886E+01  0.12259260885E+02 -0.21575183945E+02  0.24846204455E+02  0.51100000000E-03 0. -1.
        -11    1    3    3    0    0 -0.43041545694E+01 -0.40948792377E+01 -0.17376593130E+01  0.61897691942E+01  0.51100000000E-03 0.  1.
        -12    1    3    3    0    0  0.98080686913E+01 -0.24047024374E+02  0.32274109379E+02  0.41425544401E+02  0.00000000000E+00 0.  1.
</event>
<event>
 7    1  0.2886818E-013  0.7246156E+02  0.7816164E-02  0.1226708E+00
        -11   -1    0    0    0    0  0.00000000000E+00  0.00000000000E+00  0.45593999997E+02  0.45594000000E+02  0.51100000000E-03 0.  1.
         11   -1    0    0    0    0 -0.00000000000E+00 -0.00000000000E+00 -0.45593999997E+02  0.45594000000E+02  0.51100000000E-03 0. -1.
    9900012    2    1    2    0    0  0.73271912428E+01 -0.12191420624E+02  0.12180353728E+02  0.72461561863E+02  0.69999989017E+02 0.  0.
         12    1    1    2    0    0 -0.73271912428E+01  0.12191420624E+02 -0.12180353728E+02  0.18726438137E+02  0.00000000000E+00 0. -1.
         11    1    3    3    0    0 -0.52896629564E+01 -0.14325767222E+02  0.13161198506E+02  0.20159992239E+02  0.51100000000E-03 0. -1.
        -11    1    3    3    0    0  0.31482238392E+02  0.12882623966E+01  0.61730463538E+01  0.32107591870E+02  0.51100000000E-03 0.  1.
         12    1    3    3    0    0 -0.18865384193E+02  0.84608420129E+00 -0.71538911316E+01  0.20193977754E+02  0.00000000000E+00 0. -1.
</event>
<event>
 7    1  0.2886818E-013  0.7246164E+02  0.7816164E-02  0.1226708E+00
        -11   -1    0    0    0    0  0.00000000000E+00  0.00000000000E+00  0.45593999997E+02  0.45594000000E+02  0.51100000000E-03 0. -1.
         11   -1    0    0    0    0 -0.00000000000E+00 -0.00000000000E+00 -0.45593999997E+02  0.45594000000E+02  0.51100000000E-03 0.  1.
    9900012    2    1    2    0    0  0.18457547744E+02 -0.27084197782E+01 -0.16309426651E+01  0.72461639425E+02  0.70000090055E+02 0.  0.
         12    1    1    2    0    0 -0.18457547744E+02  0.27084197782E+01  0.16309426651E+01  0.18726360575E+02  0.00000000000E+00 0. -1.
         11    1    3    3    0    0  0.16464406242E+02  0.30154600938E+01  0.26193772358E+02  0.31085099052E+02  0.51100000000E-03 0. -1.
        -11    1    3    3    0    0 -0.83271449680E+01 -0.82710032258E+01 -0.15777938679E+00  0.11737790775E+02  0.51100000000E-03 0.  1.
        -12    1    3    3    0    0  0.10320286470E+02  0.25471233539E+01 -0.27666935636E+02  0.29638749597E+02  0.00000000000E+00 0.  1.
</event>
<event>
 7    1  0.2886818E-013  0.7246152E+02  0.7816164E-02  0.1226708E+00
        -11   -1    0    0    0    0  0.00000000000E+00  0.00000000000E+00  0.45593999997E+02  0.45594000000E+02  0.51100000000E-03 0.  1.
         11   -1    0    0    0    0 -0.00000000000E+00 -0.00000000000E+00 -0.45593999997E+02  0.45594000000E+02  0.51100000000E-03 0. -1.
    9900012    2    1    2    0    0  0.22393624361E+00  0.76614136601E+01  0.17086060754E+02  0.72461524656E+02  0.69999940548E+02 0.  0.
         12    1    1    2    0    0 -0.22393624361E+00 -0.76614136601E+01 -0.17086060754E+02  0.18726475344E+02  0.00000000000E+00 0. -1.
         11    1    3    3    0    0 -0.24680221310E+01  0.10710576497E+01 -0.14664364329E+01  0.30641040780E+01  0.51100000000E-03 0. -1.
        -11    1    3    3    0    0 -0.11885435321E+02  0.14158356890E+02  0.39006398568E+02  0.43165052671E+02  0.51100000000E-03 0.  1.
         12    1    3    3    0    0  0.14577393696E+02 -0.75680008800E+01 -0.20453901381E+02  0.26232367907E+02  0.00000000000E+00 0. -1.
</event>
<event>
 7    1  0.2886818E-013  0.7246161E+02  0.7816164E-02  0.1226708E+00
        -11   -1    0    0    0    0  0.00000000000E+00  0.00000000000E+00  0.45593999997E+02  0.45594000000E+02  0.51100000000E-03 0. -1.
         11   -1    0    0    0    0 -0.00000000000E+00 -0.00000000000E+00 -0.45593999997E+02  0.45594000000E+02  0.51100000000E-03 0.  1.
    9900012    2    1    2    0    0 -0.52128255240E+01  0.17640208109E+02  0.35110115736E+01  0.72461609682E+02  0.70000051309E+02 0.  0.
         12    1    1    2    0    0  0.52128255240E+01 -0.17640208109E+02 -0.35110115736E+01  0.18726390318E+02  0.00000000000E+00 0. -1.
         11    1    3    3    0    0 -0.21725124033E+02 -0.13097558376E+01 -0.10726927937E+02  0.24264448434E+02  0.51100000000E-03 0. -1.
        -11    1    3    3    0    0 -0.11425007672E+02  0.93151680765E+01 -0.13196220894E+01  0.14800154030E+02  0.51100000000E-03 0.  1.
        -12    1    3    3    0    0  0.27937306181E+02  0.96347958705E+01  0.15557561600E+02  0.33397007217E+02  0.00000000000E+00 0.  1.
</event>
<event>
 7    1  0.2886818E-013  0.7246171E+02  0.7816164E-02  0.1226708E+00
        -11   -1    0    0    0    0  0.00000000000E+00  0.00000000000E+00  0.45593999997E+02  0.45594000000E+02  0.51100000000E-03 0.  1.
         11   -1    0    0    0    0 -0.00000000000E+00 -0.00000000000E+00 -0.45593999997E+02  0.45594000000E+02  0.51100000000E-03 0. -1.
    9900012    2    1    2    0    0  0.97556905328E+01 -0.78949883649E+01  0.13898547473E+02  0.72461709366E+02  0.70000181167E+02 0.  0.
         12    1    1    2    0    0 -0.97556905328E+01  0.78949883649E+01 -0.13898547473E+02  0.18726290634E+02  0.00000000000E+00 0. -1.
         11    1    3    3    0    0 -0.82595745005E+00  0.13024796540E+02 -0.80307056492E+01  0.15323829943E+02  0.51100000000E-03 0. -1.
        -11    1    3    3    0    0  0.44850550967E+01  0.15251947227E+02  0.44780716595E+01  0.16516377917E+02  0.51100000000E-03 0.  1.
        -12    1    3    3    0    0  0.60965928861E+01 -0.36171732132E+02  0.17451181462E+02  0.40621501507E+02  0.00000000000E+00 0.  1.
</event>
<event>
 7    1  0.2886818E-013  0.7246158E+02  0.7816164E-02  0.1226708E+00
        -11   -1    0    0    0    0  0.00000000000E+00  0.00000000000E+00  0.45593999997E+02  0.45594000000E+02  0.51100000000E-03 0. -1.
         11   -1    0    0    0    0 -0.00000000000E+00 -0.00000000000E+00 -0.45593999997E+02  0.45594000000E+02  0.51100000000E-03 0.  1.
    9900012    2    1    2    0    0  0.36645680454E+00  0.14034463380E+02 -0.12392679209E+02  0.72461576131E+02  0.70000007603E+02 0.  0.
         12    1    1    2    0    0 -0.36645680454E+00 -0.14034463380E+02  0.12392679209E+02  0.18726423869E+02  0.00000000000E+00 0. -1.
         11    1    3    3    0    0 -0.42941839245E+01  0.64360004326E+00  0.43312529189E+01  0.61330244335E+01  0.51100000000E-03 0. -1.
        -11    1    3    3    0    0 -0.11217488373E+02 -0.17745014548E+02 -0.22645825244E+02  0.30879620916E+02  0.51100000000E-03 0.  1.
         12    1    3    3    0    0  0.15878129102E+02  0.31135877885E+02  0.59218931159E+01  0.35448930781E+02  0.00000000000E+00 0. -1.
</event>
<event>
 7    1  0.2886818E-013  0.7246163E+02  0.7816164E-02  0.1226708E+00
        -11   -1    0    0    0    0  0.00000000000E+00  0.00000000000E+00  0.45593999997E+02  0.45594000000E+02  0.51100000000E-03 0.  1.
         11   -1    0    0    0    0 -0.00000000000E+00 -0.00000000000E+00 -0.45593999997E+02  0.45594000000E+02  0.51100000000E-03 0. -1.
    9900012    2    1    2    0    0  0.46960845295E+01  0.44691625251E+01  0.17568448063E+02  0.72461628464E+02  0.70000075777E+02 0.  0.
         12    1    1    2    0    0 -0.46960845295E+01 -0.44691625251E+01 -0.17568448063E+02  0.18726371536E+02  0.00000000000E+00 0. -1.
         11    1    3    3    0    0 -0.57610201594E+01  0.18043298386E+02 -0.11688424383E+02  0.22256891848E+02  0.51100000000E-03 0. -1.
        -11    1    3    3    0    0  0.73211116688E+01  0.69863872943E+01 -0.40806657796E+01  0.10911467223E+02  0.51100000000E-03 0.  1.
        -12    1    3    3    0    0  0.31359930202E+01 -0.20560523155E+02  0.33337538226E+02  0.39293269393E+02  0.00000000000E+00 0.  1.
</event>
<event>
 7    1  0.2886818E-013  0.7246173E+02  0.7816164E-02  0.1226708E+00
        -11   -1    0    0    0    0  0.00000000000E+00  0.00000000000E+00  0.45593999997E+02  0.45594000000E+02  0.51100000000E-03 0. -1.
         11   -1    0    0    0    0 -0.00000000000E+00 -0.00000000000E+00 -0.45593999997E+02  0.45594000000E+02  0.51100000000E-03 0.  1.
    9900012    2    1    2    0    0  0.41170125489E+01 -0.17230240821E+02 -0.60697843852E+01  0.72461727718E+02  0.70000205074E+02 0.  0.
         12    1    1    2    0    0 -0.41170125489E+01  0.17230240821E+02  0.60697843852E+01  0.18726272282E+02  0.00000000000E+00 0. -1.
         11    1    3    3    0    0  0.29636938118E+01  0.31141042921E+01 -0.10063946888E+01  0.44151961545E+01  0.51100000000E-03 0. -1.
        -11    1    3    3    0    0  0.15453823086E+02 -0.87181850396E+00 -0.29730876245E+02  0.33518736821E+02  0.51100000000E-03 0.  1.
         12    1    3    3    0    0 -0.14300504349E+02 -0.19472526609E+02  0.24667486549E+02  0.34527794743E+02  0.00000000000E+00 0. -1.
</event>
<event>
 7    1  0.2886818E-013  0.7246175E+02  0.7816164E-02  0.1226708E+00
        -11   -1    0    0    0    0  0.00000000000E+00  0.00000000000E+00  0.45593999997E+02  0.45594000000E+02  0.51100000000E-03 0.  1.
         11   -1    0    0    0    0 -0.00000000000E+00 -0.00000000000E+00 -0.45593999997E+02  0.45594000000E+02  0.51100000000E-03 0. -1.
    9900012    2    1    2    0    0  0.10425960202E+02 -0.11409721218E+02  0.10573090202E+02  0.72461745146E+02  0.70000227777E+02 0.  0.
         12    1    1    2    0    0 -0.10425960202E+02  0.11409721218E+02 -0.10573090202E+02  0.18726254854E+02  0.00000000000E+00 0. -1.
         11    1    3    3    0    0 -0.11679218356E+02 -0.91883801361E+01 -0.73641708032E+01  0.16584977625E+02  0.51100000000E-03 0. -1.
        -11    1    3    3    0    0 -0.82559572654E+01 -0.16768677050E+02  0.25620132890E+01  0.18865663856E+02  0.51100000000E-03 0.  1.
        -12    1    3    3    0    0  0.30361135823E+02  0.14547335967E+02  0.15375247717E+02  0.37011103666E+02  0.00000000000E+00 0.  1.
</event>
<event>
 7    1  0.2886818E-013  0.7246160E+02  0.7816164E-02  0.1226708E+00
        -11   -1    0    0    0    0  0.00000000000E+00  0.00000000000E+00  0.45593999997E+02  0.45594000000E+02  0.51100000000E-03 0.  1.
         11   -1    0    0    0    0 -0.00000000000E+00 -0.00000000000E+00 -0.45593999997E+02  0.45594000000E+02  0.51100000000E-03 0. -1.
    9900012    2    1    2    0    0  0.10184577562E+02 -0.12482098919E+02  0.95472354982E+01  0.72461598338E+02  0.70000036533E+02 0.  0.
         12    1    1    2    0    0 -0.10184577562E+02  0.12482098919E+02 -0.95472354982E+01  0.18726401662E+02  0.00000000000E+00 0. -1.
         11    1    3    3    0    0  0.55592438057E+00  0.14587264884E+02 -0.96043647795E+01  0.17474014187E+02  0.51100000000E-03 0. -1.
        -11    1    3    3    0    0  0.10051397520E+02  0.10097285128E+02  0.35917419768E+01  0.14693072169E+02  0.51100000000E-03 0.  1.
        -12    1    3    3    0    0 -0.42274433900E+00 -0.37166648932E+02  0.15559858301E+02  0.40294511983E+02  0.00000000000E+00 0.  1.
</event>
<event>
 7    1  0.2886818E-013  0.7246158E+02  0.7816164E-02  0.1226708E+00
        -11   -1    0    0    0    0  0.00000000000E+00  0.00000000000E+00  0.45593999997E+02  0.45594000000E+02  0.51100000000E-03 0.  1.
         11   -1    0    0    0    0 -0.00000000000E+00 -0.00000000000E+00 -0.45593999997E+02  0.45594000000E+02  0.51100000000E-03 0. -1.
    9900012    2    1    2    0    0 -0.54007659557E+01  0.15525147516E+02  0.89710830981E+01  0.72461579887E+02  0.70000012496E+02 0.  0.
         12    1    1    2    0    0  0.54007659557E+01 -0.15525147516E+02 -0.89710830981E+01  0.18726420113E+02  0.00000000000E+00 0. -1.
         11    1    3    3    0    0 -0.60251578692E+01  0.45795855031E+01 -0.18561571680E+01  0.77923327972E+01  0.51100000000E-03 0. -1.
        -11    1    3    3    0    0 -0.29723694158E+02  0.84350894592E+01  0.14251114695E+02  0.34025622683E+02  0.51100000000E-03 0.  1.
         12    1    3    3    0    0  0.30348086072E+02  0.25104725540E+01 -0.34238744294E+01  0.30643624407E+02  0.00000000000E+00 0. -1.
</event>
<event>
 7    1  0.2886818E-013  0.7246165E+02  0.7816164E-02  0.1226708E+00
        -11   -1    0    0    0    0  0.00000000000E+00  0.00000000000E+00  0.45593999997E+02  0.45594000000E+02  0.51100000000E-03 0.  1.
         11   -1    0    0    0    0 -0.00000000000E+00 -0.00000000000E+00 -0.45593999997E+02  0.45594000000E+02  0.51100000000E-03 0. -1.
    9900012    2    1    2    0    0  0.12667385151E+01  0.11473855211E+02  0.14745244422E+02  0.72461649237E+02  0.70000102837E+02 0.  0.
         12    1    1    2    0    0 -0.12667385151E+01 -0.11473855211E+02 -0.14745244422E+02  0.18726350763E+02  0.00000000000E+00 0. -1.
         11    1    3    3    0    0  0.15258916540E+02  0.11657875578E+02 -0.77451370772E+01  0.20705741850E+02  0.51100000000E-03 0. -1.
        -11    1    3    3    0    0  0.12133222258E+02 -0.10776288988E+02  0.16079813719E+02  0.22845216047E+02  0.51100000000E-03 0.  1.
         12    1    3    3    0    0 -0.26125400283E+02  0.10592268621E+02  0.64105677795E+01  0.28910691340E+02  0.00000000000E+00 0. -1.
</event>
<event>
 7    1  0.2886818E-013  0.7246152E+02  0.7816164E-02  0.1226708E+00
        -11   -1    0    0    0    0  0.00000000000E+00  0.00000000000E+00  0.45593999997E+02  0.45594000000E+02  0.51100000000E-03 0.  1.
         11   -1    0    0    0    0 -0.00000000000E+00 -0.00000000000E+00 -0.45593999997E+02  0.45594000000E+02  0.51100000000E-03 0. -1.
    9900012    2    1    2    0    0  0.15927119353E+02  0.75350630863E+01  0.63427793142E+01  0.72461517254E+02  0.69999930906E+02 0.  0.
         12    1    1    2    0    0 -0.15927119353E+02 -0.75350630863E+01 -0.63427793142E+01  0.18726482746E+02  0.00000000000E+00 0. -1.
         11    1    3    3    0    0 -0.25446760134E+01  0.15195300518E+02 -0.11579559753E+02  0.19273264856E+02  0.51100000000E-03 0. -1.
        -11    1    3    3    0    0  0.37081657951E+01  0.44090049457E+01  0.30044774924E+02  0.30592128377E+02  0.51100000000E-03 0.  1.
         12    1    3    3    0    0  0.14763629571E+02 -0.12069242378E+02 -0.12122435857E+02  0.22596124021E+02  0.00000000000E+00 0. -1.
</event>
<event>
 7    1  0.2886818E-013  0.7246156E+02  0.7816164E-02  0.1226708E+00
        -11   -1    0    0    0    0  0.00000000000E+00  0.00000000000E+00  0.45593999997E+02  0.45594000000E+02  0.51100000000E-03 0.  1.
         11   -1    0    0    0    0 -0.00000000000E+00 -0.00000000000E+00 -0.45593999997E+02  0.45594000000E+02  0.51100000000E-03 0. -1.
    9900012    2    1    2    0    0  0.88687800397E+01 -0.13274181374E+02 -0.97887899162E+01  0.72461559907E+02  0.69999986468E+02 0.  0.
         12    1    1    2    0    0 -0.88687800397E+01  0.13274181374E+02  0.97887899162E+01  0.18726440093E+02  0.00000000000E+00 0. -1.
         11    1    3    3    0    0 -0.23565899944E+00  0.10227970278E+02  0.16948312949E+01  0.10370118830E+02  0.51100000000E-03 0. -1.
        -11    1    3    3    0    0  0.10497992485E+02 -0.21014938922E+02  0.19772940401E+02  0.30705124596E+02  0.51100000000E-03 0.  1.
         12    1    3    3    0    0 -0.13935534455E+01 -0.24872127304E+01 -0.31256561613E+02  0.31386316480E+02  0.00000000000E+00 0. -1.
</event>
<event>
 7    1  0.2886818E-013  0.7246161E+02  0.7816164E-02  0.1226708E+00
        -11   -1    0    0    0    0  0.00000000000E+00  0.00000000000E+00  0.45593999997E+02  0.45594000000E+02  0.51100000000E-03 0. -1.
         11   -1    0    0    0    0 -0.00000000000E+00 -0.00000000000E+00 -0.45593999997E+02  0.45594000000E+02  0.51100000000E-03 0.  1.
    9900012    2    1    2    0    0  0.77881865220E+01  0.14659935434E+02 -0.86664994104E+01  0.72461607709E+02  0.70000048739E+02 0.  0.
         12    1    1    2    0    0 -0.77881865220E+01 -0.14659935434E+02  0.86664994104E+01  0.18726392291E+02  0.00000000000E+00 0. -1.
         11    1    3    3    0    0 -0.10633834486E+02  0.32328123880E+01 -0.63200937314E+01  0.12785659813E+02  0.51100000000E-03 0. -1.
        -11    1    3    3    0    0 -0.69600244938E+01 -0.27486305451E+01 -0.22887060629E+02  0.24079336688E+02  0.51100000000E-03 0.  1.
        -12    1    3    3    0    0  0.25382045502E+02  0.14175753591E+02  0.20540654950E+02  0.35596611208E+02  0.00000000000E+00 0.  1.
</event>
<event>
 7    1  0.2886818E-013  0.7246155E+02  0.7816164E-02  0.1226708E+00
        -11   -1    0    0    0    0  0.00000000000E+00  0.00000000000E+00  0.45593999997E+02  0.45594000000E+02  0.51100000000E-03 0. -1.
         11   -1    0    0    0    0 -0.00000000000E+00 -0.00000000000E+00 -0.45593999997E+02  0.45594000000E+02  0.51100000000E-03 0.  1.
    9900012    2    1    2    0    0  0.10897041093E+02 -0.12134393844E+02 -0.92027681220E+01  0.72461549198E+02  0.69999972518E+02 0.  0.
         12    1    1    2    0    0 -0.10897041093E+02  0.12134393844E+02  0.92027681220E+01  0.18726450802E+02  0.00000000000E+00 0. -1.
         11    1    3    3    0    0  0.84988259501E+01 -0.63946130753E+01 -0.61245592395E+01  0.12273196204E+02  0.51100000000E-03 0. -1.
        -11    1    3    3    0    0  0.26218466914E+02  0.11882758820E+02  0.55747012937E+01  0.29320389821E+02  0.51100000000E-03 0.  1.
         12    1    3    3    0    0 -0.23820251771E+02 -0.17622539588E+02 -0.86529101762E+01  0.30867963174E+02  0.00000000000E+00 0. -1.
</event>
<event>
 7    1  0.2886818E-013  0.7246167E+02  0.7816164E-02  0.1226708E+00
        -11   -1    0    0    0    0  0.00000000000E+00  0.00000000000E+00  0.45593999997E+02  0.45594000000E+02  0.51100000000E-03 0. -1.
         11   -1    0    0    0    0 -0.00000000000E+00 -0.00000000000E+00 -0.45593999997E+02  0.45594000000E+02  0.51100000000E-03 0.  1.
    9900012    2    1    2    0    0 -0.17356632306E+02 -0.20625577251E+01 -0.67207656034E+01  0.72461667746E+02  0.70000126949E+02 0.  0.
         12    1    1    2    0    0  0.17356632306E+02  0.20625577251E+01  0.67207656034E+01  0.18726332254E+02  0.00000000000E+00 0. -1.
         11    1    3    3    0    0 -0.57799227858E+01 -0.10631917642E+02 -0.10570991554E+02  0.16068324208E+02  0.51100000000E-03 0. -1.
        -11    1    3    3    0    0 -0.27328392180E+02  0.12461350216E+02 -0.13243170207E+02  0.32825414327E+02  0.51100000000E-03 0.  1.
         12    1    3    3    0    0  0.15751682659E+02 -0.38919902996E+01  0.17093396158E+02  0.23567929211E+02  0.00000000000E+00 0. -1.
</event>
<event>
 7    1  0.2886818E-013  0.7246159E+02  0.7816164E-02  0.1226708E+00
        -11   -1    0    0    0    0  0.00000000000E+00  0.00000000000E+00  0.45593999997E+02  0.45594000000E+02  0.51100000000E-03 0. -1.
         11   -1    0    0    0    0 -0.00000000000E+00 -0.00000000000E+00 -0.45593999997E+02  0.45594000000E+02  0.51100000000E-03 0.  1.
    9900012    2    1    2    0    0  0.78312737244E+01  0.10433153409E+02 -0.13434993952E+02  0.72461585482E+02  0.70000019785E+02 0.  0.
         12    1    1    2    0    0 -0.78312737244E+01 -0.10433153409E+02  0.13434993952E+02  0.18726414518E+02  0.00000000000E+00 0. -1.
         11    1    3    3    0    0  0.99345533270E+01  0.15641277240E+02  0.78047995031E+01  0.20106212947E+02  0.51100000000E-03 0.  1.
        -11    1    3    3    0    0 -0.81178773212E+01  0.13681377318E+02 -0.27324906346E+02  0.31618515534E+02  0.51100000000E-03 0. -1.
         12    1    3    3    0    0  0.60145977187E+01 -0.18889501149E+02  0.60851128907E+01  0.20736857001E+02  0.00000000000E+00 0. -1.
</event>
<event>
 7    1  0.2886818E-013  0.7246131E+02  0.7816164E-02  0.1226709E+00
        -11   -1    0    0    0    0  0.00000000000E+00  0.00000000000E+00  0.45593999997E+02  0.45594000000E+02  0.51100000000E-03 0.  1.
         11   -1    0    0    0    0 -0.00000000000E+00 -0.00000000000E+00 -0.45593999997E+02  0.45594000000E+02  0.51100000000E-03 0. -1.
    9900012    2    1    2    0    0  0.81467511481E+01 -0.10423957729E+01  0.16829515709E+02  0.72461314703E+02  0.69999667044E+02 0.  0.
         12    1    1    2    0    0 -0.81467511481E+01  0.10423957729E+01 -0.16829515709E+02  0.18726685297E+02  0.00000000000E+00 0. -1.
         11    1    3    3    0    0 -0.58551392028E+01 -0.20372650619E+01 -0.87525781136E+01  0.10725704075E+02  0.51100000000E-03 0. -1.
        -11    1    3    3    0    0  0.24338837886E+02  0.17577609916E+02  0.61242078549E+00  0.30028760538E+02  0.51100000000E-03 0.  1.
         12    1    3    3    0    0 -0.10336947535E+02 -0.16582740627E+02  0.24969673037E+02  0.31706850090E+02  0.00000000000E+00 0. -1.
</event>
<event>
 7    1  0.2886818E-013  0.7246156E+02  0.7816164E-02  0.1226708E+00
        -11   -1    0    0    0    0  0.00000000000E+00  0.00000000000E+00  0.45593999997E+02  0.45594000000E+02  0.51100000000E-03 0. -1.
         11   -1    0    0    0    0 -0.00000000000E+00 -0.00000000000E+00 -0.45593999997E+02  0.45594000000E+02  0.51100000000E-03 0.  1.
    9900012    2    1    2    0    0  0.13306483449E+02 -0.11809167030E+02  0.58447188865E+01  0.72461557022E+02  0.69999982711E+02 0.  0.
         12    1    1    2    0    0 -0.13306483449E+02  0.11809167030E+02 -0.58447188865E+01  0.18726442978E+02  0.00000000000E+00 0. -1.
         11    1    3    3    0    0  0.10209712175E+02 -0.18486932134E+02  0.87719140122E+01  0.22868129747E+02  0.51100000000E-03 0. -1.
        -11    1    3    3    0    0  0.75381581012E+01 -0.11096643767E+02  0.17567423553E+02  0.22103703332E+02  0.51100000000E-03 0.  1.
        -12    1    3    3    0    0 -0.44413868271E+01  0.17774408871E+02 -0.20494618679E+02  0.27489723943E+02  0.00000000000E+00 0.  1.
</event>
<event>
 7    1  0.2886818E-013  0.7246167E+02  0.7816164E-02  0.1226708E+00
        -11   -1    0    0    0    0  0.00000000000E+00  0.00000000000E+00  0.45593999997E+02  0.45594000000E+02  0.51100000000E-03 0.  1.
         11   -1    0    0    0    0 -0.00000000000E+00 -0.00000000000E+00 -0.45593999997E+02  0.45594000000E+02  0.51100000000E-03 0. -1.
    9900012    2    1    2    0    0 -0.11167531452E+02 -0.80858770050E+00  0.15010257087E+02  0.72461671192E+02  0.70000131438E+02 0.  0.
         12    1    1    2    0    0  0.11167531452E+02  0.80858770050E+00 -0.15010257087E+02  0.18726328808E+02  0.00000000000E+00 0. -1.
         11    1    3    3    0    0 -0.73339455796E+01 -0.87918249490E+01 -0.12745653527E+02  0.17132852296E+02  0.51100000000E-03 0. -1.
        -11    1    3    3    0    0 -0.22878201669E+02  0.14969596554E+02  0.18633690644E+02  0.33086483039E+02  0.51100000000E-03 0.  1.
         12    1    3    3    0    0  0.19044615797E+02 -0.69863593058E+01  0.91222199699E+01  0.22242335857E+02  0.00000000000E+00 0. -1.
</event>
<event>
 7    1  0.2886818E-013  0.7246158E+02  0.7816164E-02  0.1226708E+00
        -11   -1    0    0    0    0  0.00000000000E+00  0.00000000000E+00  0.45593999997E+02  0.45594000000E+02  0.51100000000E-03 0.  1.
         11   -1    0    0    0    0 -0.00000000000E+00 -0.00000000000E+00 -0.45593999997E+02  0.45594000000E+02  0.51100000000E-03 0. -1.
    9900012    2    1    2    0    0  0.14384198194E+02  0.10923940040E+02  0.49438113348E+01  0.72461577645E+02  0.70000009576E+02 0.  0.
         12    1    1    2    0    0 -0.14384198194E+02 -0.10923940040E+02 -0.49438113348E+01  0.18726422355E+02  0.00000000000E+00 0. -1.
         11    1    3    3    0    0 -0.69778674958E+01  0.22217508796E+02  0.87543562669E+01  0.24878647186E+02  0.51100000000E-03 0. -1.
        -11    1    3    3    0    0 -0.16201230153E+01  0.95099277899E+00  0.15216324009E+02  0.15331852545E+02  0.51100000000E-03 0.  1.
         12    1    3    3    0    0  0.22982188706E+02 -0.12244561536E+02 -0.19026868942E+02  0.32251077914E+02  0.00000000000E+00 0. -1.
</event>
<event>
 7    1  0.2886818E-013  0.7246157E+02  0.7816164E-02  0.1226708E+00
        -11   -1    0    0    0    0  0.00000000000E+00  0.00000000000E+00  0.45593999997E+02  0.45594000000E+02  0.51100000000E-03 0. -1.
         11   -1    0    0    0    0 -0.00000000000E+00 -0.00000000000E+00 -0.45593999997E+02  0.45594000000E+02  0.51100000000E-03 0.  1.
    9900012    2    1    2    0    0 -0.78867148094E+01  0.16434676860E+02  0.42872200630E+01  0.72461571354E+02  0.70000001381E+02 0.  0.
         12    1    1    2    0    0  0.78867148094E+01 -0.16434676860E+02 -0.42872200630E+01  0.18726428646E+02  0.00000000000E+00 0. -1.
         11    1    3    3    0    0  0.55783524614E+01  0.74610424714E+01 -0.16307508811E+02  0.18780841696E+02  0.51100000000E-03 0.  1.
        -11    1    3    3    0    0 -0.24275451298E+01  0.24736977244E+02 -0.84671410640E+00  0.24870222025E+02  0.51100000000E-03 0. -1.
         12    1    3    3    0    0 -0.11037522141E+02 -0.15763342856E+02  0.21441442980E+02  0.28810507633E+02  0.00000000000E+00 0. -1.
</event>
<event>
 7    1  0.2886818E-013  0.7246152E+02  0.7816164E-02  0.1226708E+00
        -11   -1    0    0    0    0  0.00000000000E+00  0.00000000000E+00  0.45593999997E+02  0.45594000000E+02  0.51100000000E-03 0.  1.
         11   -1    0    0    0    0 -0.00000000000E+00 -0.00000000000E+00 -0.45593999997E+02  0.45594000000E+02  0.51100000000E-03 0. -1.
    9900012    2    1    2    0    0  0.64598116333E+01 -0.16994722042E+02  0.44868035209E+01  0.72461517430E+02  0.69999931134E+02 0.  0.
         12    1    1    2    0    0 -0.64598116333E+01  0.16994722042E+02 -0.44868035209E+01  0.18726482570E+02  0.00000000000E+00 0. -1.
         11    1    3    3    0    0 -0.35562632410E+00 -0.11911562913E+02 -0.14867889340E+02  0.19054289144E+02  0.51100000000E-03 0. -1.
        -11    1    3    3    0    0  0.19217714262E+02 -0.15252446718E+02 -0.42190208283E+01  0.24894935416E+02  0.51100000000E-03 0.  1.
         12    1    3    3    0    0 -0.12402276304E+02  0.10169287590E+02  0.23573713689E+02  0.28512292870E+02  0.00000000000E+00 0. -1.
</event>
<event>
 7    1  0.2886818E-013  0.7246154E+02  0.7816164E-02  0.1226708E+00
        -11   -1    0    0    0    0  0.00000000000E+00  0.00000000000E+00  0.45593999997E+02  0.45594000000E+02  0.51100000000E-03 0. -1.
         11   -1    0    0    0    0 -0.00000000000E+00 -0.00000000000E+00 -0.45593999997E+02  0.45594000000E+02  0.51100000000E-03 0.  1.
    9900012    2    1    2    0    0  0.37588138213E+01  0.15838783425E+02 -0.92565942019E+01  0.72461540699E+02  0.69999961447E+02 0.  0.
         12    1    1    2    0    0 -0.37588138213E+01 -0.15838783425E+02  0.92565942019E+01  0.18726459301E+02  0.00000000000E+00 0. -1.
         11    1    3    3    0    0  0.29967830448E+02  0.79475968238E+01  0.24096041222E+01  0.31097288456E+02  0.51100000000E-03 0. -1.
        -11    1    3    3    0    0 -0.66284076165E+01 -0.56939454478E+01  0.69161589374E+01  0.11144059269E+02  0.51100000000E-03 0.  1.
        -12    1    3    3    0    0 -0.19580609010E+02  0.13585132049E+02 -0.18582357262E+02  0.30220192974E+02  0.00000000000E+00 0.  1.
</event>
<event>
 7    1  0.2886818E-013  0.7246157E+02  0.7816164E-02  0.1226708E+00
        -11   -1    0    0    0    0  0.00000000000E+00  0.00000000000E+00  0.45593999997E+02  0.45594000000E+02  0.51100000000E-03 0. -1.
         11   -1    0    0    0    0 -0.00000000000E+00 -0.00000000000E+00 -0.45593999997E+02  0.45594000000E+02  0.51100000000E-03 0.  1.
    9900012    2    1    2    0    0  0.14852930670E+01 -0.17291893041E+02 -0.70330311850E+01  0.72461569798E+02  0.69999999354E+02 0.  0.
         12    1    1    2    0    0 -0.14852930670E+01  0.17291893041E+02  0.70330311850E+01  0.18726430202E+02  0.00000000000E+00 0. -1.
         11    1    3    3    0    0  0.53239638834E+01 -0.32019198798E+02  0.67723021145E+01  0.33157770723E+02  0.51100000000E-03 0. -1.
        -11    1    3    3    0    0  0.98826157166E+01 -0.44884970915E+01  0.17980785900E+01  0.11002081004E+02  0.51100000000E-03 0.  1.
        -12    1    3    3    0    0 -0.13721286533E+02  0.19215802848E+02 -0.15603411889E+02  0.28301718072E+02  0.00000000000E+00 0.  1.
</event>
<event>
 7    1  0.2886818E-013  0.7246154E+02  0.7816164E-02  0.1226708E+00
        -11   -1    0    0    0    0  0.00000000000E+00  0.00000000000E+00  0.45593999997E+02  0.45594000000E+02  0.51100000000E-03 0.  1.
         11   -1    0    0    0    0 -0.00000000000E+00 -0.00000000000E+00 -0.45593999997E+02  0.45594000000E+02  0.51100000000E-03 0. -1.
    9900012    2    1    2    0    0 -0.38785380233E+01  0.16262407832E+02 -0.84363052153E+01  0.72461542476E+02  0.69999963762E+02 0.  0.
         12    1    1    2    0    0  0.38785380233E+01 -0.16262407832E+02  0.84363052153E+01  0.18726457524E+02  0.00000000000E+00 0. -1.
         11    1    3    3    0    0  0.15631355638E+01  0.10792905266E+02 -0.32978170581E+02  0.34734563938E+02  0.51100000000E-03 0. -1.
        -11    1    3    3    0    0 -0.66042510163E+01  0.21965894075E+01 -0.46233825764E+01  0.83556449913E+01  0.51100000000E-03 0.  1.
        -12    1    3    3    0    0  0.11625774292E+01  0.32729131584E+01  0.29165247942E+02  0.29371333547E+02  0.00000000000E+00 0.  1.
</event>
<event>
 7    1  0.2886818E-013  0.7246155E+02  0.7816164E-02  0.1226708E+00
        -11   -1    0    0    0    0  0.00000000000E+00  0.00000000000E+00  0.45593999997E+02  0.45594000000E+02  0.51100000000E-03 0.  1.
         11   -1    0    0    0    0 -0.00000000000E+00 -0.00000000000E+00 -0.45593999997E+02  0.45594000000E+02  0.51100000000E-03 0. -1.
    9900012    2    1    2    0    0 -0.43698539773E+00  0.11650029845E+02  0.14654887442E+02  0.72461551389E+02  0.69999975373E+02 0.  0.
         12    1    1    2    0    0  0.43698539773E+00 -0.11650029845E+02 -0.14654887442E+02  0.18726448611E+02  0.00000000000E+00 0. -1.
         11    1    3    3    0    0  0.68107869465E+01  0.14037572354E+02  0.26921001090E+02  0.31115599888E+02  0.51100000000E-03 0.  1.
        -11    1    3    3    0    0 -0.44118979281E+01 -0.18745100993E+02  0.21262558029E+01  0.19374328855E+02  0.51100000000E-03 0. -1.
         12    1    3    3    0    0 -0.28358744161E+01  0.16357558485E+02 -0.14392369452E+02  0.21971622646E+02  0.00000000000E+00 0. -1.
</event>
<event>
 7    1  0.2886818E-013  0.7246158E+02  0.7816164E-02  0.1226708E+00
        -11   -1    0    0    0    0  0.00000000000E+00  0.00000000000E+00  0.45593999997E+02  0.45594000000E+02  0.51100000000E-03 0.  1.
         11   -1    0    0    0    0 -0.00000000000E+00 -0.00000000000E+00 -0.45593999997E+02  0.45594000000E+02  0.51100000000E-03 0. -1.
    9900012    2    1    2    0    0 -0.11301010321E+02  0.10514993756E+02  0.10601936824E+02  0.72461575024E+02  0.70000006161E+02 0.  0.
         12    1    1    2    0    0  0.11301010321E+02 -0.10514993756E+02 -0.10601936824E+02  0.18726424976E+02  0.00000000000E+00 0. -1.
         11    1    3    3    0    0 -0.18692465777E+02 -0.55880263624E+01 -0.13272728990E+02  0.23596602522E+02  0.51100000000E-03 0. -1.
        -11    1    3    3    0    0 -0.14237796549E+02  0.48107785947E+01  0.44128373289E+00  0.15035064777E+02  0.51100000000E-03 0.  1.
        -12    1    3    3    0    0  0.21629252005E+02  0.11292241524E+02  0.23433382081E+02  0.33829907725E+02  0.00000000000E+00 0.  1.
</event>
<event>
 7    1  0.2886818E-013  0.7246135E+02  0.7816164E-02  0.1226709E+00
        -11   -1    0    0    0    0  0.00000000000E+00  0.00000000000E+00  0.45593999997E+02  0.45594000000E+02  0.51100000000E-03 0. -1.
         11   -1    0    0    0    0 -0.00000000000E+00 -0.00000000000E+00 -0.45593999997E+02  0.45594000000E+02  0.51100000000E-03 0.  1.
    9900012    2    1    2    0    0  0.13299131254E+02 -0.84194510729E+01  0.10145612594E+02  0.72461347779E+02  0.69999710132E+02 0.  0.
         12    1    1    2    0    0 -0.13299131254E+02  0.84194510729E+01 -0.10145612594E+02  0.18726652221E+02  0.00000000000E+00 0. -1.
         11    1    3    3    0    0  0.66485703543E+01  0.11849295861E+02 -0.75992421222E+01  0.15567844464E+02  0.51100000000E-03 0. -1.
        -11    1    3    3    0    0  0.87702457152E+01  0.93886491303E+01 -0.99578467924E+01  0.16254927111E+02  0.51100000000E-03 0.  1.
         12    1    3    3    0    0 -0.21196848150E+01 -0.29657396064E+02  0.27702701508E+02  0.40638576204E+02  0.00000000000E+00 0. -1.
</event>
<event>
 7    1  0.2886818E-013  0.7246155E+02  0.7816164E-02  0.1226708E+00
        -11   -1    0    0    0    0  0.00000000000E+00  0.00000000000E+00  0.45593999997E+02  0.45594000000E+02  0.51100000000E-03 0. -1.
         11   -1    0    0    0    0 -0.00000000000E+00 -0.00000000000E+00 -0.45593999997E+02  0.45594000000E+02  0.51100000000E-03 0.  1.
    9900012    2    1    2    0    0 -0.11951505198E+02 -0.12516662314E+02 -0.71536307152E+01  0.72461554945E+02  0.69999980004E+02 0.  0.
         12    1    1    2    0    0  0.11951505198E+02  0.12516662314E+02  0.71536307152E+01  0.18726445055E+02  0.00000000000E+00 0. -1.
         11    1    3    3    0    0 -0.27166473826E+01  0.66919580009E+01  0.27578683861E+01  0.77309969075E+01  0.51100000000E-03 0. -1.
        -11    1    3    3    0    0 -0.32423220807E+02  0.22410621510E+00 -0.11580857874E+02  0.34430099339E+02  0.51100000000E-03 0.  1.
         12    1    3    3    0    0  0.23188362992E+02 -0.19432726530E+02  0.16693587725E+01  0.30300458699E+02  0.00000000000E+00 0. -1.
</event>
<event>
 7    1  0.2886818E-013  0.7246160E+02  0.7816164E-02  0.1226708E+00
        -11   -1    0    0    0    0  0.00000000000E+00  0.00000000000E+00  0.45593999997E+02  0.45594000000E+02  0.51100000000E-03 0.  1.
         11   -1    0    0    0    0 -0.00000000000E+00 -0.00000000000E+00 -0.45593999997E+02  0.45594000000E+02  0.51100000000E-03 0. -1.
    9900012    2    1    2    0    0  0.80203260854E+01 -0.73861866196E+01  0.15224866884E+02  0.72461602724E+02  0.70000042246E+02 0.  0.
         12    1    1    2    0    0 -0.80203260854E+01  0.73861866196E+01 -0.15224866884E+02  0.18726397276E+02  0.00000000000E+00 0. -1.
         11    1    3    3    0    0 -0.12120152497E+02  0.25000171303E+01  0.33869133585E+01  0.12830407809E+02  0.51100000000E-03 0.  1.
        -11    1    3    3    0    0  0.29189218102E+02 -0.25801425149E+02  0.23948147191E+01  0.39031514587E+02  0.51100000000E-03 0. -1.
         12    1    3    3    0    0 -0.90487395198E+01  0.15915221400E+02  0.94431388066E+01  0.20599680328E+02  0.00000000000E+00 0. -1.
</event>
<event>
 7    1  0.2886818E-013  0.7246168E+02  0.7816164E-02  0.1226708E+00
        -11   -1    0    0    0    0  0.00000000000E+00  0.00000000000E+00  0.45593999997E+02  0.45594000000E+02  0.51100000000E-03 0.  1.
         11   -1    0    0    0    0 -0.00000000000E+00 -0.00000000000E+00 -0.45593999997E+02  0.45594000000E+02  0.51100000000E-03 0. -1.
    9900012    2    1    2    0    0  0.71677491343E+01  0.17223763926E+02  0.16248769570E+01  0.72461684383E+02  0.70000148622E+02 0.  0.
         12    1    1    2    0    0 -0.71677491343E+01 -0.17223763926E+02 -0.16248769570E+01  0.18726315617E+02  0.00000000000E+00 0. -1.
         11    1    3    3    0    0 -0.76388638147E+01 -0.44777146185E+01  0.75288863956E+01  0.11622663172E+02  0.51100000000E-03 0. -1.
        -11    1    3    3    0    0  0.27066853280E+02  0.99477897089E+01 -0.22890766895E+02  0.36817934161E+02  0.51100000000E-03 0.  1.
         12    1    3    3    0    0 -0.12260240331E+02  0.11753688836E+02  0.16986757457E+02  0.24021087051E+02  0.00000000000E+00 0. -1.
</event>
<event>
 7    1  0.2886818E-013  0.7246159E+02  0.7816164E-02  0.1226708E+00
        -11   -1    0    0    0    0  0.00000000000E+00  0.00000000000E+00  0.45593999997E+02  0.45594000000E+02  0.51100000000E-03 0.  1.
         11   -1    0    0    0    0 -0.00000000000E+00 -0.00000000000E+00 -0.45593999997E+02  0.45594000000E+02  0.51100000000E-03 0. -1.
    9900012    2    1    2    0    0  0.81164856861E+01  0.16407964441E+02  0.39471174778E+01  0.72461591551E+02  0.70000027691E+02 0.  0.
         12    1    1    2    0    0 -0.81164856861E+01 -0.16407964441E+02 -0.39471174778E+01  0.18726408449E+02  0.00000000000E+00 0. -1.
         11    1    3    3    0    0  0.35488591876E+01  0.15143656434E+02 -0.18808533425E+02  0.24406672481E+02  0.51100000000E-03 0. -1.
        -11    1    3    3    0    0  0.12917088186E+02  0.18765610773E+02  0.14321094481E+02  0.26908977355E+02  0.51100000000E-03 0.  1.
        -12    1    3    3    0    0 -0.83494616876E+01 -0.17501302766E+02  0.84345564217E+01  0.21145941715E+02  0.00000000000E+00 0.  1.
</event>
<event>
 7    1  0.2886818E-013  0.7246157E+02  0.7816164E-02  0.1226708E+00
        -11   -1    0    0    0    0  0.00000000000E+00  0.00000000000E+00  0.45593999997E+02  0.45594000000E+02  0.51100000000E-03 0.  1.
         11   -1    0    0    0    0 -0.00000000000E+00 -0.00000000000E+00 -0.45593999997E+02  0.45594000000E+02  0.51100000000E-03 0. -1.
    9900012    2    1    2    0    0 -0.15605581107E+02  0.87058041010E+00  0.10314403936E+02  0.72461574808E+02  0.70000005879E+02 0.  0.
         12    1    1    2    0    0  0.15605581107E+02 -0.87058041010E+00 -0.10314403936E+02  0.18726425192E+02  0.00000000000E+00 0. -1.
         11    1    3    3    0    0 -0.13941659469E+02 -0.26938331892E+02  0.47266081687E+01  0.30698280390E+02  0.51100000000E-03 0. -1.
        -11    1    3    3    0    0  0.66941944816E+01 -0.44191683883E+01  0.20673956552E+01  0.82834421624E+01  0.51100000000E-03 0.  1.
        -12    1    3    3    0    0 -0.83581161199E+01  0.32228080691E+02  0.35204001117E+01  0.33479852255E+02  0.00000000000E+00 0.  1.
</event>
<event>
 7    1  0.2886818E-013  0.7246157E+02  0.7816164E-02  0.1226708E+00
        -11   -1    0    0    0    0  0.00000000000E+00  0.00000000000E+00  0.45593999997E+02  0.45594000000E+02  0.51100000000E-03 0.  1.
         11   -1    0    0    0    0 -0.00000000000E+00 -0.00000000000E+00 -0.45593999997E+02  0.45594000000E+02  0.51100000000E-03 0. -1.
    9900012    2    1    2    0    0 -0.47632414376E+01  0.45957235422E+01  0.17517705435E+02  0.72461570881E+02  0.70000000764E+02 0.  0.
         12    1    1    2    0    0  0.47632414376E+01 -0.45957235422E+01 -0.17517705435E+02  0.18726429119E+02  0.00000000000E+00 0. -1.
         11    1    3    3    0    0  0.11517821321E+01 -0.25534412128E+01  0.30569533831E+01  0.41462788563E+01  0.51100000000E-03 0. -1.
        -11    1    3    3    0    0 -0.12280323888E+02  0.20390996737E+02  0.35446740373E+02  0.42697429736E+02  0.51100000000E-03 0.  1.
         12    1    3    3    0    0  0.63653003179E+01 -0.13241831982E+02 -0.20985988322E+02  0.25617862288E+02  0.00000000000E+00 0. -1.
</event>
<event>
 7    1  0.2886818E-013  0.7246156E+02  0.7816164E-02  0.1226708E+00
        -11   -1    0    0    0    0  0.00000000000E+00  0.00000000000E+00  0.45593999997E+02  0.45594000000E+02  0.51100000000E-03 0.  1.
         11   -1    0    0    0    0 -0.00000000000E+00 -0.00000000000E+00 -0.45593999997E+02  0.45594000000E+02  0.51100000000E-03 0. -1.
    9900012    2    1    2    0    0 -0.11498581471E+02  0.79965949976E+01  0.12430469151E+02  0.72461562253E+02  0.69999989524E+02 0.  0.
         12    1    1    2    0    0  0.11498581471E+02 -0.79965949976E+01 -0.12430469151E+02  0.18726437747E+02  0.00000000000E+00 0. -1.
         11    1    3    3    0    0 -0.20482228910E+02 -0.10795773586E+02  0.12214835397E+02  0.26177712514E+02  0.51100000000E-03 0. -1.
        -11    1    3    3    0    0 -0.14800682190E+02  0.17397681927E+01  0.66501646020E+01  0.16319058679E+02  0.51100000000E-03 0.  1.
         12    1    3    3    0    0  0.23784329630E+02  0.17052600391E+02 -0.64345308478E+01  0.29964791060E+02  0.00000000000E+00 0. -1.
</event>
<event>
 7    1  0.2886818E-013  0.7246155E+02  0.7816164E-02  0.1226708E+00
        -11   -1    0    0    0    0  0.00000000000E+00  0.00000000000E+00  0.45593999997E+02  0.45594000000E+02  0.51100000000E-03 0.  1.
         11   -1    0    0    0    0 -0.00000000000E+00 -0.00000000000E+00 -0.45593999997E+02  0.45594000000E+02  0.51100000000E-03 0. -1.
    9900012    2    1    2    0    0 -0.97940204375E+01  0.13406879579E+02  0.86609778196E+01  0.72461553643E+02  0.69999978309E+02 0.  0.
         12    1    1    2    0    0  0.97940204375E+01 -0.13406879579E+02 -0.86609778196E+01  0.18726446357E+02  0.00000000000E+00 0. -1.
         11    1    3    3    0    0 -0.44901023363E+01  0.19883323340E+02  0.11639870774E+01  0.20417209217E+02  0.51100000000E-03 0. -1.
        -11    1    3    3    0    0  0.19706783583E+02  0.94434247231E+01  0.29913697183E+01  0.22056379638E+02  0.51100000000E-03 0.  1.
         12    1    3    3    0    0 -0.25010701684E+02 -0.15919868485E+02  0.45056210239E+01  0.29987964788E+02  0.00000000000E+00 0. -1.
</event>
<event>
 7    1  0.2886818E-013  0.7246157E+02  0.7816164E-02  0.1226708E+00
        -11   -1    0    0    0    0  0.00000000000E+00  0.00000000000E+00  0.45593999997E+02  0.45594000000E+02  0.51100000000E-03 0.  1.
         11   -1    0    0    0    0 -0.00000000000E+00 -0.00000000000E+00 -0.45593999997E+02  0.45594000000E+02  0.51100000000E-03 0. -1.
    9900012    2    1    2    0    0 -0.78516123740E+01 -0.12460803520E+02  0.11565457161E+02  0.72461568398E+02  0.69999997529E+02 0.  0.
         12    1    1    2    0    0  0.78516123740E+01  0.12460803520E+02 -0.11565457161E+02  0.18726431602E+02  0.00000000000E+00 0. -1.
         11    1    3    3    0    0 -0.35294971750E+01 -0.27089421672E+02 -0.91446375716E+01  0.28808306327E+02  0.51100000000E-03 0. -1.
        -11    1    3    3    0    0  0.17103734156E+01 -0.11324709790E+02  0.89162533279E+01  0.14514613419E+02  0.51100000000E-03 0.  1.
         12    1    3    3    0    0 -0.60324886146E+01  0.25953327942E+02  0.11793841405E+02  0.29138648652E+02  0.00000000000E+00 0. -1.
</event>
<event>
 7    1  0.2886818E-013  0.7246162E+02  0.7816164E-02  0.1226708E+00
        -11   -1    0    0    0    0  0.00000000000E+00  0.00000000000E+00  0.45593999997E+02  0.45594000000E+02  0.51100000000E-03 0. -1.
         11   -1    0    0    0    0 -0.00000000000E+00 -0.00000000000E+00 -0.45593999997E+02  0.45594000000E+02  0.51100000000E-03 0.  1.
    9900012    2    1    2    0    0 -0.10633631694E+02  0.12436869591E+02 -0.91064415133E+01  0.72461624877E+02  0.70000071104E+02 0.  0.
         12    1    1    2    0    0  0.10633631694E+02 -0.12436869591E+02  0.91064415133E+01  0.18726375123E+02  0.00000000000E+00 0. -1.
         11    1    3    3    0    0  0.61853913972E+01 -0.95556465809E+00  0.53603833467E+01  0.82405024384E+01  0.51100000000E-03 0. -1.
        -11    1    3    3    0    0 -0.26809581341E+02 -0.13525800749E+02 -0.18435242589E+02  0.35235764604E+02  0.51100000000E-03 0.  1.
         12    1    3    3    0    0  0.99905582498E+01  0.26918234998E+02  0.39684177295E+01  0.28985357835E+02  0.00000000000E+00 0. -1.
</event>
<event>
 7    1  0.2886818E-013  0.7246156E+02  0.7816164E-02  0.1226708E+00
        -11   -1    0    0    0    0  0.00000000000E+00  0.00000000000E+00  0.45593999997E+02  0.45594000000E+02  0.51100000000E-03 0.  1.
         11   -1    0    0    0    0 -0.00000000000E+00 -0.00000000000E+00 -0.45593999997E+02  0.45594000000E+02  0.51100000000E-03 0. -1.
    9900012    2    1    2    0    0 -0.10319373059E+02 -0.12214590138E+02 -0.97464845960E+01  0.72461557878E+02  0.69999983826E+02 0.  0.
         12    1    1    2    0    0  0.10319373059E+02  0.12214590138E+02  0.97464845960E+01  0.18726442122E+02  0.00000000000E+00 0. -1.
         11    1    3    3    0    0 -0.33523505295E+02 -0.11001583634E+02 -0.12710240375E+02  0.37502139410E+02  0.51100000000E-03 0. -1.
        -11    1    3    3    0    0 -0.11823566306E+01  0.53944278521E+01  0.74753406446E+01  0.92940054372E+01  0.51100000000E-03 0.  1.
        -12    1    3    3    0    0  0.24386488867E+02 -0.66074343558E+01 -0.45115848659E+01  0.25665413030E+02  0.00000000000E+00 0.  1.
</event>
<event>
 7    1  0.2886818E-013  0.7246166E+02  0.7816164E-02  0.1226708E+00
        -11   -1    0    0    0    0  0.00000000000E+00  0.00000000000E+00  0.45593999997E+02  0.45594000000E+02  0.51100000000E-03 0. -1.
         11   -1    0    0    0    0 -0.00000000000E+00 -0.00000000000E+00 -0.45593999997E+02  0.45594000000E+02  0.51100000000E-03 0.  1.
    9900012    2    1    2    0    0  0.14452342085E+02 -0.87022831905E+01  0.81287067497E+01  0.72461660317E+02  0.70000117272E+02 0.  0.
         12    1    1    2    0    0 -0.14452342085E+02  0.87022831905E+01 -0.81287067497E+01  0.18726339683E+02  0.00000000000E+00 0. -1.
         11    1    3    3    0    0  0.20561926864E+02 -0.82587116782E+01 -0.26199206640E+00  0.22160049527E+02  0.51100000000E-03 0. -1.
        -11    1    3    3    0    0 -0.12544793280E+02 -0.21777503785E+02  0.11790222375E+02  0.27760418827E+02  0.51100000000E-03 0.  1.
        -12    1    3    3    0    0  0.64352085011E+01  0.21333932273E+02 -0.33995235592E+01  0.22541191963E+02  0.00000000000E+00 0.  1.
</event>
<event>
 7    1  0.2886818E-013  0.7246160E+02  0.7816164E-02  0.1226708E+00
        -11   -1    0    0    0    0  0.00000000000E+00  0.00000000000E+00  0.45593999997E+02  0.45594000000E+02  0.51100000000E-03 0. -1.
         11   -1    0    0    0    0 -0.00000000000E+00 -0.00000000000E+00 -0.45593999997E+02  0.45594000000E+02  0.51100000000E-03 0.  1.
    9900012    2    1    2    0    0 -0.87847234491E+01 -0.16187020226E+02  0.33892449567E+01  0.72461602289E+02  0.70000041679E+02 0.  0.
         12    1    1    2    0    0  0.87847234491E+01  0.16187020226E+02 -0.33892449567E+01  0.18726397711E+02  0.00000000000E+00 0. -1.
         11    1    3    3    0    0 -0.13483937350E+02  0.12037902502E+02  0.61947197106E+01  0.19107648093E+02  0.51100000000E-03 0. -1.
        -11    1    3    3    0    0 -0.18844010216E+02 -0.14900989120E+02  0.62556373462E+01  0.24824769821E+02  0.51100000000E-03 0.  1.
        -12    1    3    3    0    0  0.23543224117E+02 -0.13323933607E+02 -0.90611121001E+01  0.28529184375E+02  0.00000000000E+00 0.  1.
</event>
<event>
 7    1  0.2886818E-013  0.7246120E+02  0.7816164E-02  0.1226709E+00
        -11   -1    0    0    0    0  0.00000000000E+00  0.00000000000E+00  0.45593999997E+02  0.45594000000E+02  0.51100000000E-03 0. -1.
         11   -1    0    0    0    0 -0.00000000000E+00 -0.00000000000E+00 -0.45593999997E+02  0.45594000000E+02  0.51100000000E-03 0.  1.
    9900012    2    1    2    0    0  0.15219827383E+02  0.41931401702E+01 -0.10073111898E+02  0.72461196926E+02  0.69999513617E+02 0.  0.
         12    1    1    2    0    0 -0.15219827383E+02 -0.41931401702E+01  0.10073111898E+02  0.18726803074E+02  0.00000000000E+00 0. -1.
         11    1    3    3    0    0 -0.82583438120E+01 -0.15267893511E+02 -0.86420400573E+01  0.19390556242E+02  0.51100000000E-03 0. -1.
        -11    1    3    3    0    0 -0.40372193229E+01 -0.10293367582E+02  0.48251884490E+01  0.12063788786E+02  0.51100000000E-03 0.  1.
        -12    1    3    3    0    0  0.27515390517E+02  0.29754401263E+02 -0.62562602898E+01  0.41006851899E+02  0.00000000000E+00 0.  1.
</event>
<event>
 7    1  0.2886818E-013  0.7246156E+02  0.7816164E-02  0.1226708E+00
        -11   -1    0    0    0    0  0.00000000000E+00  0.00000000000E+00  0.45593999997E+02  0.45594000000E+02  0.51100000000E-03 0.  1.
         11   -1    0    0    0    0 -0.00000000000E+00 -0.00000000000E+00 -0.45593999997E+02  0.45594000000E+02  0.51100000000E-03 0. -1.
    9900012    2    1    2    0    0 -0.35847678926E+01 -0.21130217387E+01  0.18258257093E+02  0.72461564840E+02  0.69999992895E+02 0.  0.
         12    1    1    2    0    0  0.35847678926E+01  0.21130217387E+01 -0.18258257093E+02  0.18726435160E+02  0.00000000000E+00 0. -1.
         11    1    3    3    0    0 -0.12637049953E+02  0.76832069747E+01 -0.12841507274E+02  0.19586500715E+02  0.51100000000E-03 0. -1.
        -11    1    3    3    0    0  0.11153457139E+02 -0.36392982708E+01 -0.73727011766E+01  0.13856436084E+02  0.51100000000E-03 0.  1.
         12    1    3    3    0    0 -0.21011750783E+01 -0.61569304426E+01  0.38472465544E+02  0.39018628041E+02  0.00000000000E+00 0. -1.
</event>
<event>
 7    1  0.2886818E-013  0.7246157E+02  0.7816164E-02  0.1226708E+00
        -11   -1    0    0    0    0  0.00000000000E+00  0.00000000000E+00  0.45593999997E+02  0.45594000000E+02  0.51100000000E-03 0.  1.
         11   -1    0    0    0    0 -0.00000000000E+00 -0.00000000000E+00 -0.45593999997E+02  0.45594000000E+02  0.51100000000E-03 0. -1.
    9900012    2    1    2    0    0  0.97729991840E+00  0.18398351789E+02  0.33503511634E+01  0.72461566367E+02  0.69999994884E+02 0.  0.
         12    1    1    2    0    0 -0.97729991840E+00 -0.18398351789E+02 -0.33503511634E+01  0.18726433633E+02  0.00000000000E+00 0. -1.
         11    1    3    3    0    0 -0.32076984896E+01  0.89361906898E+01  0.86824302285E+00  0.95340799164E+01  0.51100000000E-03 0. -1.
        -11    1    3    3    0    0  0.19006821478E+02  0.30924527887E+02  0.53368325317E+01  0.36688792150E+02  0.51100000000E-03 0.  1.
         12    1    3    3    0    0 -0.14821823070E+02 -0.21462366787E+02 -0.28547243912E+01  0.26238694300E+02  0.00000000000E+00 0. -1.
</event>
<event>
 7    1  0.2886818E-013  0.7246153E+02  0.7816164E-02  0.1226708E+00
        -11   -1    0    0    0    0  0.00000000000E+00  0.00000000000E+00  0.45593999997E+02  0.45594000000E+02  0.51100000000E-03 0. -1.
         11   -1    0    0    0    0 -0.00000000000E+00 -0.00000000000E+00 -0.45593999997E+02  0.45594000000E+02  0.51100000000E-03 0.  1.
    9900012    2    1    2    0    0  0.10794744789E+01  0.16330339504E+02 -0.91013954787E+01  0.72461530681E+02  0.69999948397E+02 0.  0.
         12    1    1    2    0    0 -0.10794744789E+01 -0.16330339504E+02  0.91013954787E+01  0.18726469319E+02  0.00000000000E+00 0. -1.
         11    1    3    3    0    0 -0.14263857231E+01  0.27202831354E+02  0.12636958246E+00  0.27240495212E+02  0.51100000000E-03 0. -1.
        -11    1    3    3    0    0  0.18593488212E+02  0.47940457047E+01 -0.11926284165E+02  0.22603914094E+02  0.51100000000E-03 0.  1.
         12    1    3    3    0    0 -0.16087628010E+02 -0.15666537554E+02  0.26985191043E+01  0.22617121375E+02  0.00000000000E+00 0. -1.
</event>
<event>
 7    1  0.2886818E-013  0.7246151E+02  0.7816164E-02  0.1226708E+00
        -11   -1    0    0    0    0  0.00000000000E+00  0.00000000000E+00  0.45593999997E+02  0.45594000000E+02  0.51100000000E-03 0.  1.
         11   -1    0    0    0    0 -0.00000000000E+00 -0.00000000000E+00 -0.45593999997E+02  0.45594000000E+02  0.51100000000E-03 0. -1.
    9900012    2    1    2    0    0 -0.93162354768E+01  0.12585200694E+02  0.10271416986E+02  0.72461507353E+02  0.69999918007E+02 0.  0.
         12    1    1    2    0    0  0.93162354768E+01 -0.12585200694E+02 -0.10271416986E+02  0.18726492647E+02  0.00000000000E+00 0. -1.
         11    1    3    3    0    0  0.11273861673E+02  0.13136189464E+02  0.15886764383E+02  0.23495716917E+02  0.51100000000E-03 0. -1.
        -11    1    3    3    0    0 -0.66036025326E+01  0.12692782559E+02  0.15015504984E+02  0.20740773507E+02  0.51100000000E-03 0.  1.
         12    1    3    3    0    0 -0.13986494617E+02 -0.13243771329E+02 -0.20630852380E+02  0.28225016929E+02  0.00000000000E+00 0. -1.
</event>
<event>
 7    1  0.2886818E-013  0.7246157E+02  0.7816164E-02  0.1226708E+00
        -11   -1    0    0    0    0  0.00000000000E+00  0.00000000000E+00  0.45593999997E+02  0.45594000000E+02  0.51100000000E-03 0.  1.
         11   -1    0    0    0    0 -0.00000000000E+00 -0.00000000000E+00 -0.45593999997E+02  0.45594000000E+02  0.51100000000E-03 0. -1.
    9900012    2    1    2    0    0 -0.17375080414E+02 -0.53747790946E+01  0.44606486175E+01  0.72461573331E+02  0.70000003956E+02 0.  0.
         12    1    1    2    0    0  0.17375080414E+02  0.53747790946E+01 -0.44606486175E+01  0.18726426669E+02  0.00000000000E+00 0. -1.
         11    1    3    3    0    0 -0.62601827909E+01 -0.12553101361E+02 -0.15449379848E+02  0.20867524537E+02  0.51100000000E-03 0. -1.
        -11    1    3    3    0    0 -0.13717091441E+02 -0.70420740226E+01 -0.99969538455E+01  0.18376302419E+02  0.51100000000E-03 0.  1.
        -12    1    3    3    0    0  0.26021938186E+01  0.14220396289E+02  0.29906982311E+02  0.33217746375E+02  0.00000000000E+00 0.  1.
</event>
<event>
 7    1  0.2886818E-013  0.7246160E+02  0.7816164E-02  0.1226708E+00
        -11   -1    0    0    0    0  0.00000000000E+00  0.00000000000E+00  0.45593999997E+02  0.45594000000E+02  0.51100000000E-03 0. -1.
         11   -1    0    0    0    0 -0.00000000000E+00 -0.00000000000E+00 -0.45593999997E+02  0.45594000000E+02  0.51100000000E-03 0.  1.
    9900012    2    1    2    0    0  0.11295089253E+02 -0.11175196915E+02 -0.99102886746E+01  0.72461604486E+02  0.70000044541E+02 0.  0.
         12    1    1    2    0    0 -0.11295089253E+02  0.11175196915E+02  0.99102886746E+01  0.18726395514E+02  0.00000000000E+00 0. -1.
         11    1    3    3    0    0  0.11662686601E+02 -0.21313713827E+01 -0.67688362638E+01  0.13652038212E+02  0.51100000000E-03 0. -1.
        -11    1    3    3    0    0 -0.24069848439E+02 -0.20944706229E+02 -0.46535607507E+01  0.32244285553E+02  0.51100000000E-03 0.  1.
         12    1    3    3    0    0  0.23702251091E+02  0.11900880697E+02  0.15121083400E+01  0.26565280721E+02  0.00000000000E+00 0. -1.
</event>
<event>
 7    1  0.2886818E-013  0.7246161E+02  0.7816164E-02  0.1226708E+00
        -11   -1    0    0    0    0  0.00000000000E+00  0.00000000000E+00  0.45593999997E+02  0.45594000000E+02  0.51100000000E-03 0.  1.
         11   -1    0    0    0    0 -0.00000000000E+00 -0.00000000000E+00 -0.45593999997E+02  0.45594000000E+02  0.51100000000E-03 0. -1.
    9900012    2    1    2    0    0 -0.80361706785E+00 -0.84501169772E+01  0.16692134172E+02  0.72461611653E+02  0.70000053877E+02 0.  0.
         12    1    1    2    0    0  0.80361706785E+00  0.84501169772E+01 -0.16692134172E+02  0.18726388347E+02  0.00000000000E+00 0. -1.
         11    1    3    3    0    0  0.11703733355E+02 -0.14823692495E+02 -0.11957080083E+00  0.18887390795E+02  0.51100000000E-03 0. -1.
        -11    1    3    3    0    0 -0.55101289986E+01  0.10613108911E+02  0.33183278914E+02  0.35272221394E+02  0.51100000000E-03 0.  1.
         12    1    3    3    0    0 -0.69972214243E+01 -0.42395333930E+01 -0.16371573941E+02  0.18301999463E+02  0.00000000000E+00 0. -1.
</event>
<event>
 7    1  0.2886818E-013  0.7246159E+02  0.7816164E-02  0.1226708E+00
        -11   -1    0    0    0    0  0.00000000000E+00  0.00000000000E+00  0.45593999997E+02  0.45594000000E+02  0.51100000000E-03 0.  1.
         11   -1    0    0    0    0 -0.00000000000E+00 -0.00000000000E+00 -0.45593999997E+02  0.45594000000E+02  0.51100000000E-03 0. -1.
    9900012    2    1    2    0    0  0.72819168355E+01  0.14035985320E+02  0.10032118367E+02  0.72461585617E+02  0.70000019961E+02 0.  0.
         12    1    1    2    0    0 -0.72819168355E+01 -0.14035985320E+02 -0.10032118367E+02  0.18726414383E+02  0.00000000000E+00 0. -1.
         11    1    3    3    0    0  0.10710701956E+02  0.29629446964E+02 -0.77054394808E+01  0.32434504184E+02  0.51100000000E-03 0. -1.
        -11    1    3    3    0    0  0.10110111601E+02  0.49572948684E+00 -0.29353089267E+01  0.10539266724E+02  0.51100000000E-03 0.  1.
        -12    1    3    3    0    0 -0.13538896722E+02 -0.16089191131E+02  0.20672866775E+02  0.29487814710E+02  0.00000000000E+00 0.  1.
</event>
<event>
 7    1  0.2886818E-013  0.7246158E+02  0.7816164E-02  0.1226708E+00
        -11   -1    0    0    0    0  0.00000000000E+00  0.00000000000E+00  0.45593999997E+02  0.45594000000E+02  0.51100000000E-03 0.  1.
         11   -1    0    0    0    0 -0.00000000000E+00 -0.00000000000E+00 -0.45593999997E+02  0.45594000000E+02  0.51100000000E-03 0. -1.
    9900012    2    1    2    0    0 -0.84567897959E+01 -0.44664845275E+01  0.16100065320E+02  0.72461577998E+02  0.70000010035E+02 0.  0.
         12    1    1    2    0    0  0.84567897959E+01  0.44664845275E+01 -0.16100065320E+02  0.18726422002E+02  0.00000000000E+00 0. -1.
         11    1    3    3    0    0  0.10946705889E+02 -0.23380877522E+02  0.28206594658E+01  0.25970212236E+02  0.51100000000E-03 0. -1.
        -11    1    3    3    0    0 -0.92624024146E+01  0.74965339568E+01 -0.12029445981E+02  0.16932149619E+02  0.51100000000E-03 0.  1.
         12    1    3    3    0    0 -0.10141093270E+02  0.11417859038E+02  0.25308851835E+02  0.29559216142E+02  0.00000000000E+00 0. -1.
</event>
<event>
 7    1  0.2886818E-013  0.7246176E+02  0.7816164E-02  0.1226708E+00
        -11   -1    0    0    0    0  0.00000000000E+00  0.00000000000E+00  0.45593999997E+02  0.45594000000E+02  0.51100000000E-03 0. -1.
         11   -1    0    0    0    0 -0.00000000000E+00 -0.00000000000E+00 -0.45593999997E+02  0.45594000000E+02  0.51100000000E-03 0.  1.
    9900012    2    1    2    0    0 -0.24481262414E+01 -0.11744334238E+02 -0.14378786204E+02  0.72461756343E+02  0.70000242363E+02 0.  0.
         12    1    1    2    0    0  0.24481262414E+01  0.11744334238E+02  0.14378786204E+02  0.18726243657E+02  0.00000000000E+00 0. -1.
         11    1    3    3    0    0  0.23882275543E+01  0.39949359143E+01 -0.12459490578E+02  0.13300452982E+02  0.51100000000E-03 0. -1.
        -11    1    3    3    0    0 -0.23928503870E+00 -0.19039119709E+02 -0.27229422548E+02  0.33226296651E+02  0.51100000000E-03 0.  1.
        -12    1    3    3    0    0 -0.45970687570E+01  0.32998495566E+01  0.25310126921E+02  0.25935006709E+02  0.00000000000E+00 0.  1.
</event>
<event>
 7    1  0.2886818E-013  0.7246155E+02  0.7816164E-02  0.1226708E+00
        -11   -1    0    0    0    0  0.00000000000E+00  0.00000000000E+00  0.45593999997E+02  0.45594000000E+02  0.51100000000E-03 0. -1.
         11   -1    0    0    0    0 -0.00000000000E+00 -0.00000000000E+00 -0.45593999997E+02  0.45594000000E+02  0.51100000000E-03 0.  1.
    9900012    2    1    2    0    0  0.81369172626E+01  0.12962095916E+02  0.10791420143E+02  0.72461545403E+02  0.69999967574E+02 0.  0.
         12    1    1    2    0    0 -0.81369172626E+01 -0.12962095916E+02 -0.10791420143E+02  0.18726454597E+02  0.00000000000E+00 0. -1.
         11    1    3    3    0    0 -0.12739850138E+01 -0.15002005583E+02  0.15777327578E+02  0.21808422113E+02  0.51100000000E-03 0. -1.
        -11    1    3    3    0    0 -0.16020971932E+02  0.12102261216E+02  0.93889576949E+00  0.20100193873E+02  0.51100000000E-03 0.  1.
        -12    1    3    3    0    0  0.25431874209E+02  0.15861840283E+02 -0.59248032041E+01  0.30552929417E+02  0.00000000000E+00 0.  1.
</event>
<event>
 7    1  0.2886818E-013  0.7246160E+02  0.7816164E-02  0.1226708E+00
        -11   -1    0    0    0    0  0.00000000000E+00  0.00000000000E+00  0.45593999997E+02  0.45594000000E+02  0.51100000000E-03 0.  1.
         11   -1    0    0    0    0 -0.00000000000E+00 -0.00000000000E+00 -0.45593999997E+02  0.45594000000E+02  0.51100000000E-03 0. -1.
    9900012    2    1    2    0    0  0.11042892891E+01 -0.13898127243E+02  0.12502025681E+02  0.72461600404E+02  0.70000039223E+02 0.  0.
         12    1    1    2    0    0 -0.11042892891E+01  0.13898127243E+02 -0.12502025681E+02  0.18726399596E+02  0.00000000000E+00 0. -1.
         11    1    3    3    0    0  0.10330124695E+02 -0.93772970997E+01 -0.61845275815E+01  0.15260850526E+02  0.51100000000E-03 0. -1.
        -11    1    3    3    0    0  0.11458596658E+02  0.21116876302E+01  0.30375570998E+02  0.32533582277E+02  0.51100000000E-03 0.  1.
         12    1    3    3    0    0 -0.20684432064E+02 -0.66325177735E+01 -0.11689017736E+02  0.24667167601E+02  0.00000000000E+00 0. -1.
</event>
<event>
 7    1  0.2886818E-013  0.7246157E+02  0.7816164E-02  0.1226708E+00
        -11   -1    0    0    0    0  0.00000000000E+00  0.00000000000E+00  0.45593999997E+02  0.45594000000E+02  0.51100000000E-03 0.  1.
         11   -1    0    0    0    0 -0.00000000000E+00 -0.00000000000E+00 -0.45593999997E+02  0.45594000000E+02  0.51100000000E-03 0. -1.
    9900012    2    1    2    0    0 -0.11595662690E+02 -0.34175385073E+01  0.14301760228E+02  0.72461566589E+02  0.69999995174E+02 0.  0.
         12    1    1    2    0    0  0.11595662690E+02  0.34175385073E+01 -0.14301760228E+02  0.18726433411E+02  0.00000000000E+00 0. -1.
         11    1    3    3    0    0 -0.24142142787E+01  0.71636012073E+01  0.90400249155E+01  0.11784212472E+02  0.51100000000E-03 0. -1.
        -11    1    3    3    0    0 -0.16138966847E+02 -0.37576065380E+01  0.29898403116E+02  0.34183334637E+02  0.51100000000E-03 0.  1.
         12    1    3    3    0    0  0.69575184353E+01 -0.68235331766E+01 -0.24636667804E+02  0.26494019481E+02  0.00000000000E+00 0. -1.
</event>
<event>
 7    1  0.2886818E-013  0.7246154E+02  0.7816164E-02  0.1226708E+00
        -11   -1    0    0    0    0  0.00000000000E+00  0.00000000000E+00  0.45593999997E+02  0.45594000000E+02  0.51100000000E-03 0.  1.
         11   -1    0    0    0    0 -0.00000000000E+00 -0.00000000000E+00 -0.45593999997E+02  0.45594000000E+02  0.51100000000E-03 0. -1.
    9900012    2    1    2    0    0  0.58829505275E+01 -0.17691506311E+02 -0.17555029211E+01  0.72461540298E+02  0.69999960924E+02 0.  0.
         12    1    1    2    0    0 -0.58829505275E+01  0.17691506311E+02  0.17555029211E+01  0.18726459702E+02  0.00000000000E+00 0. -1.
         11    1    3    3    0    0  0.30148489702E+01  0.56467397360E-01  0.21798006597E+02  0.22005580991E+02  0.51100000000E-03 0.  1.
        -11    1    3    3    0    0  0.27560971665E+01  0.81325692544E+01  0.65182933021E+01  0.10780672618E+02  0.51100000000E-03 0. -1.
         12    1    3    3    0    0  0.11200439087E+00 -0.25880542963E+02 -0.30071802820E+02  0.39675286689E+02  0.00000000000E+00 0. -1.
</event>
<event>
 7    1  0.2886818E-013  0.7246163E+02  0.7816164E-02  0.1226708E+00
        -11   -1    0    0    0    0  0.00000000000E+00  0.00000000000E+00  0.45593999997E+02  0.45594000000E+02  0.51100000000E-03 0.  1.
         11   -1    0    0    0    0 -0.00000000000E+00 -0.00000000000E+00 -0.45593999997E+02  0.45594000000E+02  0.51100000000E-03 0. -1.
    9900012    2    1    2    0    0  0.16399253135E+02 -0.36677611441E+01  0.82637213998E+01  0.72461626444E+02  0.70000073145E+02 0.  0.
         12    1    1    2    0    0 -0.16399253135E+02  0.36677611441E+01 -0.82637213998E+01  0.18726373556E+02  0.00000000000E+00 0. -1.
         11    1    3    3    0    0  0.22673445282E+01  0.38642205099E+01 -0.62378754414E+01  0.76801133873E+01  0.51100000000E-03 0. -1.
        -11    1    3    3    0    0  0.23106918504E+02  0.19731665123E+02 -0.39774475125E+01  0.30644548949E+02  0.51100000000E-03 0.  1.
        -12    1    3    3    0    0 -0.89750098973E+01 -0.27263646778E+02  0.18479044354E+02  0.34136964108E+02  0.00000000000E+00 0.  1.
</event>
<event>
 7    1  0.2886818E-013  0.7246164E+02  0.7816164E-02  0.1226708E+00
        -11   -1    0    0    0    0  0.00000000000E+00  0.00000000000E+00  0.45593999997E+02  0.45594000000E+02  0.51100000000E-03 0.  1.
         11   -1    0    0    0    0 -0.00000000000E+00 -0.00000000000E+00 -0.45593999997E+02  0.45594000000E+02  0.51100000000E-03 0. -1.
    9900012    2    1    2    0    0  0.11169593612E+02  0.12457200947E+02  0.84103952613E+01  0.72461643564E+02  0.70000095448E+02 0.  0.
         12    1    1    2    0    0 -0.11169593612E+02 -0.12457200947E+02 -0.84103952613E+01  0.18726356436E+02  0.00000000000E+00 0. -1.
         11    1    3    3    0    0  0.16326494360E+00  0.36963117810E+02  0.34600600143E+00  0.36965097783E+02  0.51100000000E-03 0. -1.
        -11    1    3    3    0    0  0.79365457048E+00  0.32831792349E+01  0.45728547837E+01  0.56850817584E+01  0.51100000000E-03 0.  1.
        -12    1    3    3    0    0  0.10212674098E+02 -0.27789096098E+02  0.34915344762E+01  0.29811464023E+02  0.00000000000E+00 0.  1.
</event>
<event>
 7    1  0.2886818E-013  0.7246154E+02  0.7816164E-02  0.1226708E+00
        -11   -1    0    0    0    0  0.00000000000E+00  0.00000000000E+00  0.45593999997E+02  0.45594000000E+02  0.51100000000E-03 0. -1.
         11   -1    0    0    0    0 -0.00000000000E+00 -0.00000000000E+00 -0.45593999997E+02  0.45594000000E+02  0.51100000000E-03 0.  1.
    9900012    2    1    2    0    0  0.19549693904E+01 -0.14841902150E+02 -0.11250607662E+02  0.72461544449E+02  0.69999966332E+02 0.  0.
         12    1    1    2    0    0 -0.19549693904E+01  0.14841902150E+02  0.11250607662E+02  0.18726455551E+02  0.00000000000E+00 0. -1.
         11    1    3    3    0    0  0.86180952709E+01 -0.50529761636E-02 -0.32799157754E+01  0.92211408939E+01  0.51100000000E-03 0. -1.
        -11    1    3    3    0    0  0.57879393394E+01  0.45772387165E+01 -0.30271732015E+02  0.31158130809E+02  0.51100000000E-03 0.  1.
         12    1    3    3    0    0 -0.12451065220E+02 -0.19414087890E+02  0.22301040129E+02  0.32082272746E+02  0.00000000000E+00 0. -1.
</event>
<event>
 7    1  0.2886818E-013  0.7246158E+02  0.7816164E-02  0.1226708E+00
        -11   -1    0    0    0    0  0.00000000000E+00  0.00000000000E+00  0.45593999997E+02  0.45594000000E+02  0.51100000000E-03 0.  1.
         11   -1    0    0    0    0 -0.00000000000E+00 -0.00000000000E+00 -0.45593999997E+02  0.45594000000E+02  0.51100000000E-03 0. -1.
    9900012    2    1    2    0    0  0.94917510714E+01  0.14892378982E+02  0.62291664522E+01  0.72461580031E+02  0.70000012684E+02 0.  0.
         12    1    1    2    0    0 -0.94917510714E+01 -0.14892378982E+02 -0.62291664522E+01  0.18726419969E+02  0.00000000000E+00 0. -1.
         11    1    3    3    0    0  0.95203818136E+01  0.26884939896E+02 -0.12784039528E+02  0.31254908894E+02  0.51100000000E-03 0. -1.
        -11    1    3    3    0    0  0.39779173281E+01  0.96134751357E+01  0.15916459027E+02  0.19015162336E+02  0.51100000000E-03 0.  1.
        -12    1    3    3    0    0 -0.40065480703E+01 -0.21606036049E+02  0.30967469532E+01  0.22191508801E+02  0.00000000000E+00 0.  1.
</event>
<event>
 7    1  0.2886818E-013  0.7246156E+02  0.7816164E-02  0.1226708E+00
        -11   -1    0    0    0    0  0.00000000000E+00  0.00000000000E+00  0.45593999997E+02  0.45594000000E+02  0.51100000000E-03 0.  1.
         11   -1    0    0    0    0 -0.00000000000E+00 -0.00000000000E+00 -0.45593999997E+02  0.45594000000E+02  0.51100000000E-03 0. -1.
    9900012    2    1    2    0    0 -0.76752250772E+01  0.14819014672E+02  0.84951428968E+01  0.72461555365E+02  0.69999980552E+02 0.  0.
         12    1    1    2    0    0  0.76752250772E+01 -0.14819014672E+02 -0.84951428968E+01  0.18726444635E+02  0.00000000000E+00 0. -1.
         11    1    3    3    0    0 -0.65349872566E+00  0.80878184492E+01  0.58884314529E+01  0.10025641779E+02  0.51100000000E-03 0. -1.
        -11    1    3    3    0    0  0.16579627915E+02  0.20784879693E+02  0.16866821465E+02  0.31486266090E+02  0.51100000000E-03 0.  1.
         12    1    3    3    0    0 -0.23601354266E+02 -0.14053683471E+02 -0.14260110021E+02  0.30949647496E+02  0.00000000000E+00 0. -1.
</event>
<event>
 7    1  0.2886818E-013  0.7246088E+02  0.7816164E-02  0.1226710E+00
        -11   -1    0    0    0    0  0.00000000000E+00  0.00000000000E+00  0.45593999997E+02  0.45594000000E+02  0.51100000000E-03 0.  1.
         11   -1    0    0    0    0 -0.00000000000E+00 -0.00000000000E+00 -0.45593999997E+02  0.45594000000E+02  0.51100000000E-03 0. -1.
    9900012    2    1    2    0    0  0.14563043225E+02 -0.89439585120E+01 -0.76569215924E+01  0.72460878755E+02  0.69999099136E+02 0.  0.
         12    1    1    2    0    0 -0.14563043225E+02  0.89439585120E+01  0.76569215924E+01  0.18727121245E+02  0.00000000000E+00 0. -1.
         11    1    3    3    0    0 -0.51164849403E+01 -0.56873648322E+01 -0.55243023524E+01  0.94362309012E+01  0.51100000000E-03 0. -1.
        -11    1    3    3    0    0  0.15907509567E+01  0.27371076293E+02 -0.10884361558E+01  0.27438859298E+02  0.51100000000E-03 0.  1.
         12    1    3    3    0    0  0.18088777209E+02 -0.30627669973E+02 -0.10441830842E+01  0.35585788556E+02  0.00000000000E+00 0. -1.
</event>
<event>
 7    1  0.2886818E-013  0.7246159E+02  0.7816164E-02  0.1226708E+00
        -11   -1    0    0    0    0  0.00000000000E+00  0.00000000000E+00  0.45593999997E+02  0.45594000000E+02  0.51100000000E-03 0.  1.
         11   -1    0    0    0    0 -0.00000000000E+00 -0.00000000000E+00 -0.45593999997E+02  0.45594000000E+02  0.51100000000E-03 0. -1.
    9900012    2    1    2    0    0  0.10463052748E+02 -0.13425764895E+02  0.78071514563E+01  0.72461594854E+02  0.70000031993E+02 0.  0.
         12    1    1    2    0    0 -0.10463052748E+02  0.13425764895E+02 -0.78071514563E+01  0.18726405146E+02  0.00000000000E+00 0. -1.
         11    1    3    3    0    0  0.33599487588E+02 -0.14726037188E+02  0.19502678962E+01  0.36736702119E+02  0.51100000000E-03 0. -1.
        -11    1    3    3    0    0  0.53018243695E+01  0.23894083769E+01  0.42828562474E+01  0.72222899370E+01  0.51100000000E-03 0.  1.
        -12    1    3    3    0    0 -0.28438259210E+02 -0.10891360843E+01  0.15740273126E+01  0.28502602798E+02  0.00000000000E+00 0.  1.
</event>
<event>
 7    1  0.2886818E-013  0.7246158E+02  0.7816164E-02  0.1226708E+00
        -11   -1    0    0    0    0  0.00000000000E+00  0.00000000000E+00  0.45593999997E+02  0.45594000000E+02  0.51100000000E-03 0. -1.
         11   -1    0    0    0    0 -0.00000000000E+00 -0.00000000000E+00 -0.45593999997E+02  0.45594000000E+02  0.51100000000E-03 0.  1.
    9900012    2    1    2    0    0 -0.13623179665E+02  0.11242779981E+01 -0.12799365258E+02  0.72461580796E+02  0.70000013680E+02 0.  0.
         12    1    1    2    0    0  0.13623179665E+02 -0.11242779981E+01  0.12799365258E+02  0.18726419204E+02  0.00000000000E+00 0. -1.
         11    1    3    3    0    0  0.75466235936E+01 -0.45476098158E+01 -0.82129882088E+01  0.12045142518E+02  0.51100000000E-03 0. -1.
        -11    1    3    3    0    0  0.11588726231E+02  0.20367355340E+02 -0.69288238330E+01  0.24436373282E+02  0.51100000000E-03 0.  1.
         12    1    3    3    0    0 -0.32758529490E+02 -0.14695467526E+02  0.23424467839E+01  0.35980064996E+02  0.00000000000E+00 0. -1.
</event>
<event>
 7    1  0.2886818E-013  0.7246156E+02  0.7816164E-02  0.1226708E+00
        -11   -1    0    0    0    0  0.00000000000E+00  0.00000000000E+00  0.45593999997E+02  0.45594000000E+02  0.51100000000E-03 0.  1.
         11   -1    0    0    0    0 -0.00000000000E+00 -0.00000000000E+00 -0.45593999997E+02  0.45594000000E+02  0.51100000000E-03 0. -1.
    9900012    2    1    2    0    0  0.66698190860E+01  0.13465994390E+02  0.11174087165E+02  0.72461555716E+02  0.69999981009E+02 0.  0.
         12    1    1    2    0    0 -0.66698190860E+01 -0.13465994390E+02 -0.11174087165E+02  0.18726444284E+02  0.00000000000E+00 0. -1.
         11    1    3    3    0    0  0.27432099327E+02  0.58200012858E+01 -0.63328989001E+01  0.28748879930E+02  0.51100000000E-03 0. -1.
        -11    1    3    3    0    0  0.85863372774E+01 -0.22812447441E+01  0.21853036238E+01  0.91490336983E+01  0.51100000000E-03 0.  1.
        -12    1    3    3    0    0 -0.29348617519E+02  0.99272378485E+01  0.15321682441E+02  0.34563642088E+02  0.00000000000E+00 0.  1.
</event>
<event>
 7    1  0.2886818E-013  0.7246156E+02  0.7816164E-02  0.1226708E+00
        -11   -1    0    0    0    0  0.00000000000E+00  0.00000000000E+00  0.45593999997E+02  0.45594000000E+02  0.51100000000E-03 0. -1.
         11   -1    0    0    0    0 -0.00000000000E+00 -0.00000000000E+00 -0.45593999997E+02  0.45594000000E+02  0.51100000000E-03 0.  1.
    9900012    2    1    2    0    0  0.69211286459E+01  0.81680797052E+01 -0.15364246203E+02  0.72461558555E+02  0.69999984708E+02 0.  0.
         12    1    1    2    0    0 -0.69211286459E+01 -0.81680797052E+01  0.15364246203E+02  0.18726441445E+02  0.00000000000E+00 0. -1.
         11    1    3    3    0    0  0.14661272363E+02  0.10880656602E+02 -0.21412576415E+02  0.28139652173E+02  0.51100000000E-03 0. -1.
        -11    1    3    3    0    0 -0.86394413625E+01  0.91731206081E+01 -0.15330536343E+02  0.19844682753E+02  0.51100000000E-03 0.  1.
         12    1    3    3    0    0  0.89929764545E+00 -0.11885697505E+02  0.21378866555E+02  0.24477223630E+02  0.00000000000E+00 0. -1.
</event>
<event>
 7    1  0.2886818E-013  0.7246149E+02  0.7816164E-02  0.1226708E+00
        -11   -1    0    0    0    0  0.00000000000E+00  0.00000000000E+00  0.45593999997E+02  0.45594000000E+02  0.51100000000E-03 0.  1.
         11   -1    0    0    0    0 -0.00000000000E+00 -0.00000000000E+00 -0.45593999997E+02  0.45594000000E+02  0.51100000000E-03 0. -1.
    9900012    2    1    2    0    0 -0.86077115406E+01 -0.22412852579E+01  0.16479266428E+02  0.72461487255E+02  0.69999891826E+02 0.  0.
         12    1    1    2    0    0  0.86077115406E+01  0.22412852579E+01 -0.16479266428E+02  0.18726512745E+02  0.00000000000E+00 0. -1.
         11    1    3    3    0    0 -0.79342504125E+01 -0.90697716608E+01 -0.74311309022E+01  0.14157499579E+02  0.51100000000E-03 0. -1.
        -11    1    3    3    0    0 -0.22970328864E+02 -0.10178675142E+02  0.10781890595E+02  0.27340274337E+02  0.51100000000E-03 0.  1.
        -12    1    3    3    0    0  0.22296867736E+02  0.17007161545E+02  0.13128506735E+02  0.30963713339E+02  0.00000000000E+00 0.  1.
</event>
<event>
 7    1  0.2886818E-013  0.7246153E+02  0.7816164E-02  0.1226708E+00
        -11   -1    0    0    0    0  0.00000000000E+00  0.00000000000E+00  0.45593999997E+02  0.45594000000E+02  0.51100000000E-03 0. -1.
         11   -1    0    0    0    0 -0.00000000000E+00 -0.00000000000E+00 -0.45593999997E+02  0.45594000000E+02  0.51100000000E-03 0.  1.
    9900012    2    1    2    0    0 -0.15811461931E+01 -0.18636933979E+02  0.91950400703E+00  0.72461526252E+02  0.69999942626E+02 0.  0.
         12    1    1    2    0    0  0.15811461931E+01  0.18636933979E+02 -0.91950400703E+00  0.18726473748E+02  0.00000000000E+00 0. -1.
         11    1    3    3    0    0  0.15526621558E+01  0.12212350006E+01  0.74814390360E+00  0.21123196392E+01  0.51100000000E-03 0. -1.
        -11    1    3    3    0    0  0.27890310379E+02 -0.13429747179E+02 -0.15925351916E+02  0.34811554924E+02  0.51100000000E-03 0.  1.
         12    1    3    3    0    0 -0.31024118727E+02 -0.64284218009E+01  0.16096712020E+02  0.35537651688E+02  0.00000000000E+00 0. -1.
</event>
<event>
 7    1  0.2886818E-013  0.7246154E+02  0.7816164E-02  0.1226708E+00
        -11   -1    0    0    0    0  0.00000000000E+00  0.00000000000E+00  0.45593999997E+02  0.45594000000E+02  0.51100000000E-03 0.  1.
         11   -1    0    0    0    0 -0.00000000000E+00 -0.00000000000E+00 -0.45593999997E+02  0.45594000000E+02  0.51100000000E-03 0. -1.
    9900012    2    1    2    0    0  0.79547568925E+01 -0.16704913596E+02  0.28892818820E+01  0.72461541572E+02  0.69999962584E+02 0.  0.
         12    1    1    2    0    0 -0.79547568925E+01  0.16704913596E+02 -0.28892818820E+01  0.18726458428E+02  0.00000000000E+00 0. -1.
         11    1    3    3    0    0 -0.24439457374E+01 -0.25417254472E+01  0.79174788186E+01  0.86671627492E+01  0.51100000000E-03 0. -1.
        -11    1    3    3    0    0 -0.21678028651E+02 -0.16481648949E+01  0.12583752771E+02  0.25119797129E+02  0.51100000000E-03 0.  1.
         12    1    3    3    0    0  0.32076731281E+02 -0.12515023254E+02 -0.17611949707E+02  0.38674581694E+02  0.00000000000E+00 0. -1.
</event>
<event>
 7    1  0.2886818E-013  0.7246160E+02  0.7816164E-02  0.1226708E+00
        -11   -1    0    0    0    0  0.00000000000E+00  0.00000000000E+00  0.45593999997E+02  0.45594000000E+02  0.51100000000E-03 0. -1.
         11   -1    0    0    0    0 -0.00000000000E+00 -0.00000000000E+00 -0.45593999997E+02  0.45594000000E+02  0.51100000000E-03 0.  1.
    9900012    2    1    2    0    0  0.12464911856E+02  0.13907682255E+02  0.13713423526E+01  0.72461595296E+02  0.70000032569E+02 0.  0.
         12    1    1    2    0    0 -0.12464911856E+02 -0.13907682255E+02 -0.13713423526E+01  0.18726404704E+02  0.00000000000E+00 0. -1.
         11    1    3    3    0    0  0.16231816172E+02  0.12361793855E+02 -0.18751033545E+02  0.27710775212E+02  0.51100000000E-03 0. -1.
        -11    1    3    3    0    0 -0.93522775286E+01  0.96493006129E+01 -0.75268559396E+01  0.15402196528E+02  0.51100000000E-03 0.  1.
         12    1    3    3    0    0  0.55853732126E+01 -0.81034122132E+01  0.27649231837E+02  0.29348623556E+02  0.00000000000E+00 0. -1.
</event>
<event>
 7    1  0.2886818E-013  0.7246152E+02  0.7816164E-02  0.1226708E+00
        -11   -1    0    0    0    0  0.00000000000E+00  0.00000000000E+00  0.45593999997E+02  0.45594000000E+02  0.51100000000E-03 0.  1.
         11   -1    0    0    0    0 -0.00000000000E+00 -0.00000000000E+00 -0.45593999997E+02  0.45594000000E+02  0.51100000000E-03 0. -1.
    9900012    2    1    2    0    0  0.10459630685E+02 -0.42043373611E+01  0.14953280184E+02  0.72461523690E+02  0.69999939290E+02 0.  0.
         12    1    1    2    0    0 -0.10459630685E+02  0.42043373611E+01 -0.14953280184E+02  0.18726476310E+02  0.00000000000E+00 0. -1.
         11    1    3    3    0    0 -0.15402797552E+02  0.77624083655E+01  0.62084027303E+01  0.18331541691E+02  0.51100000000E-03 0. -1.
        -11    1    3    3    0    0  0.34585442832E+02  0.43099680080E+01  0.72802037249E+01  0.35605196906E+02  0.51100000000E-03 0.  1.
         12    1    3    3    0    0 -0.87230145955E+01 -0.16276713735E+02  0.14646737288E+01  0.18524785094E+02  0.00000000000E+00 0. -1.
</event>
<event>
 7    1  0.2886818E-013  0.7246147E+02  0.7816164E-02  0.1226708E+00
        -11   -1    0    0    0    0  0.00000000000E+00  0.00000000000E+00  0.45593999997E+02  0.45594000000E+02  0.51100000000E-03 0.  1.
         11   -1    0    0    0    0 -0.00000000000E+00 -0.00000000000E+00 -0.45593999997E+02  0.45594000000E+02  0.51100000000E-03 0. -1.
    9900012    2    1    2    0    0 -0.15901774600E+01  0.10999758427E+02  0.15071808045E+02  0.72461474760E+02  0.69999875549E+02 0.  0.
         12    1    1    2    0    0  0.15901774600E+01 -0.10999758427E+02 -0.15071808045E+02  0.18726525240E+02  0.00000000000E+00 0. -1.
         11    1    3    3    0    0  0.22029321304E+02  0.14629871618E+02  0.17232752682E+02  0.31564092035E+02  0.51100000000E-03 0. -1.
        -11    1    3    3    0    0  0.78537304878E+01 -0.17818186826E+01  0.36449881518E+01  0.88397906808E+01  0.51100000000E-03 0.  1.
        -12    1    3    3    0    0 -0.31473229252E+02 -0.18482945086E+01 -0.58059327889E+01  0.32057592045E+02  0.00000000000E+00 0.  1.
</event>
<event>
 7    1  0.2886818E-013  0.7246182E+02  0.7816164E-02  0.1226707E+00
        -11   -1    0    0    0    0  0.00000000000E+00  0.00000000000E+00  0.45593999997E+02  0.45594000000E+02  0.51100000000E-03 0.  1.
         11   -1    0    0    0    0 -0.00000000000E+00 -0.00000000000E+00 -0.45593999997E+02  0.45594000000E+02  0.51100000000E-03 0. -1.
    9900012    2    1    2    0    0  0.11403356765E+02 -0.14179994889E+02  0.44227754464E+01  0.72461821980E+02  0.70000327867E+02 0.  0.
         12    1    1    2    0    0 -0.11403356765E+02  0.14179994889E+02 -0.44227754464E+01  0.18726178020E+02  0.00000000000E+00 0. -1.
         11    1    3    3    0    0 -0.86370274631E+01 -0.30381292803E+02 -0.28144780610E+01  0.31710289857E+02  0.51100000000E-03 0. -1.
        -11    1    3    3    0    0  0.46638814822E+01 -0.86192962593E+01  0.60759172585E+01  0.11530864203E+02  0.51100000000E-03 0.  1.
         12    1    3    3    0    0  0.15376502746E+02  0.24820594173E+02  0.11613362490E+01  0.29220667920E+02  0.00000000000E+00 0. -1.
</event>
<event>
 7    1  0.2886818E-013  0.7246166E+02  0.7816164E-02  0.1226708E+00
        -11   -1    0    0    0    0  0.00000000000E+00  0.00000000000E+00  0.45593999997E+02  0.45594000000E+02  0.51100000000E-03 0.  1.
         11   -1    0    0    0    0 -0.00000000000E+00 -0.00000000000E+00 -0.45593999997E+02  0.45594000000E+02  0.51100000000E-03 0. -1.
    9900012    2    1    2    0    0 -0.23341051960E+00 -0.14722402489E+02  0.11570309775E+02  0.72461663364E+02  0.70000121241E+02 0.  0.
         12    1    1    2    0    0  0.23341051960E+00  0.14722402489E+02 -0.11570309775E+02  0.18726336636E+02  0.00000000000E+00 0. -1.
         11    1    3    3    0    0  0.99725174532E+01 -0.17459520384E+02  0.74142448296E+01  0.21430281917E+02  0.51100000000E-03 0. -1.
        -11    1    3    3    0    0 -0.52908281593E+01 -0.23391096507E+02  0.47052037750E+01  0.24439214415E+02  0.51100000000E-03 0.  1.
         12    1    3    3    0    0 -0.49150998135E+01  0.26128214402E+02 -0.54913882942E+00  0.26592167032E+02  0.00000000000E+00 0. -1.
</event>
<event>
 7    1  0.2886818E-013  0.7246139E+02  0.7816164E-02  0.1226708E+00
        -11   -1    0    0    0    0  0.00000000000E+00  0.00000000000E+00  0.45593999997E+02  0.45594000000E+02  0.51100000000E-03 0.  1.
         11   -1    0    0    0    0 -0.00000000000E+00 -0.00000000000E+00 -0.45593999997E+02  0.45594000000E+02  0.51100000000E-03 0. -1.
    9900012    2    1    2    0    0  0.10491033979E+02  0.13095316514E+02 -0.83148510167E+01  0.72461391765E+02  0.69999767432E+02 0.  0.
         12    1    1    2    0    0 -0.10491033979E+02 -0.13095316514E+02  0.83148510167E+01  0.18726608235E+02  0.00000000000E+00 0. -1.
         11    1    3    3    0    0  0.15270635222E+02  0.48203641209E+01 -0.27296767571E+02  0.31647144112E+02  0.51100000000E-03 0. -1.
        -11    1    3    3    0    0  0.99893212287E+01  0.16178947576E+02  0.12972169391E+02  0.23017863981E+02  0.51100000000E-03 0.  1.
        -12    1    3    3    0    0 -0.14768922472E+02 -0.79039951828E+01  0.60097471631E+01  0.17796383672E+02  0.00000000000E+00 0.  1.
</event>
<event>
 7    1  0.2886818E-013  0.7246114E+02  0.7816164E-02  0.1226709E+00
        -11   -1    0    0    0    0  0.00000000000E+00  0.00000000000E+00  0.45593999997E+02  0.45594000000E+02  0.51100000000E-03 0. -1.
         11   -1    0    0    0    0 -0.00000000000E+00 -0.00000000000E+00 -0.45593999997E+02  0.45594000000E+02  0.51100000000E-03 0.  1.
    9900012    2    1    2    0    0  0.57956332730E+01 -0.67685811196E+01 -0.16470955033E+02  0.72461136539E+02  0.69999434951E+02 0.  0.
         12    1    1    2    0    0 -0.57956332730E+01  0.67685811196E+01  0.16470955033E+02  0.18726863461E+02  0.00000000000E+00 0. -1.
         11    1    3    3    0    0 -0.18607772138E+02 -0.18501433064E+02  0.11841525736E+02  0.28788434159E+02  0.51100000000E-03 0.  1.
        -11    1    3    3    0    0  0.58890035588E+01  0.55866755653E+01  0.12912044354E+01  0.82193987580E+01  0.51100000000E-03 0. -1.
        -12    1    3    3    0    0  0.18514401852E+02  0.61461763790E+01 -0.29603685204E+02  0.35453303621E+02  0.00000000000E+00 0.  1.
</event>
<event>
 7    1  0.2886818E-013  0.7246161E+02  0.7816164E-02  0.1226708E+00
        -11   -1    0    0    0    0  0.00000000000E+00  0.00000000000E+00  0.45593999997E+02  0.45594000000E+02  0.51100000000E-03 0. -1.
         11   -1    0    0    0    0 -0.00000000000E+00 -0.00000000000E+00 -0.45593999997E+02  0.45594000000E+02  0.51100000000E-03 0.  1.
    9900012    2    1    2    0    0  0.29221076612E+01 -0.13180546016E+02 -0.12977373042E+02  0.72461609063E+02  0.70000050503E+02 0.  0.
         12    1    1    2    0    0 -0.29221076612E+01  0.13180546016E+02  0.12977373042E+02  0.18726390937E+02  0.00000000000E+00 0. -1.
         11    1    3    3    0    0  0.61375981637E+00 -0.33680775012E+02 -0.81030623571E+01  0.34647235479E+02  0.51100000000E-03 0. -1.
        -11    1    3    3    0    0 -0.23544944189E+01 -0.64001366649E+01 -0.77951112534E+01  0.10357082263E+02  0.51100000000E-03 0.  1.
         12    1    3    3    0    0  0.46628422637E+01  0.26900365661E+02  0.29208005686E+01  0.27457291320E+02  0.00000000000E+00 0. -1.
</event>
<event>
 7    1  0.2886818E-013  0.7246158E+02  0.7816164E-02  0.1226708E+00
        -11   -1    0    0    0    0  0.00000000000E+00  0.00000000000E+00  0.45593999997E+02  0.45594000000E+02  0.51100000000E-03 0. -1.
         11   -1    0    0    0    0 -0.00000000000E+00 -0.00000000000E+00 -0.45593999997E+02  0.45594000000E+02  0.51100000000E-03 0.  1.
    9900012    2    1    2    0    0  0.18021989879E+02  0.32213077987E+01 -0.39382542218E+01  0.72461580442E+02  0.70000013219E+02 0.  0.
         12    1    1    2    0    0 -0.18021989879E+02 -0.32213077987E+01  0.39382542218E+01  0.18726419558E+02  0.00000000000E+00 0. -1.
         11    1    3    3    0    0  0.92754498278E+01 -0.60457140919E+01  0.14838704184E+02  0.18514096535E+02  0.51100000000E-03 0. -1.
        -11    1    3    3    0    0  0.14922745957E+02  0.20690361653E+02  0.57902492552E+01  0.26159250733E+02  0.51100000000E-03 0.  1.
         12    1    3    3    0    0 -0.61762059059E+01 -0.11423339762E+02 -0.24567207661E+02  0.27788233174E+02  0.00000000000E+00 0. -1.
</event>
<event>
 7    1  0.2886818E-013  0.7246158E+02  0.7816164E-02  0.1226708E+00
        -11   -1    0    0    0    0  0.00000000000E+00  0.00000000000E+00  0.45593999997E+02  0.45594000000E+02  0.51100000000E-03 0.  1.
         11   -1    0    0    0    0 -0.00000000000E+00 -0.00000000000E+00 -0.45593999997E+02  0.45594000000E+02  0.51100000000E-03 0. -1.
    9900012    2    1    2    0    0  0.77718550149E+01 -0.16160418785E+02 -0.53961095791E+01  0.72461578444E+02  0.70000010617E+02 0.  0.
         12    1    1    2    0    0 -0.77718550149E+01  0.16160418785E+02  0.53961095791E+01  0.18726421556E+02  0.00000000000E+00 0. -1.
         11    1    3    3    0    0  0.43085495405E+01 -0.45141909366E+01 -0.18645126204E+02  0.19661695002E+02  0.51100000000E-03 0. -1.
        -11    1    3    3    0    0  0.24524287569E+02 -0.14482378943E+02  0.13564611839E+02  0.31546452657E+02  0.51100000000E-03 0.  1.
         12    1    3    3    0    0 -0.21060982094E+02  0.28361510946E+01 -0.31559521428E+00  0.21253430785E+02  0.00000000000E+00 0. -1.
</event>
<event>
 7    1  0.2886818E-013  0.7246161E+02  0.7816164E-02  0.1226708E+00
        -11   -1    0    0    0    0  0.00000000000E+00  0.00000000000E+00  0.45593999997E+02  0.45594000000E+02  0.51100000000E-03 0.  1.
         11   -1    0    0    0    0 -0.00000000000E+00 -0.00000000000E+00 -0.45593999997E+02  0.45594000000E+02  0.51100000000E-03 0. -1.
    9900012    2    1    2    0    0  0.62139630487E+01  0.13905007077E+02  0.10895649402E+02  0.72461608610E+02  0.70000049914E+02 0.  0.
         12    1    1    2    0    0 -0.62139630487E+01 -0.13905007077E+02 -0.10895649402E+02  0.18726391390E+02  0.00000000000E+00 0. -1.
         11    1    3    3    0    0  0.10992275015E+02  0.94121788060E+01  0.28557061507E+01  0.14750399241E+02  0.51100000000E-03 0. -1.
        -11    1    3    3    0    0 -0.23879812790E+01  0.29084865670E+02  0.13890681481E+02  0.32320007703E+02  0.51100000000E-03 0.  1.
         12    1    3    3    0    0 -0.23903306872E+01 -0.24592037400E+02 -0.58507382292E+01  0.25391201667E+02  0.00000000000E+00 0. -1.
</event>
<event>
 7    1  0.2886818E-013  0.7246163E+02  0.7816164E-02  0.1226708E+00
        -11   -1    0    0    0    0  0.00000000000E+00  0.00000000000E+00  0.45593999997E+02  0.45594000000E+02  0.51100000000E-03 0. -1.
         11   -1    0    0    0    0 -0.00000000000E+00 -0.00000000000E+00 -0.45593999997E+02  0.45594000000E+02  0.51100000000E-03 0.  1.
    9900012    2    1    2    0    0 -0.13117399597E+02 -0.10634727254E+02 -0.80940334586E+01  0.72461628926E+02  0.70000076379E+02 0.  0.
         12    1    1    2    0    0  0.13117399597E+02  0.10634727254E+02  0.80940334586E+01  0.18726371074E+02  0.00000000000E+00 0. -1.
         11    1    3    3    0    0  0.57717963291E+01  0.44576473626E+01  0.17605939886E+02  0.19056583440E+02  0.51100000000E-03 0. -1.
        -11    1    3    3    0    0 -0.12638873219E+02  0.12614592982E+02 -0.59970527710E+01  0.18837030407E+02  0.51100000000E-03 0.  1.
        -12    1    3    3    0    0 -0.62503227071E+01 -0.27706967598E+02 -0.19702920573E+02  0.34568015080E+02  0.00000000000E+00 0.  1.
</event>
<event>
 7    1  0.2886818E-013  0.7246157E+02  0.7816164E-02  0.1226708E+00
        -11   -1    0    0    0    0  0.00000000000E+00  0.00000000000E+00  0.45593999997E+02  0.45594000000E+02  0.51100000000E-03 0.  1.
         11   -1    0    0    0    0 -0.00000000000E+00 -0.00000000000E+00 -0.45593999997E+02  0.45594000000E+02  0.51100000000E-03 0. -1.
    9900012    2    1    2    0    0  0.10825308785E+02 -0.15133650993E+02  0.21129448386E+01  0.72461568451E+02  0.69999997598E+02 0.  0.
         12    1    1    2    0    0 -0.10825308785E+02  0.15133650993E+02 -0.21129448386E+01  0.18726431549E+02  0.00000000000E+00 0. -1.
         11    1    3    3    0    0 -0.24040746227E+01 -0.42048943448E+01  0.28326708319E+01  0.56111260497E+01  0.51100000000E-03 0. -1.
        -11    1    3    3    0    0  0.15065777971E+02 -0.14599181999E+02  0.29585449459E+02  0.36268617301E+02  0.51100000000E-03 0.  1.
         12    1    3    3    0    0 -0.18363945630E+01  0.36704253504E+01 -0.30305175453E+02  0.30581825100E+02  0.00000000000E+00 0. -1.
</event>
<event>
 7    1  0.2886818E-013  0.7246155E+02  0.7816164E-02  0.1226708E+00
        -11   -1    0    0    0    0  0.00000000000E+00  0.00000000000E+00  0.45593999997E+02  0.45594000000E+02  0.51100000000E-03 0.  1.
         11   -1    0    0    0    0 -0.00000000000E+00 -0.00000000000E+00 -0.45593999997E+02  0.45594000000E+02  0.51100000000E-03 0. -1.
    9900012    2    1    2    0    0  0.17153060491E+02  0.60218199549E+01 -0.44933534464E+01  0.72461547454E+02  0.69999970246E+02 0.  0.
         12    1    1    2    0    0 -0.17153060491E+02 -0.60218199549E+01  0.44933534464E+01  0.18726452546E+02  0.00000000000E+00 0. -1.
         11    1    3    3    0    0 -0.34217807150E+01 -0.12027499465E+02 -0.29062250756E+02  0.31638327167E+02  0.51100000000E-03 0. -1.
        -11    1    3    3    0    0 -0.31840209126E+01  0.35484552671E+01  0.35445926267E+01  0.59408468340E+01  0.51100000000E-03 0.  1.
        -12    1    3    3    0    0  0.23758862118E+02  0.14500864153E+02  0.21024304683E+02  0.34882373453E+02  0.00000000000E+00 0.  1.
</event>
<event>
 7    1  0.2886818E-013  0.7246165E+02  0.7816164E-02  0.1226708E+00
        -11   -1    0    0    0    0  0.00000000000E+00  0.00000000000E+00  0.45593999997E+02  0.45594000000E+02  0.51100000000E-03 0.  1.
         11   -1    0    0    0    0 -0.00000000000E+00 -0.00000000000E+00 -0.45593999997E+02  0.45594000000E+02  0.51100000000E-03 0. -1.
    9900012    2    1    2    0    0 -0.16452855675E+02  0.40267161717E+01  0.79853207082E+01  0.72461648252E+02  0.70000101554E+02 0.  0.
         12    1    1    2    0    0  0.16452855675E+02 -0.40267161717E+01 -0.79853207082E+01  0.18726351748E+02  0.00000000000E+00 0. -1.
         11    1    3    3    0    0 -0.20410473362E+02  0.13617626664E+02 -0.22219528972E+02  0.33101882829E+02  0.51100000000E-03 0. -1.
        -11    1    3    3    0    0  0.80526622338E+01  0.53953874356E+01  0.11147605431E+02  0.14772429785E+02  0.51100000000E-03 0.  1.
        -12    1    3    3    0    0 -0.40950445468E+01 -0.14986297928E+02  0.19057244249E+02  0.24587335638E+02  0.00000000000E+00 0.  1.
</event>
<event>
 7    1  0.2886818E-013  0.7246154E+02  0.7816164E-02  0.1226708E+00
        -11   -1    0    0    0    0  0.00000000000E+00  0.00000000000E+00  0.45593999997E+02  0.45594000000E+02  0.51100000000E-03 0. -1.
         11   -1    0    0    0    0 -0.00000000000E+00 -0.00000000000E+00 -0.45593999997E+02  0.45594000000E+02  0.51100000000E-03 0.  1.
    9900012    2    1    2    0    0  0.81794716390E+01  0.16843241408E+02 -0.28618894588E+00  0.72461536332E+02  0.69999955757E+02 0.  0.
         12    1    1    2    0    0 -0.81794716390E+01 -0.16843241408E+02  0.28618894588E+00  0.18726463668E+02  0.00000000000E+00 0. -1.
         11    1    3    3    0    0  0.10356297909E+02 -0.15372798681E+01 -0.13510332324E+02  0.17092256010E+02  0.51100000000E-03 0.  1.
        -11    1    3    3    0    0 -0.16051174292E+02 -0.11886617937E+02  0.86310021578E+01  0.21758356570E+02  0.51100000000E-03 0. -1.
         12    1    3    3    0    0  0.13874348022E+02  0.30267139212E+02  0.45931412201E+01  0.33610923751E+02  0.00000000000E+00 0. -1.
</event>
<event>
 7    1  0.2886818E-013  0.7246210E+02  0.7816164E-02  0.1226707E+00
        -11   -1    0    0    0    0  0.00000000000E+00  0.00000000000E+00  0.45593999997E+02  0.45594000000E+02  0.51100000000E-03 0. -1.
         11   -1    0    0    0    0 -0.00000000000E+00 -0.00000000000E+00 -0.45593999997E+02  0.45594000000E+02  0.51100000000E-03 0.  1.
    9900012    2    1    2    0    0 -0.30022373198E+01  0.11233237103E+02  0.14678570510E+02  0.72462096098E+02  0.70000684954E+02 0.  0.
         12    1    1    2    0    0  0.30022373198E+01 -0.11233237103E+02 -0.14678570510E+02  0.18725903902E+02  0.00000000000E+00 0. -1.
         11    1    3    3    0    0  0.42869650497E+01 -0.26895380279E+01 -0.47893485199E+01  0.69677502572E+01  0.51100000000E-03 0. -1.
        -11    1    3    3    0    0 -0.75123605604E+01 -0.85755309065E+01 -0.18283496942E+02  0.21546729501E+02  0.51100000000E-03 0.  1.
         12    1    3    3    0    0  0.22315819088E+00  0.22498306037E+02  0.37751415971E+02  0.43947616340E+02  0.00000000000E+00 0. -1.
</event>
<event>
 7    1  0.2886818E-013  0.7246157E+02  0.7816164E-02  0.1226708E+00
        -11   -1    0    0    0    0  0.00000000000E+00  0.00000000000E+00  0.45593999997E+02  0.45594000000E+02  0.51100000000E-03 0. -1.
         11   -1    0    0    0    0 -0.00000000000E+00 -0.00000000000E+00 -0.45593999997E+02  0.45594000000E+02  0.51100000000E-03 0.  1.
    9900012    2    1    2    0    0 -0.63712322507E+01 -0.31970696621E+01 -0.17316618183E+02  0.72461571613E+02  0.70000001718E+02 0.  0.
         12    1    1    2    0    0  0.63712322507E+01  0.31970696621E+01  0.17316618183E+02  0.18726428387E+02  0.00000000000E+00 0. -1.
         11    1    3    3    0    0  0.55204264662E+01 -0.54381103155E+01 -0.91240876645E+01  0.11970677848E+02  0.51100000000E-03 0. -1.
        -11    1    3    3    0    0  0.71853785436E+01 -0.87515384980E+01 -0.28419783070E+02  0.30592534398E+02  0.51100000000E-03 0.  1.
         12    1    3    3    0    0 -0.19077037260E+02  0.10992579151E+02  0.20227252551E+02  0.29898359367E+02  0.00000000000E+00 0. -1.
</event>
<event>
 7    1  0.2886818E-013  0.7246154E+02  0.7816164E-02  0.1226708E+00
        -11   -1    0    0    0    0  0.00000000000E+00  0.00000000000E+00  0.45593999997E+02  0.45594000000E+02  0.51100000000E-03 0. -1.
         11   -1    0    0    0    0 -0.00000000000E+00 -0.00000000000E+00 -0.45593999997E+02  0.45594000000E+02  0.51100000000E-03 0.  1.
    9900012    2    1    2    0    0  0.10809450755E+02 -0.73662688998E+01 -0.13400530544E+02  0.72461538455E+02  0.69999958523E+02 0.  0.
         12    1    1    2    0    0 -0.10809450755E+02  0.73662688998E+01  0.13400530544E+02  0.18726461545E+02  0.00000000000E+00 0. -1.
         11    1    3    3    0    0  0.81787699387E+01 -0.38323002475E-02  0.22363389918E+02  0.23812045298E+02  0.51100000000E-03 0. -1.
        -11    1    3    3    0    0  0.15258613660E+02 -0.60056558067E+01 -0.82733168073E+01  0.18366844142E+02  0.51100000000E-03 0.  1.
         12    1    3    3    0    0 -0.12627932844E+02 -0.13567807929E+01 -0.27490603655E+02  0.30282649014E+02  0.00000000000E+00 0. -1.
</event>
<event>
 7    1  0.2886818E-013  0.7246174E+02  0.7816164E-02  0.1226708E+00
        -11   -1    0    0    0    0  0.00000000000E+00  0.00000000000E+00  0.45593999997E+02  0.45594000000E+02  0.51100000000E-03 0.  1.
         11   -1    0    0    0    0 -0.00000000000E+00 -0.00000000000E+00 -0.45593999997E+02  0.45594000000E+02  0.51100000000E-03 0. -1.
    9900012    2    1    2    0    0 -0.84492927378E+01  0.79472475237E+01 -0.14701138475E+02  0.72461741339E+02  0.70000222817E+02 0.  0.
         12    1    1    2    0    0  0.84492927378E+01 -0.79472475237E+01  0.14701138475E+02  0.18726258661E+02  0.00000000000E+00 0. -1.
         11    1    3    3    0    0 -0.21958382208E+01  0.32509883424E+01  0.94686204361E+01  0.10249166011E+02  0.51100000000E-03 0. -1.
        -11    1    3    3    0    0  0.68569689825E+01  0.16558002061E+02  0.12263642198E+02  0.21715947507E+02  0.51100000000E-03 0.  1.
         12    1    3    3    0    0 -0.13110423500E+02 -0.11861742880E+02 -0.36433401110E+02  0.40496627821E+02  0.00000000000E+00 0. -1.
</event>
<event>
 7    1  0.2886818E-013  0.7246146E+02  0.7816164E-02  0.1226708E+00
        -11   -1    0    0    0    0  0.00000000000E+00  0.00000000000E+00  0.45593999997E+02  0.45594000000E+02  0.51100000000E-03 0.  1.
         11   -1    0    0    0    0 -0.00000000000E+00 -0.00000000000E+00 -0.45593999997E+02  0.45594000000E+02  0.51100000000E-03 0. -1.
    9900012    2    1    2    0    0  0.39502164093E+01  0.58435190591E+01  0.17347402714E+02  0.72461459861E+02  0.69999856140E+02 0.  0.
         12    1    1    2    0    0 -0.39502164093E+01 -0.58435190591E+01 -0.17347402714E+02  0.18726540139E+02  0.00000000000E+00 0. -1.
         11    1    3    3    0    0 -0.11803850796E+02  0.11615445584E+01 -0.15003401816E+02  0.19125431909E+02  0.51100000000E-03 0. -1.
        -11    1    3    3    0    0 -0.78164094694E+01 -0.11290020505E+02  0.81496253020E+01  0.15968005912E+02  0.51100000000E-03 0.  1.
        -12    1    3    3    0    0  0.23570476675E+02  0.15971995006E+02  0.24201179228E+02  0.37368022040E+02  0.00000000000E+00 0.  1.
</event>
<event>
 7    1  0.2886818E-013  0.7246156E+02  0.7816164E-02  0.1226708E+00
        -11   -1    0    0    0    0  0.00000000000E+00  0.00000000000E+00  0.45593999997E+02  0.45594000000E+02  0.51100000000E-03 0. -1.
         11   -1    0    0    0    0 -0.00000000000E+00 -0.00000000000E+00 -0.45593999997E+02  0.45594000000E+02  0.51100000000E-03 0.  1.
    9900012    2    1    2    0    0 -0.15056798104E+02 -0.10278616558E+02  0.42804576739E+01  0.72461562929E+02  0.69999990405E+02 0.  0.
         12    1    1    2    0    0  0.15056798104E+02  0.10278616558E+02 -0.42804576739E+01  0.18726437071E+02  0.00000000000E+00 0. -1.
         11    1    3    3    0    0  0.79188238065E+01  0.17499002395E+01  0.10972978128E+01  0.81837634422E+01  0.51100000000E-03 0. -1.
        -11    1    3    3    0    0 -0.13106462517E+02  0.22548591109E+02 -0.68130992250E+01  0.26956198582E+02  0.51100000000E-03 0.  1.
         12    1    3    3    0    0 -0.98691593936E+01 -0.34577107907E+02  0.99962590861E+01  0.37321600904E+02  0.00000000000E+00 0. -1.
</event>
<event>
 7    1  0.2886818E-013  0.7246150E+02  0.7816164E-02  0.1226708E+00
        -11   -1    0    0    0    0  0.00000000000E+00  0.00000000000E+00  0.45593999997E+02  0.45594000000E+02  0.51100000000E-03 0.  1.
         11   -1    0    0    0    0 -0.00000000000E+00 -0.00000000000E+00 -0.45593999997E+02  0.45594000000E+02  0.51100000000E-03 0. -1.
    9900012    2    1    2    0    0 -0.33385793342E+01  0.13986631354E+02  0.11996242471E+02  0.72461500006E+02  0.69999908436E+02 0.  0.
         12    1    1    2    0    0  0.33385793342E+01 -0.13986631354E+02 -0.11996242471E+02  0.18726499994E+02  0.00000000000E+00 0. -1.
         11    1    3    3    0    0 -0.24704246870E+02 -0.86445120965E+01  0.20742046992E+02  0.33395507429E+02  0.51100000000E-03 0. -1.
        -11    1    3    3    0    0  0.20860713912E+01 -0.22372255890E+00  0.55428945923E+01  0.59266707648E+01  0.51100000000E-03 0.  1.
        -12    1    3    3    0    0  0.19279596144E+02  0.22854866009E+02 -0.14288699113E+02  0.33139321812E+02  0.00000000000E+00 0.  1.
</event>
<event>
 7    1  0.2886818E-013  0.7246152E+02  0.7816164E-02  0.1226708E+00
        -11   -1    0    0    0    0  0.00000000000E+00  0.00000000000E+00  0.45593999997E+02  0.45594000000E+02  0.51100000000E-03 0.  1.
         11   -1    0    0    0    0 -0.00000000000E+00 -0.00000000000E+00 -0.45593999997E+02  0.45594000000E+02  0.51100000000E-03 0. -1.
    9900012    2    1    2    0    0 -0.10289189717E+02  0.15394484121E+02  0.27970580431E+01  0.72461518748E+02  0.69999932851E+02 0.  0.
         12    1    1    2    0    0  0.10289189717E+02 -0.15394484121E+02 -0.27970580431E+01  0.18726481252E+02  0.00000000000E+00 0. -1.
         11    1    3    3    0    0 -0.13077425366E+02 -0.37830839754E+01 -0.17908789995E+02  0.22495678205E+02  0.51100000000E-03 0. -1.
        -11    1    3    3    0    0  0.62490661907E+01  0.16743560544E+02 -0.89654293005E+01  0.19994413488E+02  0.51100000000E-03 0.  1.
        -12    1    3    3    0    0 -0.34608305413E+01  0.24340075532E+01  0.29671277338E+02  0.29971427055E+02  0.00000000000E+00 0.  1.
</event>
<event>
 7    1  0.2886818E-013  0.7246163E+02  0.7816164E-02  0.1226708E+00
        -11   -1    0    0    0    0  0.00000000000E+00  0.00000000000E+00  0.45593999997E+02  0.45594000000E+02  0.51100000000E-03 0.  1.
         11   -1    0    0    0    0 -0.00000000000E+00 -0.00000000000E+00 -0.45593999997E+02  0.45594000000E+02  0.51100000000E-03 0. -1.
    9900012    2    1    2    0    0 -0.11743616453E+01  0.18640815709E+02 -0.13481915486E+01  0.72461634736E+02  0.70000083947E+02 0.  0.
         12    1    1    2    0    0  0.11743616453E+01 -0.18640815709E+02  0.13481915486E+01  0.18726365264E+02  0.00000000000E+00 0. -1.
         11    1    3    3    0    0  0.10995304655E+02 -0.66480768357E+01 -0.28203079951E+02  0.30992053321E+02  0.51100000000E-03 0. -1.
        -11    1    3    3    0    0 -0.18165124825E+00  0.76632013981E+01  0.65443494350E+00  0.76932397727E+01  0.51100000000E-03 0.  1.
        -12    1    3    3    0    0 -0.11988015052E+02  0.17625691146E+02  0.26200453459E+02  0.33776341642E+02  0.00000000000E+00 0.  1.
</event>
<event>
 7    1  0.2886818E-013  0.7246160E+02  0.7816164E-02  0.1226708E+00
        -11   -1    0    0    0    0  0.00000000000E+00  0.00000000000E+00  0.45593999997E+02  0.45594000000E+02  0.51100000000E-03 0.  1.
         11   -1    0    0    0    0 -0.00000000000E+00 -0.00000000000E+00 -0.45593999997E+02  0.45594000000E+02  0.51100000000E-03 0. -1.
    9900012    2    1    2    0    0 -0.93751778585E+01  0.15663233535E+02  0.41769760630E+01  0.72461602223E+02  0.70000041593E+02 0.  0.
         12    1    1    2    0    0  0.93751778585E+01 -0.15663233535E+02 -0.41769760630E+01  0.18726397777E+02  0.00000000000E+00 0. -1.
         11    1    3    3    0    0 -0.11188399156E+02 -0.30840176391E+01  0.14167964110E+02  0.18314547435E+02  0.51100000000E-03 0. -1.
        -11    1    3    3    0    0  0.79411931220E+01  0.21734162106E+02  0.15440260614E+02  0.27817943827E+02  0.51100000000E-03 0.  1.
         12    1    3    3    0    0 -0.61279718244E+01 -0.29869109317E+01 -0.25431248661E+02  0.26329110962E+02  0.00000000000E+00 0. -1.
</event>
<event>
 7    1  0.2886818E-013  0.7246154E+02  0.7816164E-02  0.1226708E+00
        -11   -1    0    0    0    0  0.00000000000E+00  0.00000000000E+00  0.45593999997E+02  0.45594000000E+02  0.51100000000E-03 0. -1.
         11   -1    0    0    0    0 -0.00000000000E+00 -0.00000000000E+00 -0.45593999997E+02  0.45594000000E+02  0.51100000000E-03 0.  1.
    9900012    2    1    2    0    0  0.45045815604E+01  0.10604246944E+02 -0.14762760202E+02  0.72461537518E+02  0.69999957303E+02 0.  0.
         12    1    1    2    0    0 -0.45045815604E+01 -0.10604246944E+02  0.14762760202E+02  0.18726462482E+02  0.00000000000E+00 0. -1.
         11    1    3    3    0    0  0.30274224382E+02 -0.32452693931E+01 -0.32294354014E+01  0.30618453401E+02  0.51100000000E-03 0. -1.
        -11    1    3    3    0    0  0.53880121143E+01  0.46724520490E+01 -0.50042065295E+01  0.87123226493E+01  0.51100000000E-03 0.  1.
         12    1    3    3    0    0 -0.31157654936E+02  0.91770642885E+01 -0.65291182714E+01  0.33130761468E+02  0.00000000000E+00 0. -1.
</event>
<event>
 7    1  0.2886818E-013  0.7246154E+02  0.7816164E-02  0.1226708E+00
        -11   -1    0    0    0    0  0.00000000000E+00  0.00000000000E+00  0.45593999997E+02  0.45594000000E+02  0.51100000000E-03 0. -1.
         11   -1    0    0    0    0 -0.00000000000E+00 -0.00000000000E+00 -0.45593999997E+02  0.45594000000E+02  0.51100000000E-03 0.  1.
    9900012    2    1    2    0    0 -0.14369377038E+02 -0.81790765204E+01  0.87922769941E+01  0.72461536802E+02  0.69999956369E+02 0.  0.
         12    1    1    2    0    0  0.14369377038E+02  0.81790765204E+01 -0.87922769941E+01  0.18726463198E+02  0.00000000000E+00 0. -1.
         11    1    3    3    0    0 -0.27311727488E+02  0.17050300085E+02 -0.81858488122E+01  0.33221247905E+02  0.51100000000E-03 0. -1.
        -11    1    3    3    0    0 -0.74030231927E+00 -0.16316639256E+01  0.11219237389E+02  0.11361411116E+02  0.51100000000E-03 0.  1.
        -12    1    3    3    0    0  0.13682652769E+02 -0.23597712679E+02  0.57588884172E+01  0.27878877781E+02  0.00000000000E+00 0.  1.
</event>
<event>
 7    1  0.2886818E-013  0.7246159E+02  0.7816164E-02  0.1226708E+00
        -11   -1    0    0    0    0  0.00000000000E+00  0.00000000000E+00  0.45593999997E+02  0.45594000000E+02  0.51100000000E-03 0.  1.
         11   -1    0    0    0    0 -0.00000000000E+00 -0.00000000000E+00 -0.45593999997E+02  0.45594000000E+02  0.51100000000E-03 0. -1.
    9900012    2    1    2    0    0 -0.12078010990E+02 -0.16306374775E+01  0.14217631379E+02  0.72461591640E+02  0.70000027807E+02 0.  0.
         12    1    1    2    0    0  0.12078010990E+02  0.16306374775E+01 -0.14217631379E+02  0.18726408360E+02  0.00000000000E+00 0. -1.
         11    1    3    3    0    0 -0.13071060748E+02  0.19136391208E+02  0.17282773799E+01  0.23238783112E+02  0.51100000000E-03 0. -1.
        -11    1    3    3    0    0 -0.19158185654E+02 -0.23202906798E+01  0.28259264905E+00  0.19300250911E+02  0.51100000000E-03 0.  1.
         12    1    3    3    0    0  0.20151235412E+02 -0.18446738006E+02  0.12206761350E+02  0.29922557617E+02  0.00000000000E+00 0. -1.
</event>
<event>
 7    1  0.2886818E-013  0.7246159E+02  0.7816164E-02  0.1226708E+00
        -11   -1    0    0    0    0  0.00000000000E+00  0.00000000000E+00  0.45593999997E+02  0.45594000000E+02  0.51100000000E-03 0.  1.
         11   -1    0    0    0    0 -0.00000000000E+00 -0.00000000000E+00 -0.45593999997E+02  0.45594000000E+02  0.51100000000E-03 0. -1.
    9900012    2    1    2    0    0 -0.53497446217E+01 -0.14733460036E+02 -0.10246160743E+02  0.72461590250E+02  0.70000025995E+02 0.  0.
         12    1    1    2    0    0  0.53497446217E+01  0.14733460036E+02  0.10246160743E+02  0.18726409750E+02  0.00000000000E+00 0. -1.
         11    1    3    3    0    0  0.10994312124E+02  0.46582254585E+01 -0.17772971468E+02  0.21411503416E+02  0.51100000000E-03 0. -1.
        -11    1    3    3    0    0  0.59739533473E-01 -0.16659456751E+02 -0.15426958253E+02  0.22705332176E+02  0.51100000000E-03 0.  1.
        -12    1    3    3    0    0 -0.16403796279E+02 -0.27322287442E+01  0.22953768977E+02  0.28344754657E+02  0.00000000000E+00 0.  1.
</event>
<event>
 7    1  0.2886818E-013  0.7246159E+02  0.7816164E-02  0.1226708E+00
        -11   -1    0    0    0    0  0.00000000000E+00  0.00000000000E+00  0.45593999997E+02  0.45594000000E+02  0.51100000000E-03 0. -1.
         11   -1    0    0    0    0 -0.00000000000E+00 -0.00000000000E+00 -0.45593999997E+02  0.45594000000E+02  0.51100000000E-03 0.  1.
    9900012    2    1    2    0    0 -0.16648222566E+02  0.70912387392E+01 -0.48196820924E+01  0.72461593059E+02  0.70000029655E+02 0.  0.
         12    1    1    2    0    0  0.16648222566E+02 -0.70912387392E+01  0.48196820924E+01  0.18726406941E+02  0.00000000000E+00 0. -1.
         11    1    3    3    0    0 -0.35978097052E+02  0.10503507740E+02  0.11302178941E+02  0.39146984448E+02  0.51100000000E-03 0. -1.
        -11    1    3    3    0    0  0.18227387868E+01  0.49540860043E+00  0.51521046183E+01  0.54874391683E+01  0.51100000000E-03 0.  1.
        -12    1    3    3    0    0  0.17507135699E+02 -0.39076776017E+01 -0.21273965652E+02  0.27827169442E+02  0.00000000000E+00 0.  1.
</event>
<event>
 7    1  0.2886818E-013  0.7246158E+02  0.7816164E-02  0.1226708E+00
        -11   -1    0    0    0    0  0.00000000000E+00  0.00000000000E+00  0.45593999997E+02  0.45594000000E+02  0.51100000000E-03 0. -1.
         11   -1    0    0    0    0 -0.00000000000E+00 -0.00000000000E+00 -0.45593999997E+02  0.45594000000E+02  0.51100000000E-03 0.  1.
    9900012    2    1    2    0    0  0.13116859578E+02  0.12715747699E+02 -0.41153986157E+01  0.72461581482E+02  0.70000014574E+02 0.  0.
         12    1    1    2    0    0 -0.13116859578E+02 -0.12715747699E+02  0.41153986157E+01  0.18726418518E+02  0.00000000000E+00 0. -1.
         11    1    3    3    0    0 -0.48442378829E+01 -0.17950346225E+02  0.98412655966E+01  0.21036446445E+02  0.51100000000E-03 0. -1.
        -11    1    3    3    0    0 -0.69229835598E+01  0.15360600347E+01 -0.10884286903E+02  0.12990569019E+02  0.51100000000E-03 0.  1.
        -12    1    3    3    0    0  0.24884081021E+02  0.29130033889E+02 -0.30723773096E+01  0.38434566018E+02  0.00000000000E+00 0.  1.
</event>
<event>
 7    1  0.2886818E-013  0.7246157E+02  0.7816164E-02  0.1226708E+00
        -11   -1    0    0    0    0  0.00000000000E+00  0.00000000000E+00  0.45593999997E+02  0.45594000000E+02  0.51100000000E-03 0. -1.
         11   -1    0    0    0    0 -0.00000000000E+00 -0.00000000000E+00 -0.45593999997E+02  0.45594000000E+02  0.51100000000E-03 0.  1.
    9900012    2    1    2    0    0  0.97502710509E+01  0.15747266820E+02  0.27631660753E+01  0.72461567221E+02  0.69999995996E+02 0.  0.
         12    1    1    2    0    0 -0.97502710509E+01 -0.15747266820E+02 -0.27631660753E+01  0.18726432779E+02  0.00000000000E+00 0. -1.
         11    1    3    3    0    0  0.94318626276E-01  0.60453260400E+01  0.21602210626E+02  0.22432350905E+02  0.51100000000E-03 0. -1.
        -11    1    3    3    0    0  0.14798221752E+02  0.17898056520E+02  0.54755225027E+01  0.23860199940E+02  0.51100000000E-03 0.  1.
        -12    1    3    3    0    0 -0.51422693277E+01 -0.81961157401E+01 -0.24314567053E+02  0.26169016376E+02  0.00000000000E+00 0.  1.
</event>
<event>
 7    1  0.2886818E-013  0.7246157E+02  0.7816164E-02  0.1226708E+00
        -11   -1    0    0    0    0  0.00000000000E+00  0.00000000000E+00  0.45593999997E+02  0.45594000000E+02  0.51100000000E-03 0. -1.
         11   -1    0    0    0    0 -0.00000000000E+00 -0.00000000000E+00 -0.45593999997E+02  0.45594000000E+02  0.51100000000E-03 0.  1.
    9900012    2    1    2    0    0  0.83424062450E+01  0.55227022119E+01 -0.15829815863E+02  0.72461573434E+02  0.70000004090E+02 0.  0.
         12    1    1    2    0    0 -0.83424062450E+01 -0.55227022119E+01  0.15829815863E+02  0.18726426566E+02  0.00000000000E+00 0. -1.
         11    1    3    3    0    0 -0.94005821788E+01 -0.12712332164E+00  0.11447480928E+02  0.14813234808E+02  0.51100000000E-03 0. -1.
        -11    1    3    3    0    0 -0.15316776937E+02  0.79903958129E+01 -0.61165583809E+01  0.18326548166E+02  0.51100000000E-03 0.  1.
        -12    1    3    3    0    0  0.33059765361E+02 -0.23405702794E+01 -0.21160738410E+02  0.39321790460E+02  0.00000000000E+00 0.  1.
</event>
<event>
 7    1  0.2886818E-013  0.7246169E+02  0.7816164E-02  0.1226708E+00
        -11   -1    0    0    0    0  0.00000000000E+00  0.00000000000E+00  0.45593999997E+02  0.45594000000E+02  0.51100000000E-03 0.  1.
         11   -1    0    0    0    0 -0.00000000000E+00 -0.00000000000E+00 -0.45593999997E+02  0.45594000000E+02  0.51100000000E-03 0. -1.
    9900012    2    1    2    0    0 -0.73270753795E+01  0.17016196432E+02  0.27272326822E+01  0.72461687690E+02  0.70000152930E+02 0.  0.
         12    1    1    2    0    0  0.73270753795E+01 -0.17016196432E+02 -0.27272326822E+01  0.18726312310E+02  0.00000000000E+00 0. -1.
         11    1    3    3    0    0  0.66793388619E+00 -0.21101677480E+01  0.43450173072E+01  0.48762812943E+01  0.51100000000E-03 0. -1.
        -11    1    3    3    0    0 -0.33633541415E+02 -0.26468489547E+01 -0.33566092782E+01  0.33904096265E+02  0.51100000000E-03 0.  1.
         12    1    3    3    0    0  0.25638532149E+02  0.21773213134E+02  0.17388246533E+01  0.33681310131E+02  0.00000000000E+00 0. -1.
</event>
<event>
 7    1  0.2886818E-013  0.7246159E+02  0.7816164E-02  0.1226708E+00
        -11   -1    0    0    0    0  0.00000000000E+00  0.00000000000E+00  0.45593999997E+02  0.45594000000E+02  0.51100000000E-03 0.  1.
         11   -1    0    0    0    0 -0.00000000000E+00 -0.00000000000E+00 -0.45593999997E+02  0.45594000000E+02  0.51100000000E-03 0. -1.
    9900012    2    1    2    0    0  0.20475191408E+01 -0.14930898508E+02 -0.11115505341E+02  0.72461587534E+02  0.70000022457E+02 0.  0.
         12    1    1    2    0    0 -0.20475191408E+01  0.14930898508E+02  0.11115505341E+02  0.18726412466E+02  0.00000000000E+00 0. -1.
         11    1    3    3    0    0 -0.11403185268E+02 -0.42458604854E+01 -0.16595091683E+02  0.20578071672E+02  0.51100000000E-03 0. -1.
        -11    1    3    3    0    0 -0.17695658686E+02 -0.12857581172E+01  0.75545740463E+01  0.19283700360E+02  0.51100000000E-03 0.  1.
        -12    1    3    3    0    0  0.31146363095E+02 -0.93992799050E+01 -0.20749877043E+01  0.32599815502E+02  0.00000000000E+00 0.  1.
</event>
<event>
 7    1  0.2886818E-013  0.7246157E+02  0.7816164E-02  0.1226708E+00
        -11   -1    0    0    0    0  0.00000000000E+00  0.00000000000E+00  0.45593999997E+02  0.45594000000E+02  0.51100000000E-03 0. -1.
         11   -1    0    0    0    0 -0.00000000000E+00 -0.00000000000E+00 -0.45593999997E+02  0.45594000000E+02  0.51100000000E-03 0.  1.
    9900012    2    1    2    0    0  0.17364897335E+02  0.69967954827E+01  0.42922050659E+00  0.72461573840E+02  0.70000004619E+02 0.  0.
         12    1    1    2    0    0 -0.17364897335E+02 -0.69967954827E+01 -0.42922050659E+00  0.18726426160E+02  0.00000000000E+00 0. -1.
         11    1    3    3    0    0 -0.97312087329E+01 -0.14117570812E+02 -0.35496415582E+01  0.17510059522E+02  0.51100000000E-03 0. -1.
        -11    1    3    3    0    0  0.23100998170E-01  0.13790736633E+02 -0.15543772069E+02  0.20779648720E+02  0.51100000000E-03 0.  1.
        -12    1    3    3    0    0  0.27073005069E+02  0.73236296611E+01  0.19522634134E+02  0.34171865598E+02  0.00000000000E+00 0.  1.
</event>
<event>
 7    1  0.2886818E-013  0.7246130E+02  0.7816164E-02  0.1226709E+00
        -11   -1    0    0    0    0  0.00000000000E+00  0.00000000000E+00  0.45593999997E+02  0.45594000000E+02  0.51100000000E-03 0.  1.
         11   -1    0    0    0    0 -0.00000000000E+00 -0.00000000000E+00 -0.45593999997E+02  0.45594000000E+02  0.51100000000E-03 0. -1.
    9900012    2    1    2    0    0 -0.84948160040E+01 -0.12589214902E+02  0.10956232076E+02  0.72461301089E+02  0.69999649309E+02 0.  0.
         12    1    1    2    0    0  0.84948160040E+01  0.12589214902E+02 -0.10956232076E+02  0.18726698911E+02  0.00000000000E+00 0. -1.
         11    1    3    3    0    0  0.46969993177E+01 -0.32947477302E+01 -0.20793877967E+02  0.21570872174E+02  0.51100000000E-03 0. -1.
        -11    1    3    3    0    0 -0.70577663795E+01  0.12638166884E+02  0.40522409948E+01  0.15031832417E+02  0.51100000000E-03 0.  1.
         12    1    3    3    0    0 -0.61340489423E+01 -0.21932634056E+02  0.27697869047E+02  0.35858596499E+02  0.00000000000E+00 0. -1.
</event>
<event>
 7    1  0.2886818E-013  0.7246164E+02  0.7816164E-02  0.1226708E+00
        -11   -1    0    0    0    0  0.00000000000E+00  0.00000000000E+00  0.45593999997E+02  0.45594000000E+02  0.51100000000E-03 0.  1.
         11   -1    0    0    0    0 -0.00000000000E+00 -0.00000000000E+00 -0.45593999997E+02  0.45594000000E+02  0.51100000000E-03 0. -1.
    9900012    2    1    2    0    0  0.14633069541E+02 -0.28525868225E+01  0.11331934413E+02  0.72461635876E+02  0.70000085432E+02 0.  0.
         12    1    1    2    0    0 -0.14633069541E+02  0.28525868225E+01 -0.11331934413E+02  0.18726364124E+02  0.00000000000E+00 0. -1.
         11    1    3    3    0    0 -0.29152049962E+01  0.75041969459E+01  0.47828196847E+01  0.93641206940E+01  0.51100000000E-03 0. -1.
        -11    1    3    3    0    0  0.22167251658E+02  0.64849154129E+01  0.27441554314E+02  0.35867535145E+02  0.51100000000E-03 0.  1.
         12    1    3    3    0    0 -0.46189771207E+01 -0.16841699181E+02 -0.20892439586E+02  0.27229980037E+02  0.00000000000E+00 0. -1.
</event>
<event>
 7    1  0.2886818E-013  0.7246160E+02  0.7816164E-02  0.1226708E+00
        -11   -1    0    0    0    0  0.00000000000E+00  0.00000000000E+00  0.45593999997E+02  0.45594000000E+02  0.51100000000E-03 0.  1.
         11   -1    0    0    0    0 -0.00000000000E+00 -0.00000000000E+00 -0.45593999997E+02  0.45594000000E+02  0.51100000000E-03 0. -1.
    9900012    2    1    2    0    0 -0.38820025349E+01  0.18290953681E+02  0.10241835489E+01  0.72461604667E+02  0.70000044776E+02 0.  0.
         12    1    1    2    0    0  0.38820025349E+01 -0.18290953681E+02 -0.10241835489E+01  0.18726395333E+02  0.00000000000E+00 0. -1.
         11    1    3    3    0    0 -0.41205738307E+01 -0.14199854128E+02 -0.13188966368E+01  0.14844341499E+02  0.51100000000E-03 0. -1.
        -11    1    3    3    0    0 -0.44171094277E+01  0.34893925124E+01 -0.19958729329E+02  0.20737347769E+02  0.51100000000E-03 0.  1.
        -12    1    3    3    0    0  0.46556807235E+01  0.29001415296E+02  0.22301809515E+02  0.36879915399E+02  0.00000000000E+00 0.  1.
</event>
<event>
 7    1  0.2886818E-013  0.7246155E+02  0.7816164E-02  0.1226708E+00
        -11   -1    0    0    0    0  0.00000000000E+00  0.00000000000E+00  0.45593999997E+02  0.45594000000E+02  0.51100000000E-03 0. -1.
         11   -1    0    0    0    0 -0.00000000000E+00 -0.00000000000E+00 -0.45593999997E+02  0.45594000000E+02  0.51100000000E-03 0.  1.
    9900012    2    1    2    0    0  0.11174139674E+02  0.66845501041E+01 -0.13458655496E+02  0.72461547712E+02  0.69999970582E+02 0.  0.
         12    1    1    2    0    0 -0.11174139674E+02 -0.66845501041E+01  0.13458655496E+02  0.18726452288E+02  0.00000000000E+00 0. -1.
         11    1    3    3    0    0 -0.67563417813E+01 -0.75376293880E+01  0.11167337157E+02  0.15072273568E+02  0.51100000000E-03 0. -1.
        -11    1    3    3    0    0 -0.61070320149E+01 -0.34015824208E+01 -0.26614265753E+02  0.27517008283E+02  0.51100000000E-03 0.  1.
        -12    1    3    3    0    0  0.24037513470E+02  0.17623761913E+02  0.19882731006E+01  0.29872265862E+02  0.00000000000E+00 0.  1.
</event>
<event>
 7    1  0.2886818E-013  0.7246158E+02  0.7816164E-02  0.1226708E+00
        -11   -1    0    0    0    0  0.00000000000E+00  0.00000000000E+00  0.45593999997E+02  0.45594000000E+02  0.51100000000E-03 0.  1.
         11   -1    0    0    0    0 -0.00000000000E+00 -0.00000000000E+00 -0.45593999997E+02  0.45594000000E+02  0.51100000000E-03 0. -1.
    9900012    2    1    2    0    0  0.37297989730E+01 -0.14393101795E+02  0.11384465088E+02  0.72461579493E+02  0.70000011983E+02 0.  0.
         12    1    1    2    0    0 -0.37297989730E+01  0.14393101795E+02 -0.11384465088E+02  0.18726420507E+02  0.00000000000E+00 0. -1.
         11    1    3    3    0    0 -0.54882248401E+01  0.34180622579E+01  0.42406978411E+01  0.77322234794E+01  0.51100000000E-03 0. -1.
        -11    1    3    3    0    0 -0.22928919301E+02 -0.22102446052E+02  0.22076358543E+01  0.31923770424E+02  0.51100000000E-03 0.  1.
         12    1    3    3    0    0  0.32146943114E+02  0.42912819988E+01  0.49361313925E+01  0.32805585590E+02  0.00000000000E+00 0. -1.
</event>
<event>
 7    1  0.2886818E-013  0.7246159E+02  0.7816164E-02  0.1226708E+00
        -11   -1    0    0    0    0  0.00000000000E+00  0.00000000000E+00  0.45593999997E+02  0.45594000000E+02  0.51100000000E-03 0. -1.
         11   -1    0    0    0    0 -0.00000000000E+00 -0.00000000000E+00 -0.45593999997E+02  0.45594000000E+02  0.51100000000E-03 0.  1.
    9900012    2    1    2    0    0  0.57956061716E+01 -0.16265525376E+02 -0.72471999219E+01  0.72461594222E+02  0.70000031170E+02 0.  0.
         12    1    1    2    0    0 -0.57956061716E+01  0.16265525376E+02  0.72471999219E+01  0.18726405778E+02  0.00000000000E+00 0. -1.
         11    1    3    3    0    0  0.31025334269E+00  0.23890326862E+02 -0.73472797646E+00  0.23903635710E+02  0.51100000000E-03 0. -1.
        -11    1    3    3    0    0 -0.86013490297E+01 -0.53420182177E+01  0.12690948955E+01  0.10204458138E+02  0.51100000000E-03 0.  1.
        -12    1    3    3    0    0  0.14086701859E+02 -0.34813834020E+02 -0.77815668410E+01  0.38353500374E+02  0.00000000000E+00 0.  1.
</event>
<event>
 7    1  0.2886818E-013  0.7246158E+02  0.7816164E-02  0.1226708E+00
        -11   -1    0    0    0    0  0.00000000000E+00  0.00000000000E+00  0.45593999997E+02  0.45594000000E+02  0.51100000000E-03 0. -1.
         11   -1    0    0    0    0 -0.00000000000E+00 -0.00000000000E+00 -0.45593999997E+02  0.45594000000E+02  0.51100000000E-03 0.  1.
    9900012    2    1    2    0    0  0.54690078887E+01  0.44563368883E+00 -0.17904472176E+02  0.72461581214E+02  0.70000014225E+02 0.  0.
         12    1    1    2    0    0 -0.54690078887E+01 -0.44563368883E+00  0.17904472176E+02  0.18726418786E+02  0.00000000000E+00 0. -1.
         11    1    3    3    0    0  0.98096335495E+01  0.13861864482E+02  0.10339997820E+02  0.19882045983E+02  0.51100000000E-03 0. -1.
        -11    1    3    3    0    0  0.70658843810E+01  0.13432668283E+02 -0.96079620518E+01  0.17963191096E+02  0.51100000000E-03 0.  1.
         12    1    3    3    0    0 -0.11406510042E+02 -0.26848899076E+02 -0.18636507943E+02  0.34616344135E+02  0.00000000000E+00 0. -1.
</event>
<event>
 7    1  0.2886818E-013  0.7246158E+02  0.7816164E-02  0.1226708E+00
        -11   -1    0    0    0    0  0.00000000000E+00  0.00000000000E+00  0.45593999997E+02  0.45594000000E+02  0.51100000000E-03 0. -1.
         11   -1    0    0    0    0 -0.00000000000E+00 -0.00000000000E+00 -0.45593999997E+02  0.45594000000E+02  0.51100000000E-03 0.  1.
    9900012    2    1    2    0    0 -0.27263479694E+01  0.15615064759E+02 -0.99707369369E+01  0.72461579741E+02  0.70000012305E+02 0.  0.
         12    1    1    2    0    0  0.27263479694E+01 -0.15615064759E+02  0.99707369369E+01  0.18726420259E+02  0.00000000000E+00 0. -1.
         11    1    3    3    0    0  0.13648702709E+01 -0.13108415573E+02  0.82771209146E+00  0.13205246581E+02  0.51100000000E-03 0. -1.
        -11    1    3    3    0    0  0.17278549623E+01 -0.69125647719E+01 -0.20636584799E+02  0.21832033046E+02  0.51100000000E-03 0.  1.
         12    1    3    3    0    0 -0.58190732025E+01  0.35636045104E+02  0.98381357703E+01  0.37424300114E+02  0.00000000000E+00 0. -1.
</event>
<event>
 7    1  0.2886818E-013  0.7246157E+02  0.7816164E-02  0.1226708E+00
        -11   -1    0    0    0    0  0.00000000000E+00  0.00000000000E+00  0.45593999997E+02  0.45594000000E+02  0.51100000000E-03 0. -1.
         11   -1    0    0    0    0 -0.00000000000E+00 -0.00000000000E+00 -0.45593999997E+02  0.45594000000E+02  0.51100000000E-03 0.  1.
    9900012    2    1    2    0    0  0.15442711882E+02  0.62638050505E+01 -0.85420528844E+01  0.72461567573E+02  0.69999996454E+02 0.  0.
         12    1    1    2    0    0 -0.15442711882E+02 -0.62638050505E+01  0.85420528844E+01  0.18726432427E+02  0.00000000000E+00 0. -1.
         11    1    3    3    0    0  0.21957362035E+02  0.24613881042E+02  0.93014625618E+01  0.34270776086E+02  0.51100000000E-03 0. -1.
        -11    1    3    3    0    0 -0.50328032132E+00  0.53883197413E-02 -0.18843452785E+02  0.18850173295E+02  0.51100000000E-03 0.  1.
        -12    1    3    3    0    0 -0.60113698320E+01 -0.18355464311E+02  0.99993733927E+00  0.19340618191E+02  0.00000000000E+00 0.  1.
</event>
<event>
 7    1  0.2886818E-013  0.7246135E+02  0.7816164E-02  0.1226709E+00
        -11   -1    0    0    0    0  0.00000000000E+00  0.00000000000E+00  0.45593999997E+02  0.45594000000E+02  0.51100000000E-03 0. -1.
         11   -1    0    0    0    0 -0.00000000000E+00 -0.00000000000E+00 -0.45593999997E+02  0.45594000000E+02  0.51100000000E-03 0.  1.
    9900012    2    1    2    0    0  0.14853290688E+02 -0.94257366974E+01 -0.64204833584E+01  0.72461351525E+02  0.69999715012E+02 0.  0.
         12    1    1    2    0    0 -0.14853290688E+02  0.94257366974E+01  0.64204833584E+01  0.18726648475E+02  0.00000000000E+00 0. -1.
         11    1    3    3    0    0 -0.36528716236E+01  0.65954528270E+00  0.74180932027E+01  0.82949730623E+01  0.51100000000E-03 0. -1.
        -11    1    3    3    0    0 -0.20323074355E+02 -0.11969973077E+02 -0.76903655242E+01  0.24808251226E+02  0.51100000000E-03 0.  1.
         12    1    3    3    0    0  0.38829236667E+02  0.18846910965E+01 -0.61482110369E+01  0.39358127237E+02  0.00000000000E+00 0. -1.
</event>
<event>
 7    1  0.2886818E-013  0.7246141E+02  0.7816164E-02  0.1226708E+00
        -11   -1    0    0    0    0  0.00000000000E+00  0.00000000000E+00  0.45593999997E+02  0.45594000000E+02  0.51100000000E-03 0.  1.
         11   -1    0    0    0    0 -0.00000000000E+00 -0.00000000000E+00 -0.45593999997E+02  0.45594000000E+02  0.51100000000E-03 0. -1.
    9900012    2    1    2    0    0 -0.94825004857E+01 -0.15020420392E+00  0.16147593622E+02  0.72461410440E+02  0.69999791760E+02 0.  0.
         12    1    1    2    0    0  0.94825004857E+01  0.15020420392E+00 -0.16147593622E+02  0.18726589560E+02  0.00000000000E+00 0. -1.
         11    1    3    3    0    0  0.10503532808E+01 -0.45677870851E+01 -0.93986933038E+01  0.10502540500E+02  0.51100000000E-03 0. -1.
        -11    1    3    3    0    0 -0.21659090452E+02 -0.15760310504E+02 -0.10027730338E+01  0.26805020806E+02  0.51100000000E-03 0.  1.
        -12    1    3    3    0    0  0.11126236685E+02  0.20177893386E+02  0.26549059959E+02  0.35153849135E+02  0.00000000000E+00 0.  1.
</event>
<event>
 7    1  0.2886818E-013  0.7246154E+02  0.7816164E-02  0.1226708E+00
        -11   -1    0    0    0    0  0.00000000000E+00  0.00000000000E+00  0.45593999997E+02  0.45594000000E+02  0.51100000000E-03 0. -1.
         11   -1    0    0    0    0 -0.00000000000E+00 -0.00000000000E+00 -0.45593999997E+02  0.45594000000E+02  0.51100000000E-03 0.  1.
    9900012    2    1    2    0    0 -0.24418644844E+01 -0.15691008570E+02 -0.99252151952E+01  0.72461538808E+02  0.69999958983E+02 0.  0.
         12    1    1    2    0    0  0.24418644844E+01  0.15691008570E+02  0.99252151952E+01  0.18726461192E+02  0.00000000000E+00 0. -1.
         11    1    3    3    0    0 -0.12267762819E+02 -0.17483732441E+02 -0.12744497841E+02  0.24871693351E+02  0.51100000000E-03 0. -1.
        -11    1    3    3    0    0 -0.18555230372E+01 -0.21121923028E+02  0.49756696408E+01  0.21779253587E+02  0.51100000000E-03 0.  1.
        -12    1    3    3    0    0  0.11681421372E+02  0.22914646899E+02 -0.21563869945E+01  0.25810591870E+02  0.00000000000E+00 0.  1.
</event>
<event>
 7    1  0.2886818E-013  0.7246157E+02  0.7816164E-02  0.1226708E+00
        -11   -1    0    0    0    0  0.00000000000E+00  0.00000000000E+00  0.45593999997E+02  0.45594000000E+02  0.51100000000E-03 0. -1.
         11   -1    0    0    0    0 -0.00000000000E+00 -0.00000000000E+00 -0.45593999997E+02  0.45594000000E+02  0.51100000000E-03 0.  1.
    9900012    2    1    2    0    0 -0.17675652511E+01 -0.63897839910E+01 -0.17513576793E+02  0.72461574862E+02  0.70000005951E+02 0.  0.
         12    1    1    2    0    0  0.17675652511E+01  0.63897839910E+01  0.17513576793E+02  0.18726425138E+02  0.00000000000E+00 0. -1.
         11    1    3    3    0    0 -0.12574639822E+02  0.24348101085E+01 -0.33399948719E+02  0.35771587071E+02  0.51100000000E-03 0. -1.
        -11    1    3    3    0    0  0.48736983453E+01 -0.52123135036E+01 -0.86359882065E+01  0.11202742530E+02  0.51100000000E-03 0.  1.
         12    1    3    3    0    0  0.59333762261E+01 -0.36122805959E+01  0.24522360133E+02  0.25487245261E+02  0.00000000000E+00 0. -1.
</event>
<event>
 7    1  0.2886818E-013  0.7246157E+02  0.7816164E-02  0.1226708E+00
        -11   -1    0    0    0    0  0.00000000000E+00  0.00000000000E+00  0.45593999997E+02  0.45594000000E+02  0.51100000000E-03 0. -1.
         11   -1    0    0    0    0 -0.00000000000E+00 -0.00000000000E+00 -0.45593999997E+02  0.45594000000E+02  0.51100000000E-03 0.  1.
    9900012    2    1    2    0    0 -0.10524465253E+02 -0.87012609558E+01 -0.12814170457E+02  0.72461567462E+02  0.69999996311E+02 0.  0.
         12    1    1    2    0    0  0.10524465253E+02  0.87012609558E+01  0.12814170457E+02  0.18726432538E+02  0.00000000000E+00 0. -1.
         11    1    3    3    0    0  0.12780978325E+01  0.28646768232E+01 -0.32628820547E+02  0.32779259264E+02  0.51100000000E-03 0. -1.
        -11    1    3    3    0    0 -0.36440249074E+01 -0.51723039167E-02 -0.78246863929E+01  0.86316082909E+01  0.51100000000E-03 0.  1.
         12    1    3    3    0    0 -0.81585381782E+01 -0.11560765475E+02  0.27639336482E+02  0.31050699908E+02  0.00000000000E+00 0. -1.
</event>
<event>
 7    1  0.2886818E-013  0.7246159E+02  0.7816164E-02  0.1226708E+00
        -11   -1    0    0    0    0  0.00000000000E+00  0.00000000000E+00  0.45593999997E+02  0.45594000000E+02  0.51100000000E-03 0.  1.
         11   -1    0    0    0    0 -0.00000000000E+00 -0.00000000000E+00 -0.45593999997E+02  0.45594000000E+02  0.51100000000E-03 0. -1.
    9900012    2    1    2    0    0 -0.87281992370E+01  0.17878967624E+01  0.16471200653E+02  0.72461588499E+02  0.70000023715E+02 0.  0.
         12    1    1    2    0    0  0.87281992370E+01 -0.17878967624E+01 -0.16471200653E+02  0.18726411501E+02  0.00000000000E+00 0. -1.
         11    1    3    3    0    0 -0.12254685657E+02  0.94341913237E+01  0.21214581491E+01  0.15610312983E+02  0.51100000000E-03 0. -1.
        -11    1    3    3    0    0 -0.22563403922E+02 -0.44072379768E+01  0.19398812094E+02  0.30080639190E+02  0.51100000000E-03 0.  1.
        -12    1    3    3    0    0  0.26089890342E+02 -0.32390565844E+01 -0.50490695901E+01  0.26770636327E+02  0.00000000000E+00 0.  1.
</event>
<event>
 7    1  0.2886818E-013  0.7246159E+02  0.7816164E-02  0.1226708E+00
        -11   -1    0    0    0    0  0.00000000000E+00  0.00000000000E+00  0.45593999997E+02  0.45594000000E+02  0.51100000000E-03 0.  1.
         11   -1    0    0    0    0 -0.00000000000E+00 -0.00000000000E+00 -0.45593999997E+02  0.45594000000E+02  0.51100000000E-03 0. -1.
    9900012    2    1    2    0    0 -0.10455806665E+01  0.18463223026E+02  0.29486604170E+01  0.72461589728E+02  0.70000025316E+02 0.  0.
         12    1    1    2    0    0  0.10455806665E+01 -0.18463223026E+02 -0.29486604170E+01  0.18726410272E+02  0.00000000000E+00 0. -1.
         11    1    3    3    0    0 -0.81479431413E+01  0.14265564369E+01 -0.44958135183E+01  0.94146895941E+01  0.51100000000E-03 0. -1.
        -11    1    3    3    0    0 -0.16141238258E+02  0.21374759024E+02  0.22529318400E+02  0.34999858338E+02  0.51100000000E-03 0.  1.
         12    1    3    3    0    0  0.23243600733E+02 -0.43380924348E+01 -0.15084844465E+02  0.28047041796E+02  0.00000000000E+00 0. -1.
</event>
<event>
 7    1  0.2886818E-013  0.7246170E+02  0.7816164E-02  0.1226708E+00
        -11   -1    0    0    0    0  0.00000000000E+00  0.00000000000E+00  0.45593999997E+02  0.45594000000E+02  0.51100000000E-03 0.  1.
         11   -1    0    0    0    0 -0.00000000000E+00 -0.00000000000E+00 -0.45593999997E+02  0.45594000000E+02  0.51100000000E-03 0. -1.
    9900012    2    1    2    0    0 -0.18109015218E+02  0.86867307040E+00  0.46886372856E+01  0.72461699119E+02  0.70000167818E+02 0.  0.
         12    1    1    2    0    0  0.18109015218E+02 -0.86867307040E+00 -0.46886372856E+01  0.18726300881E+02  0.00000000000E+00 0. -1.
         11    1    3    3    0    0 -0.10974796786E+02  0.16205381638E+02 -0.76335754276E+01  0.21007904050E+02  0.51100000000E-03 0. -1.
        -11    1    3    3    0    0  0.47951570312E+01  0.12504874007E+02  0.16085722601E+02  0.20931217756E+02  0.51100000000E-03 0.  1.
        -12    1    3    3    0    0 -0.11929375463E+02 -0.27841582574E+02 -0.37635098875E+01  0.30522577313E+02  0.00000000000E+00 0.  1.
</event>
<event>
 7    1  0.2886818E-013  0.7246161E+02  0.7816164E-02  0.1226708E+00
        -11   -1    0    0    0    0  0.00000000000E+00  0.00000000000E+00  0.45593999997E+02  0.45594000000E+02  0.51100000000E-03 0.  1.
         11   -1    0    0    0    0 -0.00000000000E+00 -0.00000000000E+00 -0.45593999997E+02  0.45594000000E+02  0.51100000000E-03 0. -1.
    9900012    2    1    2    0    0  0.23863804605E+01 -0.64242522644E+01  0.17427335214E+02  0.72461605752E+02  0.70000046190E+02 0.  0.
         12    1    1    2    0    0 -0.23863804605E+01  0.64242522644E+01 -0.17427335214E+02  0.18726394248E+02  0.00000000000E+00 0. -1.
         11    1    3    3    0    0  0.35072557357E+00  0.59882034731E+01  0.11957867619E+02  0.13378048719E+02  0.51100000000E-03 0. -1.
        -11    1    3    3    0    0 -0.25428710450E+02  0.55301105385E+01  0.22608255037E+01  0.26121117318E+02  0.51100000000E-03 0.  1.
         12    1    3    3    0    0  0.27464365337E+02 -0.17942566276E+02  0.32086420914E+01  0.32962439716E+02  0.00000000000E+00 0. -1.
</event>
<event>
 7    1  0.2886818E-013  0.7246156E+02  0.7816164E-02  0.1226708E+00
        -11   -1    0    0    0    0  0.00000000000E+00  0.00000000000E+00  0.45593999997E+02  0.45594000000E+02  0.51100000000E-03 0.  1.
         11   -1    0    0    0    0 -0.00000000000E+00 -0.00000000000E+00 -0.45593999997E+02  0.45594000000E+02  0.51100000000E-03 0. -1.
    9900012    2    1    2    0    0 -0.40054562749E+01 -0.15891800758E+02 -0.90601622230E+01  0.72461560114E+02  0.69999986738E+02 0.  0.
         12    1    1    2    0    0  0.40054562749E+01  0.15891800758E+02  0.90601622230E+01  0.18726439886E+02  0.00000000000E+00 0. -1.
         11    1    3    3    0    0  0.14259864176E+02 -0.20773792291E+01 -0.58780207774E+01  0.15563108921E+02  0.51100000000E-03 0. -1.
        -11    1    3    3    0    0 -0.17411171460E+01  0.12179463730E+02  0.16323055975E+02  0.20440474121E+02  0.51100000000E-03 0.  1.
         12    1    3    3    0    0 -0.16524203305E+02 -0.25993885259E+02 -0.19505197421E+02  0.36457977071E+02  0.00000000000E+00 0. -1.
</event>
<event>
 7    1  0.2886818E-013  0.7246166E+02  0.7816164E-02  0.1226708E+00
        -11   -1    0    0    0    0  0.00000000000E+00  0.00000000000E+00  0.45593999997E+02  0.45594000000E+02  0.51100000000E-03 0.  1.
         11   -1    0    0    0    0 -0.00000000000E+00 -0.00000000000E+00 -0.45593999997E+02  0.45594000000E+02  0.51100000000E-03 0. -1.
    9900012    2    1    2    0    0 -0.16962083899E+02  0.58611225671E+01 -0.53488949114E+01  0.72461662271E+02  0.70000119817E+02 0.  0.
         12    1    1    2    0    0  0.16962083899E+02 -0.58611225671E+01  0.53488949114E+01  0.18726337729E+02  0.00000000000E+00 0. -1.
         11    1    3    3    0    0 -0.20329992759E+02 -0.98568991343E+01 -0.14295242409E+01  0.22638697091E+02  0.51100000000E-03 0. -1.
        -11    1    3    3    0    0 -0.41501961021E+01  0.81244742726E+00 -0.23622661421E+02  0.23998215171E+02  0.51100000000E-03 0.  1.
        -12    1    3    3    0    0  0.75181049621E+01  0.14905574274E+02  0.19703290751E+02  0.25824750010E+02  0.00000000000E+00 0.  1.
</event>
<event>
 7    1  0.2886818E-013  0.7246161E+02  0.7816164E-02  0.1226708E+00
        -11   -1    0    0    0    0  0.00000000000E+00  0.00000000000E+00  0.45593999997E+02  0.45594000000E+02  0.51100000000E-03 0.  1.
         11   -1    0    0    0    0 -0.00000000000E+00 -0.00000000000E+00 -0.45593999997E+02  0.45594000000E+02  0.51100000000E-03 0. -1.
    9900012    2    1    2    0    0  0.33241687751E+01  0.10119275946E+02  0.15402199117E+02  0.72461612699E+02  0.70000055240E+02 0.  0.
         12    1    1    2    0    0 -0.33241687751E+01 -0.10119275946E+02 -0.15402199117E+02  0.18726387301E+02  0.00000000000E+00 0. -1.
         11    1    3    3    0    0  0.21237067775E+02  0.20612934035E+02 -0.15779525413E+01  0.29637746738E+02  0.51100000000E-03 0. -1.
        -11    1    3    3    0    0  0.92864679638E+01  0.16617160936E+01  0.28806482144E+01  0.98639709050E+01  0.51100000000E-03 0.  1.
        -12    1    3    3    0    0 -0.27199366964E+02 -0.12155374183E+02  0.14099503443E+02  0.32959895056E+02  0.00000000000E+00 0.  1.
</event>
<event>
 7    1  0.2886818E-013  0.7246156E+02  0.7816164E-02  0.1226708E+00
        -11   -1    0    0    0    0  0.00000000000E+00  0.00000000000E+00  0.45593999997E+02  0.45594000000E+02  0.51100000000E-03 0. -1.
         11   -1    0    0    0    0 -0.00000000000E+00 -0.00000000000E+00 -0.45593999997E+02  0.45594000000E+02  0.51100000000E-03 0.  1.
    9900012    2    1    2    0    0 -0.15891100259E+02 -0.73105345813E+01 -0.66864465390E+01  0.72461560118E+02  0.69999986744E+02 0.  0.
         12    1    1    2    0    0  0.15891100259E+02  0.73105345813E+01  0.66864465390E+01  0.18726439882E+02  0.00000000000E+00 0. -1.
         11    1    3    3    0    0 -0.55550420368E+01  0.15654755124E+01  0.62140331483E+01  0.84807672907E+01  0.51100000000E-03 0. -1.
        -11    1    3    3    0    0 -0.18581719837E+02  0.11384061607E+02 -0.29390307714E+02  0.36587803412E+02  0.51100000000E-03 0.  1.
         12    1    3    3    0    0  0.82456616142E+01 -0.20260071701E+02  0.16489828026E+02  0.27392989416E+02  0.00000000000E+00 0. -1.
</event>
<event>
 7    1  0.2886818E-013  0.7246150E+02  0.7816164E-02  0.1226708E+00
        -11   -1    0    0    0    0  0.00000000000E+00  0.00000000000E+00  0.45593999997E+02  0.45594000000E+02  0.51100000000E-03 0.  1.
         11   -1    0    0    0    0 -0.00000000000E+00 -0.00000000000E+00 -0.45593999997E+02  0.45594000000E+02  0.51100000000E-03 0. -1.
    9900012    2    1    2    0    0  0.17049502972E+02 -0.67375933219E+01  0.38211193506E+01  0.72461503573E+02  0.69999913083E+02 0.  0.
         12    1    1    2    0    0 -0.17049502972E+02  0.67375933219E+01 -0.38211193506E+01  0.18726496427E+02  0.00000000000E+00 0. -1.
         11    1    3    3    0    0  0.16018480454E+02 -0.19199523480E+01  0.47098224664E+01  0.16806557084E+02  0.51100000000E-03 0. -1.
        -11    1    3    3    0    0  0.18081071597E+02 -0.98839362394E+01  0.19657907241E+02  0.28478951227E+02  0.51100000000E-03 0.  1.
         12    1    3    3    0    0 -0.17050049079E+02  0.50662952655E+01 -0.20546610357E+02  0.27175995262E+02  0.00000000000E+00 0. -1.
</event>
<event>
 7    1  0.2886818E-013  0.7246155E+02  0.7816164E-02  0.1226708E+00
        -11   -1    0    0    0    0  0.00000000000E+00  0.00000000000E+00  0.45593999997E+02  0.45594000000E+02  0.51100000000E-03 0.  1.
         11   -1    0    0    0    0 -0.00000000000E+00 -0.00000000000E+00 -0.45593999997E+02  0.45594000000E+02  0.51100000000E-03 0. -1.
    9900012    2    1    2    0    0 -0.17981513703E+02 -0.42524867455E+01 -0.30432746000E+01  0.72461548151E+02  0.69999971154E+02 0.  0.
         12    1    1    2    0    0  0.17981513703E+02  0.42524867455E+01  0.30432746000E+01  0.18726451849E+02  0.00000000000E+00 0. -1.
         11    1    3    3    0    0 -0.23054918375E+02  0.10552660669E+02 -0.27376050828E+02  0.37314019720E+02  0.51100000000E-03 0. -1.
        -11    1    3    3    0    0 -0.98290936569E+00 -0.11198134158E+02  0.16092859702E+01  0.11355796803E+02  0.51100000000E-03 0.  1.
        -12    1    3    3    0    0  0.60563140375E+01 -0.36070132566E+01  0.22723490258E+02  0.23791731628E+02  0.00000000000E+00 0.  1.
</event>
<event>
 7    1  0.2886818E-013  0.7246160E+02  0.7816164E-02  0.1226708E+00
        -11   -1    0    0    0    0  0.00000000000E+00  0.00000000000E+00  0.45593999997E+02  0.45594000000E+02  0.51100000000E-03 0. -1.
         11   -1    0    0    0    0 -0.00000000000E+00 -0.00000000000E+00 -0.45593999997E+02  0.45594000000E+02  0.51100000000E-03 0.  1.
    9900012    2    1    2    0    0  0.38373886975E+01 -0.17471136686E+01 -0.18245550468E+02  0.72461599650E+02  0.70000038241E+02 0.  0.
         12    1    1    2    0    0 -0.38373886975E+01  0.17471136686E+01  0.18245550468E+02  0.18726400350E+02  0.00000000000E+00 0. -1.
         11    1    3    3    0    0 -0.11048235168E+02 -0.48178322192E+01  0.18328358821E+02  0.21936356692E+02  0.51100000000E-03 0. -1.
        -11    1    3    3    0    0  0.43996829353E+01 -0.83613450767E+01  0.13565817915E+01  0.95451357162E+01  0.51100000000E-03 0.  1.
        -12    1    3    3    0    0  0.10485940930E+02  0.11432063627E+02 -0.37930491080E+02  0.40980107242E+02  0.00000000000E+00 0.  1.
</event>
<event>
 7    1  0.2886818E-013  0.7246159E+02  0.7816164E-02  0.1226708E+00
        -11   -1    0    0    0    0  0.00000000000E+00  0.00000000000E+00  0.45593999997E+02  0.45594000000E+02  0.51100000000E-03 0.  1.
         11   -1    0    0    0    0 -0.00000000000E+00 -0.00000000000E+00 -0.45593999997E+02  0.45594000000E+02  0.51100000000E-03 0. -1.
    9900012    2    1    2    0    0 -0.11766491463E+02 -0.14300602544E+02  0.27786500821E+01  0.72461589485E+02  0.70000025000E+02 0.  0.
         12    1    1    2    0    0  0.11766491463E+02  0.14300602544E+02 -0.27786500821E+01  0.18726410515E+02  0.00000000000E+00 0. -1.
         11    1    3    3    0    0 -0.10366869138E+01 -0.14792918693E+02 -0.37758171084E+01  0.15302351399E+02  0.51100000000E-03 0. -1.
        -11    1    3    3    0    0 -0.15254915350E+02 -0.21310016291E+01  0.29685755932E+02  0.33443948867E+02  0.51100000000E-03 0.  1.
        -12    1    3    3    0    0  0.45251108006E+01  0.26233177782E+01 -0.23131288742E+02  0.23715289220E+02  0.00000000000E+00 0.  1.
</event>
<event>
 7    1  0.2886818E-013  0.7246156E+02  0.7816164E-02  0.1226708E+00
        -11   -1    0    0    0    0  0.00000000000E+00  0.00000000000E+00  0.45593999997E+02  0.45594000000E+02  0.51100000000E-03 0.  1.
         11   -1    0    0    0    0 -0.00000000000E+00 -0.00000000000E+00 -0.45593999997E+02  0.45594000000E+02  0.51100000000E-03 0. -1.
    9900012    2    1    2    0    0 -0.17707339010E+01  0.11123199099E+02  0.14960570312E+02  0.72461555575E+02  0.69999980825E+02 0.  0.
         12    1    1    2    0    0  0.17707339010E+01 -0.11123199099E+02 -0.14960570312E+02  0.18726444425E+02  0.00000000000E+00 0. -1.
         11    1    3    3    0    0  0.22125771467E+02  0.57340679821E+01 -0.10353150771E+02  0.25092170687E+02  0.51100000000E-03 0. -1.
        -11    1    3    3    0    0 -0.21139720765E+01  0.14761374928E+02  0.16057308798E+02  0.21913562782E+02  0.51100000000E-03 0.  1.
        -12    1    3    3    0    0 -0.21782533292E+02 -0.93722438112E+01  0.92564122851E+01  0.25455822105E+02  0.00000000000E+00 0.  1.
</event>
<event>
 7    1  0.2886818E-013  0.7246157E+02  0.7816164E-02  0.1226708E+00
        -11   -1    0    0    0    0  0.00000000000E+00  0.00000000000E+00  0.45593999997E+02  0.45594000000E+02  0.51100000000E-03 0.  1.
         11   -1    0    0    0    0 -0.00000000000E+00 -0.00000000000E+00 -0.45593999997E+02  0.45594000000E+02  0.51100000000E-03 0. -1.
    9900012    2    1    2    0    0 -0.56968631267E+01 -0.13276517619E+02  0.11914659217E+02  0.72461567509E+02  0.69999996372E+02 0.  0.
         12    1    1    2    0    0  0.56968631267E+01  0.13276517619E+02 -0.11914659217E+02  0.18726432491E+02  0.00000000000E+00 0. -1.
         11    1    3    3    0    0 -0.91859673098E+00  0.17796146234E+02  0.21694801257E+02  0.28075096484E+02  0.51100000000E-03 0. -1.
        -11    1    3    3    0    0  0.10109335355E+02 -0.39133076347E+01  0.24044927903E+01  0.11103793217E+02  0.51100000000E-03 0.  1.
         12    1    3    3    0    0 -0.14887601751E+02 -0.27159356219E+02 -0.12184634831E+02  0.33282677808E+02  0.00000000000E+00 0. -1.
</event>
<event>
 7    1  0.2886818E-013  0.7246154E+02  0.7816164E-02  0.1226708E+00
        -11   -1    0    0    0    0  0.00000000000E+00  0.00000000000E+00  0.45593999997E+02  0.45594000000E+02  0.51100000000E-03 0. -1.
         11   -1    0    0    0    0 -0.00000000000E+00 -0.00000000000E+00 -0.45593999997E+02  0.45594000000E+02  0.51100000000E-03 0.  1.
    9900012    2    1    2    0    0  0.83177203588E+00  0.18697915050E+02 -0.61346746895E+00  0.72461542399E+02  0.69999963661E+02 0.  0.
         12    1    1    2    0    0 -0.83177203588E+00 -0.18697915050E+02  0.61346746895E+00  0.18726457601E+02  0.00000000000E+00 0. -1.
         11    1    3    3    0    0 -0.20681873256E+01  0.30595921920E+02  0.19043896808E+02  0.36097892498E+02  0.51100000000E-03 0. -1.
        -11    1    3    3    0    0 -0.96335718599E+00  0.90779294792E+01 -0.74904738614E+01  0.11808643429E+02  0.51100000000E-03 0.  1.
        -12    1    3    3    0    0  0.38633165475E+01 -0.20975936348E+02 -0.12166890416E+02  0.24555006472E+02  0.00000000000E+00 0.  1.
</event>
<event>
 7    1  0.2886818E-013  0.7246166E+02  0.7816164E-02  0.1226708E+00
        -11   -1    0    0    0    0  0.00000000000E+00  0.00000000000E+00  0.45593999997E+02  0.45594000000E+02  0.51100000000E-03 0.  1.
         11   -1    0    0    0    0 -0.00000000000E+00 -0.00000000000E+00 -0.45593999997E+02  0.45594000000E+02  0.51100000000E-03 0. -1.
    9900012    2    1    2    0    0  0.67862277928E+01 -0.13955280515E+02 -0.10482034736E+02  0.72461660419E+02  0.70000117403E+02 0.  0.
         12    1    1    2    0    0 -0.67862277928E+01  0.13955280515E+02  0.10482034736E+02  0.18726339581E+02  0.00000000000E+00 0. -1.
         11    1    3    3    0    0 -0.66265309051E+01  0.86952611213E+01 -0.10164250251E+02  0.14927506866E+02  0.51100000000E-03 0. -1.
        -11    1    3    3    0    0  0.21262380656E+02 -0.10663817091E+02  0.21079323669E+02  0.31782758104E+02  0.51100000000E-03 0.  1.
         12    1    3    3    0    0 -0.78496219576E+01 -0.11986724546E+02 -0.21397108154E+02  0.25751395449E+02  0.00000000000E+00 0. -1.
</event>
<event>
 7    1  0.2886818E-013  0.7246155E+02  0.7816164E-02  0.1226708E+00
        -11   -1    0    0    0    0  0.00000000000E+00  0.00000000000E+00  0.45593999997E+02  0.45594000000E+02  0.51100000000E-03 0.  1.
         11   -1    0    0    0    0 -0.00000000000E+00 -0.00000000000E+00 -0.45593999997E+02  0.45594000000E+02  0.51100000000E-03 0. -1.
    9900012    2    1    2    0    0  0.13081305344E+02 -0.32749771815E+01  0.12993614121E+02  0.72461547240E+02  0.69999969968E+02 0.  0.
         12    1    1    2    0    0 -0.13081305344E+02  0.32749771815E+01 -0.12993614121E+02  0.18726452760E+02  0.00000000000E+00 0. -1.
         11    1    3    3    0    0  0.19100597368E+02  0.14389607622E+02  0.36247787706E+01  0.24187448165E+02  0.51100000000E-03 0. -1.
        -11    1    3    3    0    0  0.25395724119E+01 -0.35869333944E+00  0.23945603913E+02  0.24082567055E+02  0.51100000000E-03 0.  1.
        -12    1    3    3    0    0 -0.85588644361E+01 -0.17305891464E+02 -0.14576768562E+02  0.24191532021E+02  0.00000000000E+00 0.  1.
</event>
<event>
 7    1  0.2886818E-013  0.7246156E+02  0.7816164E-02  0.1226708E+00
        -11   -1    0    0    0    0  0.00000000000E+00  0.00000000000E+00  0.45593999997E+02  0.45594000000E+02  0.51100000000E-03 0.  1.
         11   -1    0    0    0    0 -0.00000000000E+00 -0.00000000000E+00 -0.45593999997E+02  0.45594000000E+02  0.51100000000E-03 0. -1.
    9900012    2    1    2    0    0 -0.11962558558E+02 -0.66034340333E+01  0.12805136991E+02  0.72461556621E+02  0.69999982188E+02 0.  0.
         12    1    1    2    0    0  0.11962558558E+02  0.66034340333E+01 -0.12805136991E+02  0.18726443379E+02  0.00000000000E+00 0. -1.
         11    1    3    3    0    0 -0.24690716936E+02 -0.40075941135E+00 -0.89837251322E+01  0.26277355812E+02  0.51100000000E-03 0. -1.
        -11    1    3    3    0    0  0.39585962065E+01  0.14466179214E+02  0.14569843051E+00  0.14998735056E+02  0.51100000000E-03 0.  1.
        -12    1    3    3    0    0  0.87695621722E+01 -0.20668853836E+02  0.21643163693E+02  0.31185465753E+02  0.00000000000E+00 0.  1.
</event>
<event>
 7    1  0.2886818E-013  0.7246146E+02  0.7816164E-02  0.1226708E+00
        -11   -1    0    0    0    0  0.00000000000E+00  0.00000000000E+00  0.45593999997E+02  0.45594000000E+02  0.51100000000E-03 0. -1.
         11   -1    0    0    0    0 -0.00000000000E+00 -0.00000000000E+00 -0.45593999997E+02  0.45594000000E+02  0.51100000000E-03 0.  1.
    9900012    2    1    2    0    0  0.14540266104E+02  0.92397310830E+01 -0.73410773928E+01  0.72461457710E+02  0.69999853338E+02 0.  0.
         12    1    1    2    0    0 -0.14540266104E+02 -0.92397310830E+01  0.73410773928E+01  0.18726542290E+02  0.00000000000E+00 0. -1.
         11    1    3    3    0    0  0.90210290893E+01  0.24881601683E+02  0.60949328113E+01  0.27159183979E+02  0.51100000000E-03 0. -1.
        -11    1    3    3    0    0 -0.10283748237E+02  0.91897472858E+01 -0.51841547638E+01  0.14733716227E+02  0.51100000000E-03 0.  1.
         12    1    3    3    0    0  0.15802985251E+02 -0.24831617886E+02 -0.82518554404E+01  0.30568557504E+02  0.00000000000E+00 0. -1.
</event>
<event>
 7    1  0.2886818E-013  0.7246159E+02  0.7816164E-02  0.1226708E+00
        -11   -1    0    0    0    0  0.00000000000E+00  0.00000000000E+00  0.45593999997E+02  0.45594000000E+02  0.51100000000E-03 0. -1.
         11   -1    0    0    0    0 -0.00000000000E+00 -0.00000000000E+00 -0.45593999997E+02  0.45594000000E+02  0.51100000000E-03 0.  1.
    9900012    2    1    2    0    0  0.93411582031E+01 -0.14916912241E+02 -0.63958607886E+01  0.72461587033E+02  0.70000021806E+02 0.  0.
         12    1    1    2    0    0 -0.93411582031E+01  0.14916912241E+02  0.63958607886E+01  0.18726412967E+02  0.00000000000E+00 0. -1.
         11    1    3    3    0    0  0.78618309422E+01  0.21994048450E+02  0.94996323872E+01  0.25214868009E+02  0.51100000000E-03 0. -1.
        -11    1    3    3    0    0  0.28194061593E-01  0.33393716701E+01 -0.40809526780E+01  0.52731748575E+01  0.51100000000E-03 0.  1.
        -12    1    3    3    0    0  0.14511331993E+01 -0.40250332361E+02 -0.11814540498E+02  0.41973544166E+02  0.00000000000E+00 0.  1.
</event>
<event>
 7    1  0.2886818E-013  0.7246167E+02  0.7816164E-02  0.1226708E+00
        -11   -1    0    0    0    0  0.00000000000E+00  0.00000000000E+00  0.45593999997E+02  0.45594000000E+02  0.51100000000E-03 0.  1.
         11   -1    0    0    0    0 -0.00000000000E+00 -0.00000000000E+00 -0.45593999997E+02  0.45594000000E+02  0.51100000000E-03 0. -1.
    9900012    2    1    2    0    0 -0.89679659784E+01  0.15589402571E+02  0.52174217473E+01  0.72461671583E+02  0.70000131947E+02 0.  0.
         12    1    1    2    0    0  0.89679659784E+01 -0.15589402571E+02 -0.52174217473E+01  0.18726328417E+02  0.00000000000E+00 0. -1.
         11    1    3    3    0    0 -0.21980459058E+02  0.28929361660E+01 -0.17403146732E+02  0.28184733039E+02  0.51100000000E-03 0. -1.
        -11    1    3    3    0    0  0.12849097147E+01 -0.61527714845E+01 -0.55674423798E+01  0.83966662926E+01  0.51100000000E-03 0.  1.
        -12    1    3    3    0    0  0.11727583365E+02  0.18849237889E+02  0.28188010859E+02  0.35880272251E+02  0.00000000000E+00 0.  1.
</event>
<event>
 7    1  0.2886818E-013  0.7246159E+02  0.7816164E-02  0.1226708E+00
        -11   -1    0    0    0    0  0.00000000000E+00  0.00000000000E+00  0.45593999997E+02  0.45594000000E+02  0.51100000000E-03 0. -1.
         11   -1    0    0    0    0 -0.00000000000E+00 -0.00000000000E+00 -0.45593999997E+02  0.45594000000E+02  0.51100000000E-03 0.  1.
    9900012    2    1    2    0    0  0.96828548352E+01 -0.12101947588E+02 -0.10510171897E+02  0.72461587463E+02  0.70000022366E+02 0.  0.
         12    1    1    2    0    0 -0.96828548352E+01  0.12101947588E+02  0.10510171897E+02  0.18726412537E+02  0.00000000000E+00 0. -1.
         11    1    3    3    0    0  0.10628990001E+02  0.11363409435E+02  0.15787265753E+02  0.22166196396E+02  0.51100000000E-03 0. -1.
        -11    1    3    3    0    0 -0.15616612823E+02 -0.51343941180E+00 -0.10047651799E+02  0.18576800668E+02  0.51100000000E-03 0.  1.
        -12    1    3    3    0    0  0.14670477657E+02 -0.22951917612E+02 -0.16249785851E+02  0.31718590400E+02  0.00000000000E+00 0.  1.
</event>
<event>
 7    1  0.2886818E-013  0.7246156E+02  0.7816164E-02  0.1226708E+00
        -11   -1    0    0    0    0  0.00000000000E+00  0.00000000000E+00  0.45593999997E+02  0.45594000000E+02  0.51100000000E-03 0. -1.
         11   -1    0    0    0    0 -0.00000000000E+00 -0.00000000000E+00 -0.45593999997E+02  0.45594000000E+02  0.51100000000E-03 0.  1.
    9900012    2    1    2    0    0  0.12750681050E+02 -0.11813351385E+02 -0.69673735375E+01  0.72461563281E+02  0.69999990864E+02 0.  0.
         12    1    1    2    0    0 -0.12750681050E+02  0.11813351385E+02  0.69673735375E+01  0.18726436719E+02  0.00000000000E+00 0. -1.
         11    1    3    3    0    0  0.39715671072E+01 -0.11713486063E+02  0.16104772056E+02  0.20306225259E+02  0.51100000000E-03 0. -1.
        -11    1    3    3    0    0  0.24908749924E+02  0.81228338586E+00 -0.11831044424E+01  0.24950057384E+02  0.51100000000E-03 0.  1.
        -12    1    3    3    0    0 -0.16129635981E+02 -0.91214870770E+00 -0.21889041151E+02  0.27205280639E+02  0.00000000000E+00 0.  1.
</event>
<event>
 7    1  0.2886818E-013  0.7246156E+02  0.7816164E-02  0.1226708E+00
        -11   -1    0    0    0    0  0.00000000000E+00  0.00000000000E+00  0.45593999997E+02  0.45594000000E+02  0.51100000000E-03 0. -1.
         11   -1    0    0    0    0 -0.00000000000E+00 -0.00000000000E+00 -0.45593999997E+02  0.45594000000E+02  0.51100000000E-03 0.  1.
    9900012    2    1    2    0    0 -0.82962135046E+01 -0.13920297568E+02 -0.93849777611E+01  0.72461557453E+02  0.69999983271E+02 0.  0.
         12    1    1    2    0    0  0.82962135046E+01  0.13920297568E+02  0.93849777611E+01  0.18726442547E+02  0.00000000000E+00 0. -1.
         11    1    3    3    0    0 -0.20839171197E+02 -0.68347070648E+01 -0.17497238192E+02  0.28055973009E+02  0.51100000000E-03 0. -1.
        -11    1    3    3    0    0  0.13261627847E+02  0.36830473853E+01 -0.14103838300E+02  0.19706695975E+02  0.51100000000E-03 0.  1.
         12    1    3    3    0    0 -0.71867015448E+00 -0.10768637889E+02  0.22216098731E+02  0.24698888469E+02  0.00000000000E+00 0. -1.
</event>
<event>
 7    1  0.3334298E-013  0.7246150E+02  0.7816164E-02  0.1226708E+00
        -11   -1    0    0    0    0  0.00000000000E+00  0.00000000000E+00  0.45593999997E+02  0.45594000000E+02  0.51100000000E-03 0. -1.
         11   -1    0    0    0    0 -0.00000000000E+00 -0.00000000000E+00 -0.45593999997E+02  0.45594000000E+02  0.51100000000E-03 0.  1.
    9900012    2    1    2    0    0  0.74171059309E+01  0.22013379279E+01 -0.17053514021E+02  0.72461503009E+02  0.69999912349E+02 0.  0.
         12    1    1    2    0    0 -0.74171059309E+01 -0.22013379279E+01  0.17053514021E+02  0.18726496991E+02  0.00000000000E+00 0. -1.
         11    1    3    3    0    0  0.12697694206E+02  0.17466100282E+02  0.16852868417E+02  0.27391883311E+02  0.51100000000E-03 0. -1.
        -11    1    3    3    0    0 -0.96872237007E+01  0.35704120847E+01 -0.12673803386E+02  0.16346725605E+02  0.51100000000E-03 0.  1.
        -12    1    3    3    0    0  0.44066354259E+01 -0.18835174438E+02 -0.21232579052E+02  0.28722894094E+02  0.00000000000E+00 0.  1.
</event>
<event>
 7    1  0.2886818E-013  0.7246151E+02  0.7816164E-02  0.1226708E+00
        -11   -1    0    0    0    0  0.00000000000E+00  0.00000000000E+00  0.45593999997E+02  0.45594000000E+02  0.51100000000E-03 0.  1.
         11   -1    0    0    0    0 -0.00000000000E+00 -0.00000000000E+00 -0.45593999997E+02  0.45594000000E+02  0.51100000000E-03 0. -1.
    9900012    2    1    2    0    0  0.13144693468E+02  0.87461794668E+01 -0.10069893856E+02  0.72461511170E+02  0.69999922979E+02 0.  0.
         12    1    1    2    0    0 -0.13144693468E+02 -0.87461794668E+01  0.10069893856E+02  0.18726488830E+02  0.00000000000E+00 0. -1.
         11    1    3    3    0    0 -0.11439984986E+02  0.18584678050E+02  0.16495535010E+02  0.27356282464E+02  0.51100000000E-03 0. -1.
        -11    1    3    3    0    0 -0.12141294698E+01 -0.82802436411E+01 -0.14132500095E+02  0.16424497080E+02  0.51100000000E-03 0.  1.
        -12    1    3    3    0    0  0.25798807924E+02 -0.15582549421E+01 -0.12432928771E+02  0.28680731626E+02  0.00000000000E+00 0.  1.
</event>
<event>
 7    1  0.2886818E-013  0.7246156E+02  0.7816164E-02  0.1226708E+00
        -11   -1    0    0    0    0  0.00000000000E+00  0.00000000000E+00  0.45593999997E+02  0.45594000000E+02  0.51100000000E-03 0. -1.
         11   -1    0    0    0    0 -0.00000000000E+00 -0.00000000000E+00 -0.45593999997E+02  0.45594000000E+02  0.51100000000E-03 0.  1.
    9900012    2    1    2    0    0 -0.24916481858E+01 -0.48175675564E+01 -0.17923788446E+02  0.72461562536E+02  0.69999989893E+02 0.  0.
         12    1    1    2    0    0  0.24916481858E+01  0.48175675564E+01  0.17923788446E+02  0.18726437464E+02  0.00000000000E+00 0. -1.
         11    1    3    3    0    0 -0.21162056357E+02  0.19059052579E+02  0.37739437642E+01  0.28728431323E+02  0.51100000000E-03 0. -1.
        -11    1    3    3    0    0  0.10861352414E+02  0.13951690435E+01 -0.30421115341E+01  0.11365294354E+02  0.51100000000E-03 0.  1.
        -12    1    3    3    0    0  0.78090557577E+01 -0.25271789179E+02 -0.18655620676E+02  0.32367836859E+02  0.00000000000E+00 0.  1.
</event>
<event>
 7    1  0.2886818E-013  0.7246155E+02  0.7816164E-02  0.1226708E+00
        -11   -1    0    0    0    0  0.00000000000E+00  0.00000000000E+00  0.45593999997E+02  0.45594000000E+02  0.51100000000E-03 0.  1.
         11   -1    0    0    0    0 -0.00000000000E+00 -0.00000000000E+00 -0.45593999997E+02  0.45594000000E+02  0.51100000000E-03 0. -1.
    9900012    2    1    2    0    0  0.18222830555E+02 -0.16627199188E+01 -0.39804382607E+01  0.72461545992E+02  0.69999968342E+02 0.  0.
         12    1    1    2    0    0 -0.18222830555E+02  0.16627199188E+01  0.39804382607E+01  0.18726454008E+02  0.00000000000E+00 0. -1.
         11    1    3    3    0    0 -0.63129013374E+01  0.48496524767E+01 -0.78342306098E+01  0.11169020635E+02  0.51100000000E-03 0. -1.
        -11    1    3    3    0    0  0.13756420884E+02  0.16153579392E+02  0.21813300799E+02  0.30430204316E+02  0.51100000000E-03 0.  1.
         12    1    3    3    0    0  0.10779311008E+02 -0.22665951788E+02 -0.17959508450E+02  0.30862321041E+02  0.00000000000E+00 0. -1.
</event>
<event>
 7    1  0.2886818E-013  0.7246164E+02  0.7816164E-02  0.1226708E+00
        -11   -1    0    0    0    0  0.00000000000E+00  0.00000000000E+00  0.45593999997E+02  0.45594000000E+02  0.51100000000E-03 0. -1.
         11   -1    0    0    0    0 -0.00000000000E+00 -0.00000000000E+00 -0.45593999997E+02  0.45594000000E+02  0.51100000000E-03 0.  1.
    9900012    2    1    2    0    0  0.17739547356E+02  0.35887477762E+01  0.48068525143E+01  0.72461642049E+02  0.70000093474E+02 0.  0.
         12    1    1    2    0    0 -0.17739547356E+02 -0.35887477762E+01 -0.48068525143E+01  0.18726357951E+02  0.00000000000E+00 0. -1.
         11    1    3    3    0    0  0.26268549202E+01 -0.13345790524E+02 -0.66484701513E+00  0.13618095068E+02  0.51100000000E-03 0. -1.
        -11    1    3    3    0    0  0.29803430826E+02 -0.60046160478E+01  0.81397906020E+01  0.31473101121E+02  0.51100000000E-03 0.  1.
         12    1    3    3    0    0 -0.14690738390E+02  0.22939154348E+02 -0.26680910726E+01  0.27370445860E+02  0.00000000000E+00 0. -1.
</event>
<event>
 7    1  0.2886818E-013  0.7246128E+02  0.7816164E-02  0.1226709E+00
        -11   -1    0    0    0    0  0.00000000000E+00  0.00000000000E+00  0.45593999997E+02  0.45594000000E+02  0.51100000000E-03 0. -1.
         11   -1    0    0    0    0 -0.00000000000E+00 -0.00000000000E+00 -0.45593999997E+02  0.45594000000E+02  0.51100000000E-03 0.  1.
    9900012    2    1    2    0    0 -0.27979814222E+01  0.60229503732E+00 -0.18506719580E+02  0.72461277677E+02  0.69999618811E+02 0.  0.
         12    1    1    2    0    0  0.27979814222E+01 -0.60229503732E+00  0.18506719580E+02  0.18726722323E+02  0.00000000000E+00 0. -1.
         11    1    3    3    0    0  0.37444424907E+01 -0.13703040148E+02 -0.51020238834E+01  0.15093866530E+02  0.51100000000E-03 0. -1.
        -11    1    3    3    0    0 -0.22369092333E+02 -0.59083382327E+01 -0.20306103119E+02  0.30783478956E+02  0.51100000000E-03 0.  1.
        -12    1    3    3    0    0  0.15826668420E+02  0.20213673418E+02  0.69014074227E+01  0.26583932191E+02  0.00000000000E+00 0.  1.
</event>
<event>
 7    1  0.2886818E-013  0.7246157E+02  0.7816164E-02  0.1226708E+00
        -11   -1    0    0    0    0  0.00000000000E+00  0.00000000000E+00  0.45593999997E+02  0.45594000000E+02  0.51100000000E-03 0.  1.
         11   -1    0    0    0    0 -0.00000000000E+00 -0.00000000000E+00 -0.45593999997E+02  0.45594000000E+02  0.51100000000E-03 0. -1.
    9900012    2    1    2    0    0 -0.29210974123E+00  0.15643762088E+02  0.10289139901E+02  0.72461574279E+02  0.70000005191E+02 0.  0.
         12    1    1    2    0    0  0.29210974123E+00 -0.15643762088E+02 -0.10289139901E+02  0.18726425721E+02  0.00000000000E+00 0. -1.
         11    1    3    3    0    0  0.14700867016E+02  0.13387995255E+02 -0.23490534838E+02  0.30775950598E+02  0.51100000000E-03 0. -1.
        -11    1    3    3    0    0  0.42644977897E+01  0.96311259131E-01  0.10885040576E+02  0.11690993364E+02  0.51100000000E-03 0.  1.
        -12    1    3    3    0    0 -0.19257474547E+02  0.21594555736E+01  0.22894634164E+02  0.29994630317E+02  0.00000000000E+00 0.  1.
</event>
<event>
 7    1  0.2886818E-013  0.7246201E+02  0.7816164E-02  0.1226707E+00
        -11   -1    0    0    0    0  0.00000000000E+00  0.00000000000E+00  0.45593999997E+02  0.45594000000E+02  0.51100000000E-03 0. -1.
         11   -1    0    0    0    0 -0.00000000000E+00 -0.00000000000E+00 -0.45593999997E+02  0.45594000000E+02  0.51100000000E-03 0.  1.
    9900012    2    1    2    0    0  0.27552334646E+00  0.80643319589E+01 -0.16898325380E+02  0.72462008339E+02  0.70000570632E+02 0.  0.
         12    1    1    2    0    0 -0.27552334646E+00 -0.80643319589E+01  0.16898325380E+02  0.18725991661E+02  0.00000000000E+00 0. -1.
         11    1    3    3    0    0 -0.12698639203E+02  0.45560176729E+01 -0.15617422679E+02  0.20637747601E+02  0.51100000000E-03 0.  1.
        -11    1    3    3    0    0 -0.11777001609E+02 -0.15652010604E+02  0.42370098590E+01  0.20040844684E+02  0.51100000000E-03 0. -1.
         12    1    3    3    0    0  0.24751164158E+02  0.19160324890E+02 -0.55179125600E+01  0.31783416054E+02  0.00000000000E+00 0. -1.
</event>
<event>
 7    1  0.2886818E-013  0.7246157E+02  0.7816164E-02  0.1226708E+00
        -11   -1    0    0    0    0  0.00000000000E+00  0.00000000000E+00  0.45593999997E+02  0.45594000000E+02  0.51100000000E-03 0. -1.
         11   -1    0    0    0    0 -0.00000000000E+00 -0.00000000000E+00 -0.45593999997E+02  0.45594000000E+02  0.51100000000E-03 0.  1.
    9900012    2    1    2    0    0  0.56352627642E+01 -0.11999639061E+02 -0.13226169935E+02  0.72461572280E+02  0.70000002586E+02 0.  0.
         12    1    1    2    0    0 -0.56352627642E+01  0.11999639061E+02  0.13226169935E+02  0.18726427720E+02  0.00000000000E+00 0. -1.
         11    1    3    3    0    0  0.74633910573E+01  0.26430132947E+01 -0.20467042946E+02  0.21945103612E+02  0.51100000000E-03 0. -1.
        -11    1    3    3    0    0 -0.21281024794E+02 -0.29268836963E+01 -0.82678013909E+01  0.23017497791E+02  0.51100000000E-03 0.  1.
         12    1    3    3    0    0  0.19452896501E+02 -0.11715768659E+02  0.15508674402E+02  0.27498970877E+02  0.00000000000E+00 0. -1.
</event>
<event>
 7    1  0.2886818E-013  0.7246165E+02  0.7816164E-02  0.1226708E+00
        -11   -1    0    0    0    0  0.00000000000E+00  0.00000000000E+00  0.45593999997E+02  0.45594000000E+02  0.51100000000E-03 0. -1.
         11   -1    0    0    0    0 -0.00000000000E+00 -0.00000000000E+00 -0.45593999997E+02  0.45594000000E+02  0.51100000000E-03 0.  1.
    9900012    2    1    2    0    0  0.11886312112E+02  0.89289167870E+01 -0.11387103634E+02  0.72461652257E+02  0.70000106771E+02 0.  0.
         12    1    1    2    0    0 -0.11886312112E+02 -0.89289167870E+01  0.11387103634E+02  0.18726347743E+02  0.00000000000E+00 0. -1.
         11    1    3    3    0    0  0.47863088135E+01 -0.26806474968E+02 -0.92283080930E+01  0.28751652523E+02  0.51100000000E-03 0. -1.
        -11    1    3    3    0    0  0.15207269233E+01 -0.15727386159E+01 -0.54214019742E+01  0.58461711193E+01  0.51100000000E-03 0.  1.
        -12    1    3    3    0    0  0.55792763756E+01  0.37308130371E+02  0.32626064331E+01  0.37863828615E+02  0.00000000000E+00 0.  1.
</event>
<event>
 7    1  0.2886818E-013  0.7246158E+02  0.7816164E-02  0.1226708E+00
        -11   -1    0    0    0    0  0.00000000000E+00  0.00000000000E+00  0.45593999997E+02  0.45594000000E+02  0.51100000000E-03 0. -1.
         11   -1    0    0    0    0 -0.00000000000E+00 -0.00000000000E+00 -0.45593999997E+02  0.45594000000E+02  0.51100000000E-03 0.  1.
    9900012    2    1    2    0    0  0.96540739628E+01  0.15968315424E+02 -0.15781707225E+01  0.72461578442E+02  0.70000010613E+02 0.  0.
         12    1    1    2    0    0 -0.96540739628E+01 -0.15968315424E+02  0.15781707225E+01  0.18726421558E+02  0.00000000000E+00 0. -1.
         11    1    3    3    0    0 -0.14765519469E+01 -0.28803847866E+01 -0.70640809838E+01  0.77703322051E+01  0.51100000000E-03 0. -1.
        -11    1    3    3    0    0 -0.95776749119E+01  0.12823453602E+02 -0.23579313955E+02  0.28498366020E+02  0.51100000000E-03 0.  1.
         12    1    3    3    0    0  0.20708300822E+02  0.60252466087E+01  0.29065224216E+02  0.36192880216E+02  0.00000000000E+00 0. -1.
</event>
<event>
 7    1  0.2886818E-013  0.7246159E+02  0.7816164E-02  0.1226708E+00
        -11   -1    0    0    0    0  0.00000000000E+00  0.00000000000E+00  0.45593999997E+02  0.45594000000E+02  0.51100000000E-03 0. -1.
         11   -1    0    0    0    0 -0.00000000000E+00 -0.00000000000E+00 -0.45593999997E+02  0.45594000000E+02  0.51100000000E-03 0.  1.
    9900012    2    1    2    0    0  0.16023640944E+02 -0.96848614556E+01 -0.35334198396E+00  0.72461589210E+02  0.70000024641E+02 0.  0.
         12    1    1    2    0    0 -0.16023640944E+02  0.96848614556E+01  0.35334198396E+00  0.18726410790E+02  0.00000000000E+00 0. -1.
         11    1    3    3    0    0  0.15729040170E+02  0.33569155008E+01  0.79994687737E+01  0.17962825147E+02  0.51100000000E-03 0. -1.
        -11    1    3    3    0    0  0.25091352821E+02 -0.91548820847E+01  0.31397374213E+01  0.26893229700E+02  0.51100000000E-03 0.  1.
        -12    1    3    3    0    0 -0.24796752046E+02 -0.38868948717E+01 -0.11492548179E+02  0.27605534362E+02  0.00000000000E+00 0.  1.
</event>
<event>
 7    1  0.2886818E-013  0.7246169E+02  0.7816164E-02  0.1226708E+00
        -11   -1    0    0    0    0  0.00000000000E+00  0.00000000000E+00  0.45593999997E+02  0.45594000000E+02  0.51100000000E-03 0. -1.
         11   -1    0    0    0    0 -0.00000000000E+00 -0.00000000000E+00 -0.45593999997E+02  0.45594000000E+02  0.51100000000E-03 0.  1.
    9900012    2    1    2    0    0 -0.12952142768E+01  0.17814893981E+02 -0.56237561502E+01  0.72461690678E+02  0.70000156822E+02 0.  0.
         12    1    1    2    0    0  0.12952142768E+01 -0.17814893981E+02  0.56237561502E+01  0.18726309322E+02  0.00000000000E+00 0. -1.
         11    1    3    3    0    0 -0.11563610759E+02 -0.55706828183E+01 -0.12337529565E+02  0.17803489458E+02  0.51100000000E-03 0. -1.
        -11    1    3    3    0    0  0.67737494789E+01  0.30541451072E+02 -0.12631815779E+02  0.33737615294E+02  0.51100000000E-03 0.  1.
         12    1    3    3    0    0  0.34946470029E+01 -0.71558742728E+01  0.19345589193E+02  0.20920585927E+02  0.00000000000E+00 0. -1.
</event>
<event>
 7    1  0.2886818E-013  0.7246157E+02  0.7816164E-02  0.1226708E+00
        -11   -1    0    0    0    0  0.00000000000E+00  0.00000000000E+00  0.45593999997E+02  0.45594000000E+02  0.51100000000E-03 0.  1.
         11   -1    0    0    0    0 -0.00000000000E+00 -0.00000000000E+00 -0.45593999997E+02  0.45594000000E+02  0.51100000000E-03 0. -1.
    9900012    2    1    2    0    0 -0.43947152241E+01 -0.21116060334E+01  0.18080567134E+02  0.72461566548E+02  0.69999995119E+02 0.  0.
         12    1    1    2    0    0  0.43947152241E+01  0.21116060334E+01 -0.18080567134E+02  0.18726433452E+02  0.00000000000E+00 0. -1.
         11    1    3    3    0    0  0.74542858551E+01  0.24798624219E+02 -0.18236058634E+01  0.25958884401E+02  0.51100000000E-03 0. -1.
        -11    1    3    3    0    0  0.88912094576E+00 -0.35135474095E+01 -0.74717920459E+01  0.83044101593E+01  0.51100000000E-03 0.  1.
        -12    1    3    3    0    0 -0.12738122025E+02 -0.23396682843E+02  0.27375965044E+02  0.38198271987E+02  0.00000000000E+00 0.  1.
</event>
<event>
 7    1  0.2886818E-013  0.7246124E+02  0.7816164E-02  0.1226709E+00
        -11   -1    0    0    0    0  0.00000000000E+00  0.00000000000E+00  0.45593999997E+02  0.45594000000E+02  0.51100000000E-03 0.  1.
         11   -1    0    0    0    0 -0.00000000000E+00 -0.00000000000E+00 -0.45593999997E+02  0.45594000000E+02  0.51100000000E-03 0. -1.
    9900012    2    1    2    0    0 -0.16889419390E+02  0.74944572786E+01  0.30450169744E+01  0.72461240921E+02  0.69999570928E+02 0.  0.
         12    1    1    2    0    0  0.16889419390E+02 -0.74944572786E+01 -0.30450169744E+01  0.18726759079E+02  0.00000000000E+00 0. -1.
         11    1    3    3    0    0  0.27470350156E+00 -0.52734737865E+01  0.50771087930E+00  0.53049748716E+01  0.51100000000E-03 0. -1.
        -11    1    3    3    0    0 -0.17741251953E+02  0.69509589807E+00  0.31284469402E+02  0.35971561062E+02  0.51100000000E-03 0.  1.
         12    1    3    3    0    0  0.57712906119E+00  0.12072835167E+02 -0.28747163307E+02  0.31184704987E+02  0.00000000000E+00 0. -1.
</event>
<event>
 7    1  0.2886818E-013  0.7246156E+02  0.7816164E-02  0.1226708E+00
        -11   -1    0    0    0    0  0.00000000000E+00  0.00000000000E+00  0.45593999997E+02  0.45594000000E+02  0.51100000000E-03 0.  1.
         11   -1    0    0    0    0 -0.00000000000E+00 -0.00000000000E+00 -0.45593999997E+02  0.45594000000E+02  0.51100000000E-03 0. -1.
    9900012    2    1    2    0    0  0.14904565677E+02  0.38916689528E+01  0.10648393926E+02  0.72461562580E+02  0.69999989950E+02 0.  0.
         12    1    1    2    0    0 -0.14904565677E+02 -0.38916689528E+01 -0.10648393926E+02  0.18726437420E+02  0.00000000000E+00 0. -1.
         11    1    3    3    0    0 -0.98505684184E+01  0.60455722215E+01  0.13416461791E+02  0.17708305647E+02  0.51100000000E-03 0. -1.
        -11    1    3    3    0    0  0.49446029277E+00 -0.16868984565E+01  0.20830890357E+02  0.20904930297E+02  0.51100000000E-03 0.  1.
         12    1    3    3    0    0  0.24260673802E+02 -0.46700481216E+00 -0.23598958222E+02  0.33848326635E+02  0.00000000000E+00 0. -1.
</event>
<event>
 7    1  0.2886818E-013  0.7246155E+02  0.7816164E-02  0.1226708E+00
        -11   -1    0    0    0    0  0.00000000000E+00  0.00000000000E+00  0.45593999997E+02  0.45594000000E+02  0.51100000000E-03 0.  1.
         11   -1    0    0    0    0 -0.00000000000E+00 -0.00000000000E+00 -0.45593999997E+02  0.45594000000E+02  0.51100000000E-03 0. -1.
    9900012    2    1    2    0    0 -0.56281296743E+01  0.17859583847E+02 -0.19806480590E+00  0.72461553234E+02  0.69999977776E+02 0.  0.
         12    1    1    2    0    0  0.56281296743E+01 -0.17859583847E+02  0.19806480590E+00  0.18726446766E+02  0.00000000000E+00 0. -1.
         11    1    3    3    0    0 -0.91953335956E+01 -0.11969228592E+02  0.17386631279E+00  0.15094595813E+02  0.51100000000E-03 0. -1.
        -11    1    3    3    0    0 -0.45535871487E+01 -0.10187519237E+02  0.10275798185E+02  0.15169467120E+02  0.51100000000E-03 0.  1.
         12    1    3    3    0    0  0.81207910700E+01  0.40016331675E+02 -0.10647729303E+02  0.42197490300E+02  0.00000000000E+00 0. -1.
</event>
<event>
 7    1  0.2886818E-013  0.7246161E+02  0.7816164E-02  0.1226708E+00
        -11   -1    0    0    0    0  0.00000000000E+00  0.00000000000E+00  0.45593999997E+02  0.45594000000E+02  0.51100000000E-03 0.  1.
         11   -1    0    0    0    0 -0.00000000000E+00 -0.00000000000E+00 -0.45593999997E+02  0.45594000000E+02  0.51100000000E-03 0. -1.
    9900012    2    1    2    0    0 -0.30354726340E+01 -0.16513152717E+02 -0.82933305927E+01  0.72461611157E+02  0.70000053232E+02 0.  0.
         12    1    1    2    0    0  0.30354726340E+01  0.16513152717E+02  0.82933305927E+01  0.18726388843E+02  0.00000000000E+00 0. -1.
         11    1    3    3    0    0 -0.19501601917E+02  0.11343460233E+02 -0.13450999789E+01  0.22600793384E+02  0.51100000000E-03 0. -1.
        -11    1    3    3    0    0 -0.81018164573E+01 -0.12353713482E+02  0.84110989845E+01  0.17000007444E+02  0.51100000000E-03 0.  1.
         12    1    3    3    0    0  0.24567945740E+02 -0.15502899467E+02 -0.15359329598E+02  0.32860810329E+02  0.00000000000E+00 0. -1.
</event>
<event>
 7    1  0.2886818E-013  0.7246161E+02  0.7816164E-02  0.1226708E+00
        -11   -1    0    0    0    0  0.00000000000E+00  0.00000000000E+00  0.45593999997E+02  0.45594000000E+02  0.51100000000E-03 0.  1.
         11   -1    0    0    0    0 -0.00000000000E+00 -0.00000000000E+00 -0.45593999997E+02  0.45594000000E+02  0.51100000000E-03 0. -1.
    9900012    2    1    2    0    0 -0.13314987835E+02  0.13105946624E+02  0.12739193053E+01  0.72461611978E+02  0.70000054300E+02 0.  0.
         12    1    1    2    0    0  0.13314987835E+02 -0.13105946624E+02 -0.12739193053E+01  0.18726388022E+02  0.00000000000E+00 0. -1.
         11    1    3    3    0    0 -0.52471709568E+01 -0.15606935367E+02 -0.45662893226E+00  0.16471725618E+02  0.51100000000E-03 0. -1.
        -11    1    3    3    0    0  0.94310251125E+01 -0.96499531408E+01  0.29293703577E+01  0.13807499457E+02  0.51100000000E-03 0.  1.
        -12    1    3    3    0    0 -0.17498841991E+02  0.38362835132E+02 -0.11988221201E+01  0.42182386903E+02  0.00000000000E+00 0.  1.
</event>
<event>
 7    1  0.2886818E-013  0.7246152E+02  0.7816164E-02  0.1226708E+00
        -11   -1    0    0    0    0  0.00000000000E+00  0.00000000000E+00  0.45593999997E+02  0.45594000000E+02  0.51100000000E-03 0. -1.
         11   -1    0    0    0    0 -0.00000000000E+00 -0.00000000000E+00 -0.45593999997E+02  0.45594000000E+02  0.51100000000E-03 0.  1.
    9900012    2    1    2    0    0 -0.32249299809E+01 -0.18189807459E+02 -0.30678451694E+01  0.72461522948E+02  0.69999938323E+02 0.  0.
         12    1    1    2    0    0  0.32249299809E+01  0.18189807459E+02  0.30678451694E+01  0.18726477052E+02  0.00000000000E+00 0. -1.
         11    1    3    3    0    0  0.24084593394E+02  0.11510423561E+02  0.36872941979E+01  0.26947237859E+02  0.51100000000E-03 0. -1.
        -11    1    3    3    0    0 -0.16184626576E+02 -0.21115599088E+02  0.51482644226E+01  0.27098252509E+02  0.51100000000E-03 0.  1.
        -12    1    3    3    0    0 -0.11124896798E+02 -0.85846319323E+01 -0.11903403790E+02  0.18416032580E+02  0.00000000000E+00 0.  1.
</event>
<event>
 7    1  0.2886818E-013  0.7246157E+02  0.7816164E-02  0.1226708E+00
        -11   -1    0    0    0    0  0.00000000000E+00  0.00000000000E+00  0.45593999997E+02  0.45594000000E+02  0.51100000000E-03 0.  1.
         11   -1    0    0    0    0 -0.00000000000E+00 -0.00000000000E+00 -0.45593999997E+02  0.45594000000E+02  0.51100000000E-03 0. -1.
    9900012    2    1    2    0    0 -0.17953101816E+02 -0.28393071810E+01  0.45059588779E+01  0.72461569601E+02  0.69999999096E+02 0.  0.
         12    1    1    2    0    0  0.17953101816E+02  0.28393071810E+01 -0.45059588779E+01  0.18726430399E+02  0.00000000000E+00 0. -1.
         11    1    3    3    0    0  0.20555775764E+02  0.83468698150E+01 -0.36993895920E+01  0.22492123879E+02  0.51100000000E-03 0. -1.
        -11    1    3    3    0    0  0.15160210647E+01 -0.86312150621E+01 -0.10000144965E+01  0.88202166964E+01  0.51100000000E-03 0.  1.
        -12    1    3    3    0    0 -0.40024898645E+02 -0.25549619338E+01  0.92053629664E+01  0.41149229025E+02  0.00000000000E+00 0.  1.
</event>
<event>
 7    1  0.2886818E-013  0.7246161E+02  0.7816164E-02  0.1226708E+00
        -11   -1    0    0    0    0  0.00000000000E+00  0.00000000000E+00  0.45593999997E+02  0.45594000000E+02  0.51100000000E-03 0.  1.
         11   -1    0    0    0    0 -0.00000000000E+00 -0.00000000000E+00 -0.45593999997E+02  0.45594000000E+02  0.51100000000E-03 0. -1.
    9900012    2    1    2    0    0  0.48451218626E+00 -0.18404047251E+02  0.34254977307E+01  0.72461608410E+02  0.70000049653E+02 0.  0.
         12    1    1    2    0    0 -0.48451218626E+00  0.18404047251E+02 -0.34254977307E+01  0.18726391590E+02  0.00000000000E+00 0. -1.
         11    1    3    3    0    0 -0.10277163101E+02 -0.91775297981E+01 -0.12810277225E+02  0.18813567908E+02  0.51100000000E-03 0. -1.
        -11    1    3    3    0    0 -0.99622941358E+01 -0.21537964122E+02  0.17537962984E+02  0.29507818436E+02  0.51100000000E-03 0.  1.
        -12    1    3    3    0    0  0.20723969423E+02  0.12311446670E+02 -0.13021880280E+01  0.24140222066E+02  0.00000000000E+00 0.  1.
</event>
<event>
 7    1  0.2886818E-013  0.7246159E+02  0.7816164E-02  0.1226708E+00
        -11   -1    0    0    0    0  0.00000000000E+00  0.00000000000E+00  0.45593999997E+02  0.45594000000E+02  0.51100000000E-03 0. -1.
         11   -1    0    0    0    0 -0.00000000000E+00 -0.00000000000E+00 -0.45593999997E+02  0.45594000000E+02  0.51100000000E-03 0.  1.
    9900012    2    1    2    0    0  0.13716643012E+02 -0.52948042648E+01  0.11597297739E+02  0.72461586500E+02  0.70000021111E+02 0.  0.
         12    1    1    2    0    0 -0.13716643012E+02  0.52948042648E+01 -0.11597297739E+02  0.18726413500E+02  0.00000000000E+00 0. -1.
         11    1    3    3    0    0 -0.17893581596E+02 -0.91253208914E+01 -0.84871812351E+01  0.21805595367E+02  0.51100000000E-03 0. -1.
        -11    1    3    3    0    0  0.17043415271E+00 -0.11507230225E+02  0.44344380138E+01  0.12333273532E+02  0.51100000000E-03 0.  1.
        -12    1    3    3    0    0  0.31439790455E+02  0.15337746852E+02  0.15650040961E+02  0.38322717602E+02  0.00000000000E+00 0.  1.
</event>
<event>
 7    1  0.2886818E-013  0.7246154E+02  0.7816164E-02  0.1226708E+00
        -11   -1    0    0    0    0  0.00000000000E+00  0.00000000000E+00  0.45593999997E+02  0.45594000000E+02  0.51100000000E-03 0.  1.
         11   -1    0    0    0    0 -0.00000000000E+00 -0.00000000000E+00 -0.45593999997E+02  0.45594000000E+02  0.51100000000E-03 0. -1.
    9900012    2    1    2    0    0  0.85800654871E+00 -0.99620362974E+01  0.15833575776E+02  0.72461535724E+02  0.69999954965E+02 0.  0.
         12    1    1    2    0    0 -0.85800654871E+00  0.99620362974E+01 -0.15833575776E+02  0.18726464276E+02  0.00000000000E+00 0. -1.
         11    1    3    3    0    0  0.28428709115E+01 -0.26951114846E+02 -0.82458879639E+01  0.28327357361E+02  0.51100000000E-03 0. -1.
        -11    1    3    3    0    0 -0.13290656018E+02  0.10407594073E+01  0.27893675356E+00  0.13334261266E+02  0.51100000000E-03 0.  1.
        -12    1    3    3    0    0  0.11305791655E+02  0.15948319141E+02  0.23800526987E+02  0.30799917098E+02  0.00000000000E+00 0.  1.
</event>
<event>
 7    1  0.2886818E-013  0.7246149E+02  0.7816164E-02  0.1226708E+00
        -11   -1    0    0    0    0  0.00000000000E+00  0.00000000000E+00  0.45593999997E+02  0.45594000000E+02  0.51100000000E-03 0.  1.
         11   -1    0    0    0    0 -0.00000000000E+00 -0.00000000000E+00 -0.45593999997E+02  0.45594000000E+02  0.51100000000E-03 0. -1.
    9900012    2    1    2    0    0 -0.45910148944E+01 -0.22812812334E+01  0.18011125671E+02  0.72461486450E+02  0.69999890776E+02 0.  0.
         12    1    1    2    0    0  0.45910148944E+01  0.22812812334E+01 -0.18011125671E+02  0.18726513550E+02  0.00000000000E+00 0. -1.
         11    1    3    3    0    0 -0.13123437788E+02  0.11794404968E+02 -0.11054627791E+02  0.20821561031E+02  0.51100000000E-03 0. -1.
        -11    1    3    3    0    0 -0.15796877119E+02 -0.49259660002E+01  0.92661780585E+01  0.18964928785E+02  0.51100000000E-03 0.  1.
         12    1    3    3    0    0  0.24329300012E+02 -0.91497202016E+01  0.19799575403E+02  0.32674996633E+02  0.00000000000E+00 0. -1.
</event>
<event>
 7    1  0.2886818E-013  0.7246162E+02  0.7816164E-02  0.1226708E+00
        -11   -1    0    0    0    0  0.00000000000E+00  0.00000000000E+00  0.45593999997E+02  0.45594000000E+02  0.51100000000E-03 0.  1.
         11   -1    0    0    0    0 -0.00000000000E+00 -0.00000000000E+00 -0.45593999997E+02  0.45594000000E+02  0.51100000000E-03 0. -1.
    9900012    2    1    2    0    0 -0.13274205825E+02 -0.66576354460E+01 -0.11408266312E+02  0.72461623141E+02  0.70000068843E+02 0.  0.
         12    1    1    2    0    0  0.13274205825E+02  0.66576354460E+01  0.11408266312E+02  0.18726376859E+02  0.00000000000E+00 0. -1.
         11    1    3    3    0    0  0.12337997669E+01  0.11461925641E+02  0.74759141079E+01  0.13739988838E+02  0.51100000000E-03 0. -1.
        -11    1    3    3    0    0  0.14629564152E+02 -0.90503972369E+01  0.71301562424E+01  0.18621841094E+02  0.51100000000E-03 0.  1.
         12    1    3    3    0    0 -0.29137569744E+02 -0.90691638497E+01 -0.26014336662E+02  0.40099793210E+02  0.00000000000E+00 0. -1.
</event>
<event>
 7    1  0.2886818E-013  0.7246151E+02  0.7816164E-02  0.1226708E+00
        -11   -1    0    0    0    0  0.00000000000E+00  0.00000000000E+00  0.45593999997E+02  0.45594000000E+02  0.51100000000E-03 0. -1.
         11   -1    0    0    0    0 -0.00000000000E+00 -0.00000000000E+00 -0.45593999997E+02  0.45594000000E+02  0.51100000000E-03 0.  1.
    9900012    2    1    2    0    0  0.10026393932E+02  0.40029356149E+01 -0.15301290799E+02  0.72461506230E+02  0.69999916544E+02 0.  0.
         12    1    1    2    0    0 -0.10026393932E+02 -0.40029356149E+01  0.15301290799E+02  0.18726493770E+02  0.00000000000E+00 0. -1.
         11    1    3    3    0    0  0.23133912913E+01  0.18723102556E+02 -0.14343355208E+02  0.23698906884E+02  0.51100000000E-03 0. -1.
        -11    1    3    3    0    0 -0.16067724076E+01  0.23344967584E+00 -0.21578354058E+02  0.21639352588E+02  0.51100000000E-03 0.  1.
         12    1    3    3    0    0  0.93197750480E+01 -0.14953616617E+02  0.20620418467E+02  0.27123246757E+02  0.00000000000E+00 0. -1.
</event>
<event>
 7    1  0.2886818E-013  0.7246155E+02  0.7816164E-02  0.1226708E+00
        -11   -1    0    0    0    0  0.00000000000E+00  0.00000000000E+00  0.45593999997E+02  0.45594000000E+02  0.51100000000E-03 0. -1.
         11   -1    0    0    0    0 -0.00000000000E+00 -0.00000000000E+00 -0.45593999997E+02  0.45594000000E+02  0.51100000000E-03 0.  1.
    9900012    2    1    2    0    0  0.43503980623E+01  0.16614330424E+02 -0.74644534843E+01  0.72461547999E+02  0.69999970956E+02 0.  0.
         12    1    1    2    0    0 -0.43503980623E+01 -0.16614330424E+02  0.74644534843E+01  0.18726452001E+02  0.00000000000E+00 0. -1.
         11    1    3    3    0    0 -0.43991837577E+01 -0.23690030829E+01  0.88847416220E+00  0.50748773324E+01  0.51100000000E-03 0. -1.
        -11    1    3    3    0    0  0.39625691525E+00 -0.16793135282E+02 -0.22447821213E+02  0.28036959351E+02  0.51100000000E-03 0.  1.
         12    1    3    3    0    0  0.83533249047E+01  0.35776468789E+02  0.14094893567E+02  0.39349711316E+02  0.00000000000E+00 0. -1.
</event>
<event>
 7    1  0.2886818E-013  0.7246159E+02  0.7816164E-02  0.1226708E+00
        -11   -1    0    0    0    0  0.00000000000E+00  0.00000000000E+00  0.45593999997E+02  0.45594000000E+02  0.51100000000E-03 0.  1.
         11   -1    0    0    0    0 -0.00000000000E+00 -0.00000000000E+00 -0.45593999997E+02  0.45594000000E+02  0.51100000000E-03 0. -1.
    9900012    2    1    2    0    0 -0.21210454845E+01 -0.10011381546E+02  0.15682846629E+02  0.72461594237E+02  0.70000031190E+02 0.  0.
         12    1    1    2    0    0  0.21210454845E+01  0.10011381546E+02 -0.15682846629E+02  0.18726405763E+02  0.00000000000E+00 0. -1.
         11    1    3    3    0    0  0.43716465727E+01 -0.17405428192E+02 -0.64309481497E+01  0.19063507512E+02  0.51100000000E-03 0. -1.
        -11    1    3    3    0    0  0.80829396362E+01  0.47018697162E+00  0.32969953897E+02  0.33949563314E+02  0.51100000000E-03 0.  1.
         12    1    3    3    0    0 -0.14575631693E+02  0.69238596740E+01 -0.10856159119E+02  0.19448523411E+02  0.00000000000E+00 0. -1.
</event>
<event>
 7    1  0.2886818E-013  0.7246160E+02  0.7816164E-02  0.1226708E+00
        -11   -1    0    0    0    0  0.00000000000E+00  0.00000000000E+00  0.45593999997E+02  0.45594000000E+02  0.51100000000E-03 0.  1.
         11   -1    0    0    0    0 -0.00000000000E+00 -0.00000000000E+00 -0.45593999997E+02  0.45594000000E+02  0.51100000000E-03 0. -1.
    9900012    2    1    2    0    0 -0.10948100711E+02  0.90919094712E+00  0.15165440244E+02  0.72461598447E+02  0.70000036674E+02 0.  0.
         12    1    1    2    0    0  0.10948100711E+02 -0.90919094712E+00 -0.15165440244E+02  0.18726401553E+02  0.00000000000E+00 0. -1.
         11    1    3    3    0    0  0.26744835662E+01 -0.95958771929E+00  0.26527409756E+01  0.38872491406E+01  0.51100000000E-03 0. -1.
        -11    1    3    3    0    0 -0.20012772937E+02  0.12200564245E+02  0.35520277145E+02  0.42556491129E+02  0.51100000000E-03 0.  1.
         12    1    3    3    0    0  0.63901886602E+01 -0.10331785579E+02 -0.23007577877E+02  0.26017858177E+02  0.00000000000E+00 0. -1.
</event>
<event>
 7    1  0.2886818E-013  0.7246156E+02  0.7816164E-02  0.1226708E+00
        -11   -1    0    0    0    0  0.00000000000E+00  0.00000000000E+00  0.45593999997E+02  0.45594000000E+02  0.51100000000E-03 0. -1.
         11   -1    0    0    0    0 -0.00000000000E+00 -0.00000000000E+00 -0.45593999997E+02  0.45594000000E+02  0.51100000000E-03 0.  1.
    9900012    2    1    2    0    0 -0.64123406035E+01 -0.30634959213E+01 -0.17325600137E+02  0.72461560419E+02  0.69999987136E+02 0.  0.
         12    1    1    2    0    0  0.64123406035E+01  0.30634959213E+01  0.17325600137E+02  0.18726439581E+02  0.00000000000E+00 0. -1.
         11    1    3    3    0    0  0.18268729604E+02 -0.11023185189E+02  0.44578680583E+00  0.21341410900E+02  0.51100000000E-03 0. -1.
        -11    1    3    3    0    0  0.70794149295E+01  0.12209816744E+02  0.70507791353E+00  0.14131343737E+02  0.51100000000E-03 0.  1.
         12    1    3    3    0    0 -0.31760485137E+02 -0.42501274767E+01 -0.18476464856E+02  0.36988805783E+02  0.00000000000E+00 0. -1.
</event>
<event>
 7    1  0.2886818E-013  0.7246154E+02  0.7816164E-02  0.1226708E+00
        -11   -1    0    0    0    0  0.00000000000E+00  0.00000000000E+00  0.45593999997E+02  0.45594000000E+02  0.51100000000E-03 0. -1.
         11   -1    0    0    0    0 -0.00000000000E+00 -0.00000000000E+00 -0.45593999997E+02  0.45594000000E+02  0.51100000000E-03 0.  1.
    9900012    2    1    2    0    0 -0.89931924983E+01  0.16400333783E+02  0.91204216495E+00  0.72461540633E+02  0.69999961361E+02 0.  0.
         12    1    1    2    0    0  0.89931924983E+01 -0.16400333783E+02 -0.91204216495E+00  0.18726459367E+02  0.00000000000E+00 0. -1.
         11    1    3    3    0    0 -0.16314661399E+01 -0.34175837065E+01 -0.17189821333E+01  0.41589012962E+01  0.51100000000E-03 0. -1.
        -11    1    3    3    0    0 -0.53943069810E+01  0.95508764346E+01 -0.31105872455E+02  0.32983224371E+02  0.51100000000E-03 0.  1.
         12    1    3    3    0    0 -0.19674193774E+01  0.10267041055E+02  0.33736896753E+02  0.35319414966E+02  0.00000000000E+00 0. -1.
</event>
<event>
 7    1  0.2886818E-013  0.7246162E+02  0.7816164E-02  0.1226708E+00
        -11   -1    0    0    0    0  0.00000000000E+00  0.00000000000E+00  0.45593999997E+02  0.45594000000E+02  0.51100000000E-03 0.  1.
         11   -1    0    0    0    0 -0.00000000000E+00 -0.00000000000E+00 -0.45593999997E+02  0.45594000000E+02  0.51100000000E-03 0. -1.
    9900012    2    1    2    0    0 -0.15463177892E+02 -0.45273289310E+01  0.95431054451E+01  0.72461616492E+02  0.70000060181E+02 0.  0.
         12    1    1    2    0    0  0.15463177892E+02  0.45273289310E+01 -0.95431054451E+01  0.18726383508E+02  0.00000000000E+00 0. -1.
         11    1    3    3    0    0 -0.17860500480E+00  0.72801725897E+01  0.54086462475E+01  0.90711778274E+01  0.51100000000E-03 0. -1.
        -11    1    3    3    0    0 -0.15774645900E+02 -0.61401795714E+01  0.31327743161E+02  0.35608548837E+02  0.51100000000E-03 0.  1.
         12    1    3    3    0    0  0.49007301328E+00 -0.56673219494E+01 -0.27193283964E+02  0.27781889827E+02  0.00000000000E+00 0. -1.
</event>
<event>
 7    1  0.2886818E-013  0.7246155E+02  0.7816164E-02  0.1226708E+00
        -11   -1    0    0    0    0  0.00000000000E+00  0.00000000000E+00  0.45593999997E+02  0.45594000000E+02  0.51100000000E-03 0.  1.
         11   -1    0    0    0    0 -0.00000000000E+00 -0.00000000000E+00 -0.45593999997E+02  0.45594000000E+02  0.51100000000E-03 0. -1.
    9900012    2    1    2    0    0 -0.16166453683E+02 -0.88215752082E+01  0.33919989757E+01  0.72461546228E+02  0.69999968649E+02 0.  0.
         12    1    1    2    0    0  0.16166453683E+02  0.88215752082E+01 -0.33919989757E+01  0.18726453772E+02  0.00000000000E+00 0. -1.
         11    1    3    3    0    0  0.39626817176E+01 -0.18554124159E+02 -0.80365269213E+01  0.20604468809E+02  0.51100000000E-03 0. -1.
        -11    1    3    3    0    0  0.29502535033E+01 -0.53082830143E+01  0.21641136721E+02  0.22477114209E+02  0.51100000000E-03 0.  1.
         12    1    3    3    0    0 -0.23079388904E+02  0.15040831965E+02 -0.10212610825E+02  0.29379963210E+02  0.00000000000E+00 0. -1.
</event>
<event>
 7    1  0.2886818E-013  0.7246161E+02  0.7816164E-02  0.1226708E+00
        -11   -1    0    0    0    0  0.00000000000E+00  0.00000000000E+00  0.45593999997E+02  0.45594000000E+02  0.51100000000E-03 0. -1.
         11   -1    0    0    0    0 -0.00000000000E+00 -0.00000000000E+00 -0.45593999997E+02  0.45594000000E+02  0.51100000000E-03 0.  1.
    9900012    2    1    2    0    0  0.97982816615E+01 -0.13010285712E+02 -0.92414131762E+01  0.72461612860E+02  0.70000055450E+02 0.  0.
         12    1    1    2    0    0 -0.97982816615E+01  0.13010285712E+02  0.92414131762E+01  0.18726387140E+02  0.00000000000E+00 0. -1.
         11    1    3    3    0    0 -0.77734055524E+01 -0.12107459000E+02 -0.21588981377E+02  0.25944180744E+02  0.51100000000E-03 0. -1.
        -11    1    3    3    0    0  0.12236213216E+01 -0.13808314066E+02 -0.91302820079E+01  0.16599061307E+02  0.51100000000E-03 0.  1.
        -12    1    3    3    0    0  0.16348065892E+02  0.12905487354E+02  0.21477850209E+02  0.29918370809E+02  0.00000000000E+00 0.  1.
</event>
<event>
 7    1  0.2886818E-013  0.7246142E+02  0.7816164E-02  0.1226708E+00
        -11   -1    0    0    0    0  0.00000000000E+00  0.00000000000E+00  0.45593999997E+02  0.45594000000E+02  0.51100000000E-03 0. -1.
         11   -1    0    0    0    0 -0.00000000000E+00 -0.00000000000E+00 -0.45593999997E+02  0.45594000000E+02  0.51100000000E-03 0.  1.
    9900012    2    1    2    0    0  0.16897721467E+02  0.13320750711E+01  0.79609822097E+01  0.72461423898E+02  0.69999809291E+02 0.  0.
         12    1    1    2    0    0 -0.16897721467E+02 -0.13320750711E+01 -0.79609822097E+01  0.18726576102E+02  0.00000000000E+00 0. -1.
         11    1    3    3    0    0  0.14013037269E+02 -0.18981700328E+02  0.10041752175E+02  0.25641898288E+02  0.51100000000E-03 0. -1.
        -11    1    3    3    0    0  0.14605252367E+02 -0.34810520344E+01  0.96165382328E+01  0.17830000780E+02  0.51100000000E-03 0.  1.
        -12    1    3    3    0    0 -0.11720568168E+02  0.23794827433E+02 -0.11697308198E+02  0.28989524830E+02  0.00000000000E+00 0.  1.
</event>
<event>
 7    1  0.2886818E-013  0.7246133E+02  0.7816164E-02  0.1226709E+00
        -11   -1    0    0    0    0  0.00000000000E+00  0.00000000000E+00  0.45593999997E+02  0.45594000000E+02  0.51100000000E-03 0. -1.
         11   -1    0    0    0    0 -0.00000000000E+00 -0.00000000000E+00 -0.45593999997E+02  0.45594000000E+02  0.51100000000E-03 0.  1.
    9900012    2    1    2    0    0 -0.70985871787E+01 -0.11134665618E+02  0.13278455501E+02  0.72461331881E+02  0.69999689421E+02 0.  0.
         12    1    1    2    0    0  0.70985871787E+01  0.11134665618E+02 -0.13278455501E+02  0.18726668119E+02  0.00000000000E+00 0. -1.
         11    1    3    3    0    0  0.16023848135E+02 -0.22018012720E+01  0.19056375058E+01  0.16286285410E+02  0.51100000000E-03 0. -1.
        -11    1    3    3    0    0 -0.11830269056E+02 -0.28963481856E+02  0.20204706675E+01  0.31351568528E+02  0.51100000000E-03 0.  1.
         12    1    3    3    0    0 -0.11292166258E+02  0.20030617510E+02  0.93523473277E+01  0.24823477943E+02  0.00000000000E+00 0. -1.
</event>
<event>
 7    1  0.2886818E-013  0.7246156E+02  0.7816164E-02  0.1226708E+00
        -11   -1    0    0    0    0  0.00000000000E+00  0.00000000000E+00  0.45593999997E+02  0.45594000000E+02  0.51100000000E-03 0. -1.
         11   -1    0    0    0    0 -0.00000000000E+00 -0.00000000000E+00 -0.45593999997E+02  0.45594000000E+02  0.51100000000E-03 0.  1.
    9900012    2    1    2    0    0  0.63759056791E+01 -0.14465282823E+02 -0.10039078963E+02  0.72461556482E+02  0.69999982007E+02 0.  0.
         12    1    1    2    0    0 -0.63759056791E+01  0.14465282823E+02  0.10039078963E+02  0.18726443518E+02  0.00000000000E+00 0. -1.
         11    1    3    3    0    0  0.10111530168E+02 -0.77569022990E+01 -0.51030726292E+01  0.13727852204E+02  0.51100000000E-03 0. -1.
        -11    1    3    3    0    0 -0.50647269178E+01 -0.13999487212E+02 -0.29517462552E+02  0.33059305750E+02  0.51100000000E-03 0.  1.
        -12    1    3    3    0    0  0.13291024288E+01  0.72911066874E+01  0.24581456218E+02  0.25674398528E+02  0.00000000000E+00 0.  1.
</event>
<event>
 7    1  0.2886818E-013  0.7246159E+02  0.7816164E-02  0.1226708E+00
        -11   -1    0    0    0    0  0.00000000000E+00  0.00000000000E+00  0.45593999997E+02  0.45594000000E+02  0.51100000000E-03 0. -1.
         11   -1    0    0    0    0 -0.00000000000E+00 -0.00000000000E+00 -0.45593999997E+02  0.45594000000E+02  0.51100000000E-03 0.  1.
    9900012    2    1    2    0    0 -0.10781047088E+02  0.13866196118E+02 -0.64943131485E+01  0.72461588855E+02  0.70000024179E+02 0.  0.
         12    1    1    2    0    0  0.10781047088E+02 -0.13866196118E+02  0.64943131485E+01  0.18726411145E+02  0.00000000000E+00 0. -1.
         11    1    3    3    0    0 -0.27257401565E+02  0.19489771598E+02  0.30400932900E+01  0.33646088992E+02  0.51100000000E-03 0. -1.
        -11    1    3    3    0    0  0.89891685988E+01  0.10397718139E+02  0.62614091420E+01  0.15103739249E+02  0.51100000000E-03 0.  1.
        -12    1    3    3    0    0  0.74871858776E+01 -0.16021293618E+02 -0.15795815581E+02  0.23711760614E+02  0.00000000000E+00 0.  1.
</event>
<event>
 7    1  0.3021384E-013  0.7246171E+02  0.7816164E-02  0.1226708E+00
        -11   -1    0    0    0    0  0.00000000000E+00  0.00000000000E+00  0.45593999997E+02  0.45594000000E+02  0.51100000000E-03 0. -1.
         11   -1    0    0    0    0 -0.00000000000E+00 -0.00000000000E+00 -0.45593999997E+02  0.45594000000E+02  0.51100000000E-03 0.  1.
    9900012    2    1    2    0    0 -0.53865524911E+01  0.61439083827E+01 -0.16849666308E+02  0.72461713325E+02  0.70000186323E+02 0.  0.
         12    1    1    2    0    0  0.53865524911E+01 -0.61439083827E+01  0.16849666308E+02  0.18726286675E+02  0.00000000000E+00 0. -1.
         11    1    3    3    0    0 -0.16076687446E+01 -0.10262398793E+02  0.17449188129E+02  0.20307033127E+02  0.51100000000E-03 0. -1.
        -11    1    3    3    0    0 -0.13620091997E+02 -0.23304398641E+01 -0.26318405970E+01  0.14066429581E+02  0.51100000000E-03 0.  1.
        -12    1    3    3    0    0  0.98412082507E+01  0.18736747039E+02 -0.31667013841E+02  0.38088250617E+02  0.00000000000E+00 0.  1.
</event>
<event>
 7    1  0.2886818E-013  0.7246156E+02  0.7816164E-02  0.1226708E+00
        -11   -1    0    0    0    0  0.00000000000E+00  0.00000000000E+00  0.45593999997E+02  0.45594000000E+02  0.51100000000E-03 0.  1.
         11   -1    0    0    0    0 -0.00000000000E+00 -0.00000000000E+00 -0.45593999997E+02  0.45594000000E+02  0.51100000000E-03 0. -1.
    9900012    2    1    2    0    0  0.26342299033E+01  0.15982911760E+02  0.93961019764E+01  0.72461564999E+02  0.69999993101E+02 0.  0.
         12    1    1    2    0    0 -0.26342299033E+01 -0.15982911760E+02 -0.93961019764E+01  0.18726435001E+02  0.00000000000E+00 0. -1.
         11    1    3    3    0    0  0.54580900028E+01  0.18725473982E+02  0.62829770050E+01  0.20491703752E+02  0.51100000000E-03 0. -1.
        -11    1    3    3    0    0  0.39526739361E+01  0.13990000219E+02  0.21660847350E+02  0.26087085800E+02  0.51100000000E-03 0.  1.
         12    1    3    3    0    0 -0.67765340356E+01 -0.16732562441E+02 -0.18547722379E+02  0.25882775447E+02  0.00000000000E+00 0. -1.
</event>
<event>
 7    1  0.2886818E-013  0.7246157E+02  0.7816164E-02  0.1226708E+00
        -11   -1    0    0    0    0  0.00000000000E+00  0.00000000000E+00  0.45593999997E+02  0.45594000000E+02  0.51100000000E-03 0.  1.
         11   -1    0    0    0    0 -0.00000000000E+00 -0.00000000000E+00 -0.45593999997E+02  0.45594000000E+02  0.51100000000E-03 0. -1.
    9900012    2    1    2    0    0  0.39281029238E+01  0.10355133493E+02  0.15100344306E+02  0.72461570005E+02  0.69999999623E+02 0.  0.
         12    1    1    2    0    0 -0.39281029238E+01 -0.10355133493E+02 -0.15100344306E+02  0.18726429995E+02  0.00000000000E+00 0. -1.
         11    1    3    3    0    0 -0.10256522372E+02 -0.98157221780E+01  0.13995290150E+02  0.19935215065E+02  0.51100000000E-03 0. -1.
        -11    1    3    3    0    0  0.12657664259E+02 -0.64708344336E+01  0.16451704611E+02  0.21742740113E+02  0.51100000000E-03 0.  1.
        -12    1    3    3    0    0  0.15269610362E+01  0.26641690104E+02 -0.15346650455E+02  0.30783614827E+02  0.00000000000E+00 0.  1.
</event>
<event>
 7    1  0.2886818E-013  0.7246153E+02  0.7816164E-02  0.1226708E+00
        -11   -1    0    0    0    0  0.00000000000E+00  0.00000000000E+00  0.45593999997E+02  0.45594000000E+02  0.51100000000E-03 0.  1.
         11   -1    0    0    0    0 -0.00000000000E+00 -0.00000000000E+00 -0.45593999997E+02  0.45594000000E+02  0.51100000000E-03 0. -1.
    9900012    2    1    2    0    0  0.46434835963E+01  0.17250057798E+02  0.56173086248E+01  0.72461532364E+02  0.69999950589E+02 0.  0.
         12    1    1    2    0    0 -0.46434835963E+01 -0.17250057798E+02 -0.56173086248E+01  0.18726467636E+02  0.00000000000E+00 0. -1.
         11    1    3    3    0    0  0.71548143924E+01 -0.12149989225E+02  0.29887313304E+01  0.14413400792E+02  0.51100000000E-03 0. -1.
        -11    1    3    3    0    0  0.12352735363E+02 -0.78930602186E+01 -0.77505591438E+01  0.16581967249E+02  0.51100000000E-03 0.  1.
        -12    1    3    3    0    0 -0.14864066159E+02  0.37293107241E+02  0.10379136438E+02  0.41466164323E+02  0.00000000000E+00 0.  1.
</event>
<event>
 7    1  0.2886818E-013  0.7246156E+02  0.7816164E-02  0.1226708E+00
        -11   -1    0    0    0    0  0.00000000000E+00  0.00000000000E+00  0.45593999997E+02  0.45594000000E+02  0.51100000000E-03 0.  1.
         11   -1    0    0    0    0 -0.00000000000E+00 -0.00000000000E+00 -0.45593999997E+02  0.45594000000E+02  0.51100000000E-03 0. -1.
    9900012    2    1    2    0    0 -0.38493208058E+01  0.73798782442E+01  0.16774975341E+02  0.72461556898E+02  0.69999982549E+02 0.  0.
         12    1    1    2    0    0  0.38493208058E+01 -0.73798782442E+01 -0.16774975341E+02  0.18726443102E+02  0.00000000000E+00 0. -1.
         11    1    3    3    0    0  0.78275769700E+01  0.25787597147E+01  0.28575337123E+01  0.87227554171E+01  0.51100000000E-03 0. -1.
        -11    1    3    3    0    0 -0.12328126478E+02  0.75072058667E+01  0.37401663452E+02  0.40090214163E+02  0.51100000000E-03 0.  1.
         12    1    3    3    0    0  0.65122870224E+00 -0.27060873372E+01 -0.23484221823E+02  0.23648587318E+02  0.00000000000E+00 0. -1.
</event>
<event>
 7    1  0.2886818E-013  0.7246154E+02  0.7816164E-02  0.1226708E+00
        -11   -1    0    0    0    0  0.00000000000E+00  0.00000000000E+00  0.45593999997E+02  0.45594000000E+02  0.51100000000E-03 0.  1.
         11   -1    0    0    0    0 -0.00000000000E+00 -0.00000000000E+00 -0.45593999997E+02  0.45594000000E+02  0.51100000000E-03 0. -1.
    9900012    2    1    2    0    0  0.97358434173E+01 -0.83850771625E+01  0.13622928428E+02  0.72461538908E+02  0.69999959114E+02 0.  0.
         12    1    1    2    0    0 -0.97358434173E+01  0.83850771625E+01 -0.13622928428E+02  0.18726461092E+02  0.00000000000E+00 0. -1.
         11    1    3    3    0    0 -0.10933598052E+02 -0.13422407393E+01 -0.13963970649E+02  0.17785883534E+02  0.51100000000E-03 0. -1.
        -11    1    3    3    0    0  0.17768812804E+02  0.61953279370E+01 -0.49254970959E+01  0.19451820444E+02  0.51100000000E-03 0.  1.
        -12    1    3    3    0    0  0.29006286653E+01 -0.13238164360E+02  0.32512396172E+02  0.35223834930E+02  0.00000000000E+00 0.  1.
</event>
<event>
 7    1  0.2886818E-013  0.7246161E+02  0.7816164E-02  0.1226708E+00
        -11   -1    0    0    0    0  0.00000000000E+00  0.00000000000E+00  0.45593999997E+02  0.45594000000E+02  0.51100000000E-03 0.  1.
         11   -1    0    0    0    0 -0.00000000000E+00 -0.00000000000E+00 -0.45593999997E+02  0.45594000000E+02  0.51100000000E-03 0. -1.
    9900012    2    1    2    0    0  0.18247148168E+02 -0.18535404787E+01 -0.37793514957E+01  0.72461614169E+02  0.70000057155E+02 0.  0.
         12    1    1    2    0    0 -0.18247148168E+02  0.18535404787E+01  0.37793514957E+01  0.18726385831E+02  0.00000000000E+00 0. -1.
         11    1    3    3    0    0  0.15547895741E+02  0.16089278932E+02 -0.15459158434E+02  0.27195358763E+02  0.51100000000E-03 0. -1.
        -11    1    3    3    0    0  0.16474000706E+02 -0.22405572655E+01 -0.62268335478E+01  0.17753485642E+02  0.51100000000E-03 0.  1.
         12    1    3    3    0    0 -0.13774748279E+02 -0.15702262145E+02  0.17906640486E+02  0.27512769764E+02  0.00000000000E+00 0. -1.
</event>
<event>
 7    1  0.2886818E-013  0.7246158E+02  0.7816164E-02  0.1226708E+00
        -11   -1    0    0    0    0  0.00000000000E+00  0.00000000000E+00  0.45593999997E+02  0.45594000000E+02  0.51100000000E-03 0.  1.
         11   -1    0    0    0    0 -0.00000000000E+00 -0.00000000000E+00 -0.45593999997E+02  0.45594000000E+02  0.51100000000E-03 0. -1.
    9900012    2    1    2    0    0  0.75462077798E+01  0.15249300986E+02  0.78225452754E+01  0.72461584246E+02  0.70000018175E+02 0.  0.
         12    1    1    2    0    0 -0.75462077798E+01 -0.15249300986E+02 -0.78225452754E+01  0.18726415754E+02  0.00000000000E+00 0. -1.
         11    1    3    3    0    0 -0.97412339825E+01 -0.37878278061E+00  0.28161327532E+01  0.10147202562E+02  0.51100000000E-03 0. -1.
        -11    1    3    3    0    0  0.28280018319E+02  0.17817009698E+02  0.23381289650E+02  0.40790807502E+02  0.51100000000E-03 0.  1.
         12    1    3    3    0    0 -0.10992576557E+02 -0.21889259313E+01 -0.18374877128E+02  0.21523574182E+02  0.00000000000E+00 0. -1.
</event>
<event>
 7    1  0.2886818E-013  0.7246156E+02  0.7816164E-02  0.1226708E+00
        -11   -1    0    0    0    0  0.00000000000E+00  0.00000000000E+00  0.45593999997E+02  0.45594000000E+02  0.51100000000E-03 0. -1.
         11   -1    0    0    0    0 -0.00000000000E+00 -0.00000000000E+00 -0.45593999997E+02  0.45594000000E+02  0.51100000000E-03 0.  1.
    9900012    2    1    2    0    0 -0.98185499572E+01 -0.15109233419E+02 -0.50977033395E+01  0.72461563150E+02  0.69999990693E+02 0.  0.
         12    1    1    2    0    0  0.98185499572E+01  0.15109233419E+02  0.50977033395E+01  0.18726436850E+02  0.00000000000E+00 0. -1.
         11    1    3    3    0    0 -0.13436893196E+02 -0.45713863044E+01 -0.53641657915E+01  0.15173066480E+02  0.51100000000E-03 0. -1.
        -11    1    3    3    0    0  0.70064638919E+01 -0.23106286027E+02 -0.21234428949E+02  0.32154190447E+02  0.51100000000E-03 0.  1.
         12    1    3    3    0    0 -0.33881206528E+01  0.12568438913E+02  0.21500891401E+02  0.25134306223E+02  0.00000000000E+00 0. -1.
</event>
<event>
 7    1  0.2886818E-013  0.7246158E+02  0.7816164E-02  0.1226708E+00
        -11   -1    0    0    0    0  0.00000000000E+00  0.00000000000E+00  0.45593999997E+02  0.45594000000E+02  0.51100000000E-03 0.  1.
         11   -1    0    0    0    0 -0.00000000000E+00 -0.00000000000E+00 -0.45593999997E+02  0.45594000000E+02  0.51100000000E-03 0. -1.
    9900012    2    1    2    0    0  0.12610100849E+02  0.26155694411E+01  0.13594961214E+02  0.72461579698E+02  0.70000012250E+02 0.  0.
         12    1    1    2    0    0 -0.12610100849E+02 -0.26155694411E+01 -0.13594961214E+02  0.18726420302E+02  0.00000000000E+00 0. -1.
         11    1    3    3    0    0  0.17806520956E+02 -0.10426124236E+02  0.11658788615E+01  0.20667257411E+02  0.51100000000E-03 0. -1.
        -11    1    3    3    0    0  0.20117574813E+02  0.11004308465E+01  0.12677008489E+02  0.23804081770E+02  0.51100000000E-03 0.  1.
        -12    1    3    3    0    0 -0.25313994920E+02  0.11941262830E+02 -0.24792613743E+00  0.27990240516E+02  0.00000000000E+00 0.  1.
</event>
<event>
 7    1  0.2886818E-013  0.7246155E+02  0.7816164E-02  0.1226708E+00
        -11   -1    0    0    0    0  0.00000000000E+00  0.00000000000E+00  0.45593999997E+02  0.45594000000E+02  0.51100000000E-03 0.  1.
         11   -1    0    0    0    0 -0.00000000000E+00 -0.00000000000E+00 -0.45593999997E+02  0.45594000000E+02  0.51100000000E-03 0. -1.
    9900012    2    1    2    0    0  0.12386625293E+02  0.10135921622E+02  0.97218669713E+01  0.72461545699E+02  0.69999967960E+02 0.  0.
         12    1    1    2    0    0 -0.12386625293E+02 -0.10135921622E+02 -0.97218669713E+01  0.18726454301E+02  0.00000000000E+00 0. -1.
         11    1    3    3    0    0 -0.15290747441E+02 -0.10666283408E+02 -0.93912244641E+01  0.20875144460E+02  0.51100000000E-03 0. -1.
        -11    1    3    3    0    0  0.13807675274E+02  0.30072380950E+01  0.24597404341E+02  0.28367722468E+02  0.51100000000E-03 0.  1.
        -12    1    3    3    0    0  0.13869697460E+02  0.17794966935E+02 -0.54843129053E+01  0.23218678771E+02  0.00000000000E+00 0.  1.
</event>
<event>
 7    1  0.2886818E-013  0.7246157E+02  0.7816164E-02  0.1226708E+00
        -11   -1    0    0    0    0  0.00000000000E+00  0.00000000000E+00  0.45593999997E+02  0.45594000000E+02  0.51100000000E-03 0. -1.
         11   -1    0    0    0    0 -0.00000000000E+00 -0.00000000000E+00 -0.45593999997E+02  0.45594000000E+02  0.51100000000E-03 0.  1.
    9900012    2    1    2    0    0  0.45091996875E+01  0.94321319582E+01 -0.15536443971E+02  0.72461572515E+02  0.70000002893E+02 0.  0.
         12    1    1    2    0    0 -0.45091996875E+01 -0.94321319582E+01  0.15536443971E+02  0.18726427485E+02  0.00000000000E+00 0. -1.
         11    1    3    3    0    0 -0.15456489984E+01  0.19393756817E+02 -0.10352648969E+02  0.22038243470E+02  0.51100000000E-03 0. -1.
        -11    1    3    3    0    0  0.12519436805E+02  0.16367345828E+02  0.54281800179E+01  0.21309421530E+02  0.51100000000E-03 0.  1.
         12    1    3    3    0    0 -0.64645881192E+01 -0.26328970687E+02 -0.10611975019E+02  0.29113907515E+02  0.00000000000E+00 0. -1.
</event>
<event>
 7    1  0.2886818E-013  0.7246166E+02  0.7816164E-02  0.1226708E+00
        -11   -1    0    0    0    0  0.00000000000E+00  0.00000000000E+00  0.45593999997E+02  0.45594000000E+02  0.51100000000E-03 0.  1.
         11   -1    0    0    0    0 -0.00000000000E+00 -0.00000000000E+00 -0.45593999997E+02  0.45594000000E+02  0.51100000000E-03 0. -1.
    9900012    2    1    2    0    0 -0.14632912874E+02  0.17413955492E+01 -0.11555144451E+02  0.72461655965E+02  0.70000111602E+02 0.  0.
         12    1    1    2    0    0  0.14632912874E+02 -0.17413955492E+01  0.11555144451E+02  0.18726344035E+02  0.00000000000E+00 0. -1.
         11    1    3    3    0    0  0.11569713407E+02 -0.84375995566E+00 -0.17345295281E+01  0.11729398626E+02  0.51100000000E-03 0. -1.
        -11    1    3    3    0    0 -0.33002878653E+01 -0.22469158468E+02  0.56894262180E+01  0.23412059995E+02  0.51100000000E-03 0.  1.
        -12    1    3    3    0    0 -0.22902338416E+02  0.25054313973E+02 -0.15510041141E+02  0.37320197344E+02  0.00000000000E+00 0.  1.
</event>
<event>
 7    1  0.2886818E-013  0.7246169E+02  0.7816164E-02  0.1226708E+00
        -11   -1    0    0    0    0  0.00000000000E+00  0.00000000000E+00  0.45593999997E+02  0.45594000000E+02  0.51100000000E-03 0.  1.
         11   -1    0    0    0    0 -0.00000000000E+00 -0.00000000000E+00 -0.45593999997E+02  0.45594000000E+02  0.51100000000E-03 0. -1.
    9900012    2    1    2    0    0  0.21121229080E+01 -0.16922529502E+02  0.77357425617E+01  0.72461687472E+02  0.70000152645E+02 0.  0.
         12    1    1    2    0    0 -0.21121229080E+01  0.16922529502E+02 -0.77357425617E+01  0.18726312528E+02  0.00000000000E+00 0. -1.
         11    1    3    3    0    0 -0.22545852570E+02 -0.14409037651E+02  0.35919180463E+01  0.26996994456E+02  0.51100000000E-03 0. -1.
        -11    1    3    3    0    0  0.15581470427E+02 -0.18962111420E+02  0.88635855415E+01  0.26094195505E+02  0.51100000000E-03 0.  1.
         12    1    3    3    0    0  0.90765050515E+01  0.16448619569E+02 -0.47197610261E+01  0.19370497511E+02  0.00000000000E+00 0. -1.
</event>
<event>
 7    1  0.2886818E-013  0.7246125E+02  0.7816164E-02  0.1226709E+00
        -11   -1    0    0    0    0  0.00000000000E+00  0.00000000000E+00  0.45593999997E+02  0.45594000000E+02  0.51100000000E-03 0. -1.
         11   -1    0    0    0    0 -0.00000000000E+00 -0.00000000000E+00 -0.45593999997E+02  0.45594000000E+02  0.51100000000E-03 0.  1.
    9900012    2    1    2    0    0 -0.10110787099E+02 -0.15177401165E+02 -0.42555577512E+01  0.72461246580E+02  0.69999578301E+02 0.  0.
         12    1    1    2    0    0  0.10110787099E+02  0.15177401165E+02  0.42555577512E+01  0.18726753420E+02  0.00000000000E+00 0. -1.
         11    1    3    3    0    0  0.34579189384E+01  0.16886788420E+02  0.66433491114E+01  0.18473086212E+02  0.51100000000E-03 0. -1.
        -11    1    3    3    0    0  0.14082535801E+02 -0.13488295712E+02 -0.27354988587E+01  0.19690984994E+02  0.51100000000E-03 0.  1.
        -12    1    3    3    0    0 -0.27651241838E+02 -0.18575893873E+02 -0.81634080038E+01  0.34297175373E+02  0.00000000000E+00 0.  1.
</event>
<event>
 7    1  0.2886818E-013  0.7246160E+02  0.7816164E-02  0.1226708E+00
        -11   -1    0    0    0    0  0.00000000000E+00  0.00000000000E+00  0.45593999997E+02  0.45594000000E+02  0.51100000000E-03 0.  1.
         11   -1    0    0    0    0 -0.00000000000E+00 -0.00000000000E+00 -0.45593999997E+02  0.45594000000E+02  0.51100000000E-03 0. -1.
    9900012    2    1    2    0    0 -0.46300647233E+01 -0.99158892184E+01  0.15195909863E+02  0.72461600589E+02  0.70000039465E+02 0.  0.
         12    1    1    2    0    0  0.46300647233E+01  0.99158892184E+01 -0.15195909863E+02  0.18726399411E+02  0.00000000000E+00 0. -1.
         11    1    3    3    0    0  0.73960717709E+01 -0.57794281768E+01 -0.97195246924E+01  0.13511951310E+02  0.51100000000E-03 0. -1.
        -11    1    3    3    0    0  0.79464337639E+01  0.19776984366E+02  0.15656030562E+02  0.26445911090E+02  0.51100000000E-03 0.  1.
         12    1    3    3    0    0 -0.19972570258E+02 -0.23913445408E+02  0.92594039934E+01  0.32503738190E+02  0.00000000000E+00 0. -1.
</event>
<event>
 7    1  0.2886818E-013  0.7246169E+02  0.7816164E-02  0.1226708E+00
        -11   -1    0    0    0    0  0.00000000000E+00  0.00000000000E+00  0.45593999997E+02  0.45594000000E+02  0.51100000000E-03 0.  1.
         11   -1    0    0    0    0 -0.00000000000E+00 -0.00000000000E+00 -0.45593999997E+02  0.45594000000E+02  0.51100000000E-03 0. -1.
    9900012    2    1    2    0    0  0.46947932953E+01 -0.16264201785E+02  0.80068317208E+01  0.72461689685E+02  0.70000155529E+02 0.  0.
         12    1    1    2    0    0 -0.46947932953E+01  0.16264201785E+02 -0.80068317208E+01  0.18726310315E+02  0.00000000000E+00 0. -1.
         11    1    3    3    0    0  0.21912057607E+02  0.34564046058E+01  0.11508146581E+02  0.24990446962E+02  0.51100000000E-03 0. -1.
        -11    1    3    3    0    0  0.10058202110E+02  0.42490357124E+01 -0.21909905665E+01  0.11136524328E+02  0.51100000000E-03 0.  1.
        -12    1    3    3    0    0 -0.27275466422E+02 -0.23969642104E+02 -0.13103242939E+01  0.36334718395E+02  0.00000000000E+00 0.  1.
</event>
<event>
 7    1  0.2886818E-013  0.7246155E+02  0.7816164E-02  0.1226708E+00
        -11   -1    0    0    0    0  0.00000000000E+00  0.00000000000E+00  0.45593999997E+02  0.45594000000E+02  0.51100000000E-03 0.  1.
         11   -1    0    0    0    0 -0.00000000000E+00 -0.00000000000E+00 -0.45593999997E+02  0.45594000000E+02  0.51100000000E-03 0. -1.
    9900012    2    1    2    0    0 -0.14713397919E+01  0.16178581066E+02 -0.93149732917E+01  0.72461546691E+02  0.69999969253E+02 0.  0.
         12    1    1    2    0    0  0.14713397919E+01 -0.16178581066E+02  0.93149732917E+01  0.18726453309E+02  0.00000000000E+00 0. -1.
         11    1    3    3    0    0 -0.17885478050E+02  0.78672088637E+01 -0.20354248594E+02  0.28214867295E+02  0.51100000000E-03 0. -1.
        -11    1    3    3    0    0 -0.10118670678E+02  0.12396032400E+02  0.42286789302E+01  0.16550856211E+02  0.51100000000E-03 0.  1.
        -12    1    3    3    0    0  0.26532808936E+02 -0.40846601980E+01  0.68105963722E+01  0.27695823185E+02  0.00000000000E+00 0.  1.
</event>
<event>
 7    1  0.2886818E-013  0.7246160E+02  0.7816164E-02  0.1226708E+00
        -11   -1    0    0    0    0  0.00000000000E+00  0.00000000000E+00  0.45593999997E+02  0.45594000000E+02  0.51100000000E-03 0.  1.
         11   -1    0    0    0    0 -0.00000000000E+00 -0.00000000000E+00 -0.45593999997E+02  0.45594000000E+02  0.51100000000E-03 0. -1.
    9900012    2    1    2    0    0  0.16501285747E+01 -0.13327438998E+02  0.13051223863E+02  0.72461601551E+02  0.70000040717E+02 0.  0.
         12    1    1    2    0    0 -0.16501285747E+01  0.13327438998E+02 -0.13051223863E+02  0.18726398449E+02  0.00000000000E+00 0. -1.
         11    1    3    3    0    0  0.13054386286E+02 -0.29535391191E+01 -0.19682181269E+00  0.13385781027E+02  0.51100000000E-03 0. -1.
        -11    1    3    3    0    0  0.12453155121E+02 -0.17231663344E+02  0.23966143015E+02  0.32037279931E+02  0.51100000000E-03 0.  1.
         12    1    3    3    0    0 -0.23857412832E+02  0.68577634647E+01 -0.10718097340E+02  0.27038540593E+02  0.00000000000E+00 0. -1.
</event>
<event>
 7    1  0.2886818E-013  0.7246156E+02  0.7816164E-02  0.1226708E+00
        -11   -1    0    0    0    0  0.00000000000E+00  0.00000000000E+00  0.45593999997E+02  0.45594000000E+02  0.51100000000E-03 0.  1.
         11   -1    0    0    0    0 -0.00000000000E+00 -0.00000000000E+00 -0.45593999997E+02  0.45594000000E+02  0.51100000000E-03 0. -1.
    9900012    2    1    2    0    0  0.17001798121E+01 -0.61876869937E+01  0.17592655786E+02  0.72461558284E+02  0.69999984354E+02 0.  0.
         12    1    1    2    0    0 -0.17001798121E+01  0.61876869937E+01 -0.17592655786E+02  0.18726441716E+02  0.00000000000E+00 0. -1.
         11    1    3    3    0    0 -0.52310747149E+01  0.35736943329E+01 -0.49290812687E+01  0.80269095094E+01  0.51100000000E-03 0. -1.
        -11    1    3    3    0    0  0.45438560299E+01 -0.27707169744E+02 -0.77812825495E+01  0.29135583763E+02  0.51100000000E-03 0.  1.
         12    1    3    3    0    0  0.23873984971E+01  0.17945788418E+02  0.30303019605E+02  0.35299065011E+02  0.00000000000E+00 0. -1.
</event>
<event>
 7    1  0.2886818E-013  0.7246149E+02  0.7816164E-02  0.1226708E+00
        -11   -1    0    0    0    0  0.00000000000E+00  0.00000000000E+00  0.45593999997E+02  0.45594000000E+02  0.51100000000E-03 0. -1.
         11   -1    0    0    0    0 -0.00000000000E+00 -0.00000000000E+00 -0.45593999997E+02  0.45594000000E+02  0.51100000000E-03 0.  1.
    9900012    2    1    2    0    0  0.68755049829E+01  0.15232888160E+02 -0.84479971724E+01  0.72461491871E+02  0.69999897839E+02 0.  0.
         12    1    1    2    0    0 -0.68755049829E+01 -0.15232888160E+02  0.84479971724E+01  0.18726508129E+02  0.00000000000E+00 0. -1.
         11    1    3    3    0    0  0.23486669606E+02 -0.71895233794E+01  0.15694160044E+02  0.29148234172E+02  0.51100000000E-03 0. -1.
        -11    1    3    3    0    0 -0.90995952726E+00 -0.46095316961E+01 -0.32869347665E+01  0.57340866072E+01  0.51100000000E-03 0.  1.
        -12    1    3    3    0    0 -0.15701205095E+02  0.27031943236E+02 -0.20855222450E+02  0.37579171092E+02  0.00000000000E+00 0.  1.
</event>
<event>
 7    1  0.2886818E-013  0.7246166E+02  0.7816164E-02  0.1226708E+00
        -11   -1    0    0    0    0  0.00000000000E+00  0.00000000000E+00  0.45593999997E+02  0.45594000000E+02  0.51100000000E-03 0. -1.
         11   -1    0    0    0    0 -0.00000000000E+00 -0.00000000000E+00 -0.45593999997E+02  0.45594000000E+02  0.51100000000E-03 0.  1.
    9900012    2    1    2    0    0  0.15454527140E+02 -0.92804860751E+01 -0.50701104982E+01  0.72461658890E+02  0.70000115412E+02 0.  0.
         12    1    1    2    0    0 -0.15454527140E+02  0.92804860751E+01  0.50701104982E+01  0.18726341110E+02  0.00000000000E+00 0. -1.
         11    1    3    3    0    0  0.11808748965E+02 -0.24901395475E+02  0.11658551517E+02  0.29924035030E+02  0.51100000000E-03 0. -1.
        -11    1    3    3    0    0  0.10050046353E+02 -0.90862909834E+01 -0.49156147198E+01  0.14412750739E+02  0.51100000000E-03 0.  1.
        -12    1    3    3    0    0 -0.64042681782E+01  0.24707200383E+02 -0.11813047295E+02  0.28124873121E+02  0.00000000000E+00 0.  1.
</event>
<event>
 7    1  0.2886818E-013  0.7246156E+02  0.7816164E-02  0.1226708E+00
        -11   -1    0    0    0    0  0.00000000000E+00  0.00000000000E+00  0.45593999997E+02  0.45594000000E+02  0.51100000000E-03 0. -1.
         11   -1    0    0    0    0 -0.00000000000E+00 -0.00000000000E+00 -0.45593999997E+02  0.45594000000E+02  0.51100000000E-03 0.  1.
    9900012    2    1    2    0    0  0.17229109929E+02 -0.42761845205E+01 -0.59625099677E+01  0.72461561254E+02  0.69999988224E+02 0.  0.
         12    1    1    2    0    0 -0.17229109929E+02  0.42761845205E+01  0.59625099677E+01  0.18726438746E+02  0.00000000000E+00 0. -1.
         11    1    3    3    0    0 -0.43422854733E+01 -0.18998725588E+02  0.75909862795E+01  0.20914829430E+02  0.51100000000E-03 0. -1.
        -11    1    3    3    0    0 -0.78438142837E+01  0.17813680752E+02 -0.96118206686E+01  0.21708057059E+02  0.51100000000E-03 0.  1.
        -12    1    3    3    0    0  0.29415209686E+02 -0.30911396843E+01 -0.39416755786E+01  0.29838674766E+02  0.00000000000E+00 0.  1.
</event>
<event>
 7    1  0.2886818E-013  0.7246154E+02  0.7816164E-02  0.1226708E+00
        -11   -1    0    0    0    0  0.00000000000E+00  0.00000000000E+00  0.45593999997E+02  0.45594000000E+02  0.51100000000E-03 0.  1.
         11   -1    0    0    0    0 -0.00000000000E+00 -0.00000000000E+00 -0.45593999997E+02  0.45594000000E+02  0.51100000000E-03 0. -1.
    9900012    2    1    2    0    0 -0.16587447910E+02  0.84434567694E+01  0.20603067009E+01  0.72461541336E+02  0.69999962277E+02 0.  0.
         12    1    1    2    0    0  0.16587447910E+02 -0.84434567694E+01 -0.20603067009E+01  0.18726458664E+02  0.00000000000E+00 0. -1.
         11    1    3    3    0    0  0.10884315818E+02 -0.53968631686E+01 -0.45927300921E+01  0.12987980322E+02  0.51100000000E-03 0. -1.
        -11    1    3    3    0    0 -0.14457499445E+02 -0.13638848860E+02  0.18200060479E+02  0.26949576808E+02  0.51100000000E-03 0.  1.
         12    1    3    3    0    0 -0.13014264283E+02  0.27479168798E+02 -0.11547023686E+02  0.32523984207E+02  0.00000000000E+00 0. -1.
</event>
<event>
 7    1  0.2886818E-013  0.7246156E+02  0.7816164E-02  0.1226708E+00
        -11   -1    0    0    0    0  0.00000000000E+00  0.00000000000E+00  0.45593999997E+02  0.45594000000E+02  0.51100000000E-03 0. -1.
         11   -1    0    0    0    0 -0.00000000000E+00 -0.00000000000E+00 -0.45593999997E+02  0.45594000000E+02  0.51100000000E-03 0.  1.
    9900012    2    1    2    0    0  0.21051428414E+00 -0.15895307400E+02 -0.98982074102E+01  0.72461558172E+02  0.69999984209E+02 0.  0.
         12    1    1    2    0    0 -0.21051428414E+00  0.15895307400E+02  0.98982074102E+01  0.18726441828E+02  0.00000000000E+00 0. -1.
         11    1    3    3    0    0  0.12181636148E+01  0.26251994138E+01  0.49047309865E+01  0.56949083281E+01  0.51100000000E-03 0. -1.
        -11    1    3    3    0    0  0.25408985168E+02  0.67925178323E+01  0.22571719099E+01  0.26397909975E+02  0.51100000000E-03 0.  1.
         12    1    3    3    0    0 -0.26416634498E+02 -0.25313024646E+02 -0.17060110307E+02  0.40368739869E+02  0.00000000000E+00 0. -1.
</event>
<event>
 7    1  0.2886818E-013  0.7246163E+02  0.7816164E-02  0.1226708E+00
        -11   -1    0    0    0    0  0.00000000000E+00  0.00000000000E+00  0.45593999997E+02  0.45594000000E+02  0.51100000000E-03 0. -1.
         11   -1    0    0    0    0 -0.00000000000E+00 -0.00000000000E+00 -0.45593999997E+02  0.45594000000E+02  0.51100000000E-03 0.  1.
    9900012    2    1    2    0    0 -0.11088286621E+02  0.11117714863E+02 -0.10204087830E+02  0.72461625754E+02  0.70000072247E+02 0.  0.
         12    1    1    2    0    0  0.11088286621E+02 -0.11117714863E+02  0.10204087830E+02  0.18726374246E+02  0.00000000000E+00 0. -1.
         11    1    3    3    0    0  0.11018813503E+02 -0.20273629956E+02 -0.10831414310E+02  0.25490269885E+02  0.51100000000E-03 0. -1.
        -11    1    3    3    0    0 -0.22402658234E+01 -0.39933401529E+01 -0.40620476906E+01  0.61209303409E+01  0.51100000000E-03 0.  1.
        -12    1    3    3    0    0 -0.19866834301E+02  0.35384684972E+02  0.46893741707E+01  0.40850425528E+02  0.00000000000E+00 0.  1.
</event>
<event>
 7    1  0.2886818E-013  0.7246160E+02  0.7816164E-02  0.1226708E+00
        -11   -1    0    0    0    0  0.00000000000E+00  0.00000000000E+00  0.45593999997E+02  0.45594000000E+02  0.51100000000E-03 0. -1.
         11   -1    0    0    0    0 -0.00000000000E+00 -0.00000000000E+00 -0.45593999997E+02  0.45594000000E+02  0.51100000000E-03 0.  1.
    9900012    2    1    2    0    0 -0.57005010670E+01 -0.84628750844E+00 -0.17817576998E+02  0.72461602454E+02  0.70000041894E+02 0.  0.
         12    1    1    2    0    0  0.57005010670E+01  0.84628750844E+00  0.17817576998E+02  0.18726397546E+02  0.00000000000E+00 0. -1.
         11    1    3    3    0    0 -0.21167830276E+01  0.19960965906E+02 -0.88965704336E+01  0.21956090180E+02  0.51100000000E-03 0. -1.
        -11    1    3    3    0    0  0.68359218116E+01  0.96230837035E+01 -0.13593344409E+02  0.18003126936E+02  0.51100000000E-03 0.  1.
         12    1    3    3    0    0 -0.10419639851E+02 -0.30430337117E+02  0.46723378446E+01  0.32502385338E+02  0.00000000000E+00 0. -1.
</event>
<event>
 7    1  0.2886818E-013  0.7246164E+02  0.7816164E-02  0.1226708E+00
        -11   -1    0    0    0    0  0.00000000000E+00  0.00000000000E+00  0.45593999997E+02  0.45594000000E+02  0.51100000000E-03 0.  1.
         11   -1    0    0    0    0 -0.00000000000E+00 -0.00000000000E+00 -0.45593999997E+02  0.45594000000E+02  0.51100000000E-03 0. -1.
    9900012    2    1    2    0    0 -0.13551051807E+02  0.99091716208E+01  0.82978323360E+01  0.72461635997E+02  0.70000085590E+02 0.  0.
         12    1    1    2    0    0  0.13551051807E+02 -0.99091716208E+01 -0.82978323360E+01  0.18726364003E+02  0.00000000000E+00 0. -1.
         11    1    3    3    0    0  0.71690290328E+01 -0.17270616438E+01 -0.29783367242E+01  0.79528742665E+01  0.51100000000E-03 0. -1.
        -11    1    3    3    0    0  0.33448738866E+01  0.21687671448E+02 -0.15703931267E+02  0.26984379401E+02  0.51100000000E-03 0.  1.
        -12    1    3    3    0    0 -0.24064954727E+02 -0.10051438183E+02  0.26980100328E+02  0.37524382330E+02  0.00000000000E+00 0.  1.
</event>
<event>
 7    1  0.2886818E-013  0.7246155E+02  0.7816164E-02  0.1226708E+00
        -11   -1    0    0    0    0  0.00000000000E+00  0.00000000000E+00  0.45593999997E+02  0.45594000000E+02  0.51100000000E-03 0.  1.
         11   -1    0    0    0    0 -0.00000000000E+00 -0.00000000000E+00 -0.45593999997E+02  0.45594000000E+02  0.51100000000E-03 0. -1.
    9900012    2    1    2    0    0 -0.11084033344E+02 -0.15071762947E+02  0.81606463968E+00  0.72461553594E+02  0.69999978245E+02 0.  0.
         12    1    1    2    0    0  0.11084033344E+02  0.15071762947E+02 -0.81606463968E+00  0.18726446406E+02  0.00000000000E+00 0. -1.
         11    1    3    3    0    0 -0.11304719633E+01 -0.53014529338E+01 -0.58751739215E+01  0.79938125408E+01  0.51100000000E-03 0. -1.
        -11    1    3    3    0    0 -0.29673881360E+02 -0.23595634767E+02 -0.39910950346E+01  0.38121149705E+02  0.51100000000E-03 0.  1.
         12    1    3    3    0    0  0.19720319979E+02  0.13825324753E+02  0.10682333596E+02  0.26346591348E+02  0.00000000000E+00 0. -1.
</event>
<event>
 7    1  0.2886818E-013  0.7246158E+02  0.7816164E-02  0.1226708E+00
        -11   -1    0    0    0    0  0.00000000000E+00  0.00000000000E+00  0.45593999997E+02  0.45594000000E+02  0.51100000000E-03 0. -1.
         11   -1    0    0    0    0 -0.00000000000E+00 -0.00000000000E+00 -0.45593999997E+02  0.45594000000E+02  0.51100000000E-03 0.  1.
    9900012    2    1    2    0    0 -0.39542434315E+01  0.71333807738E+01 -0.16856975368E+02  0.72461580670E+02  0.70000013516E+02 0.  0.
         12    1    1    2    0    0  0.39542434315E+01 -0.71333807738E+01  0.16856975368E+02  0.18726419330E+02  0.00000000000E+00 0. -1.
         11    1    3    3    0    0  0.84126960820E+01  0.12848072079E+02  0.81431742151E+01  0.17382683857E+02  0.51100000000E-03 0. -1.
        -11    1    3    3    0    0  0.10576786252E+02  0.37563894673E+01 -0.27914690741E+02  0.30086688563E+02  0.51100000000E-03 0.  1.
         12    1    3    3    0    0 -0.22943725766E+02 -0.94710807729E+01  0.29145411586E+01  0.24992208249E+02  0.00000000000E+00 0. -1.
</event>
<event>
 7    1  0.2886818E-013  0.7246163E+02  0.7816164E-02  0.1226708E+00
        -11   -1    0    0    0    0  0.00000000000E+00  0.00000000000E+00  0.45593999997E+02  0.45594000000E+02  0.51100000000E-03 0.  1.
         11   -1    0    0    0    0 -0.00000000000E+00 -0.00000000000E+00 -0.45593999997E+02  0.45594000000E+02  0.51100000000E-03 0. -1.
    9900012    2    1    2    0    0  0.17634817487E+01  0.18622533774E+02  0.87655522608E+00  0.72461628726E+02  0.70000076118E+02 0.  0.
         12    1    1    2    0    0 -0.17634817487E+01 -0.18622533774E+02 -0.87655522608E+00  0.18726371274E+02  0.00000000000E+00 0. -1.
         11    1    3    3    0    0 -0.14541415200E+02  0.17587489366E+02  0.18478239393E+01  0.22895130307E+02  0.51100000000E-03 0. -1.
        -11    1    3    3    0    0 -0.15948317829E+02 -0.34862876158E+01  0.34899431878E+01  0.16693793656E+02  0.51100000000E-03 0.  1.
        -12    1    3    3    0    0  0.32253214778E+02  0.45213320236E+01 -0.44612119010E+01  0.32872704763E+02  0.00000000000E+00 0.  1.
</event>
<event>
 7    1  0.2886818E-013  0.7246182E+02  0.7816164E-02  0.1226707E+00
        -11   -1    0    0    0    0  0.00000000000E+00  0.00000000000E+00  0.45593999997E+02  0.45594000000E+02  0.51100000000E-03 0.  1.
         11   -1    0    0    0    0 -0.00000000000E+00 -0.00000000000E+00 -0.45593999997E+02  0.45594000000E+02  0.51100000000E-03 0. -1.
    9900012    2    1    2    0    0 -0.59616289657E+01  0.11184679607E+02  0.13785198770E+02  0.72461820919E+02  0.70000326485E+02 0.  0.
         12    1    1    2    0    0  0.59616289657E+01 -0.11184679607E+02 -0.13785198770E+02  0.18726179081E+02  0.00000000000E+00 0. -1.
         11    1    3    3    0    0  0.12493719728E+02  0.97283848711E+01  0.41998353999E+01  0.16382097622E+02  0.51100000000E-03 0. -1.
        -11    1    3    3    0    0  0.15466975076E+02  0.40471870539E+01  0.14648675523E+02  0.21683881938E+02  0.51100000000E-03 0.  1.
         12    1    3    3    0    0 -0.33922323769E+02 -0.25908923184E+01 -0.50633121526E+01  0.34395841360E+02  0.00000000000E+00 0. -1.
</event>
<event>
 7    1  0.2886818E-013  0.7246157E+02  0.7816164E-02  0.1226708E+00
        -11   -1    0    0    0    0  0.00000000000E+00  0.00000000000E+00  0.45593999997E+02  0.45594000000E+02  0.51100000000E-03 0.  1.
         11   -1    0    0    0    0 -0.00000000000E+00 -0.00000000000E+00 -0.45593999997E+02  0.45594000000E+02  0.51100000000E-03 0. -1.
    9900012    2    1    2    0    0 -0.10890294115E+02 -0.14690610784E+02 -0.40331850129E+01  0.72461571284E+02  0.70000001289E+02 0.  0.
         12    1    1    2    0    0  0.10890294115E+02  0.14690610784E+02  0.40331850129E+01  0.18726428716E+02  0.00000000000E+00 0. -1.
         11    1    3    3    0    0 -0.26319274835E+02 -0.23888128170E+01  0.17822347703E+01  0.26487487905E+02  0.51100000000E-03 0. -1.
        -11    1    3    3    0    0 -0.11885502593E+02 -0.73829985581E+01  0.67183965158E+01  0.15521298000E+02  0.51100000000E-03 0.  1.
        -12    1    3    3    0    0  0.27314483313E+02 -0.49187994092E+01 -0.12533816299E+02  0.30452785378E+02  0.00000000000E+00 0.  1.
</event>
<event>
 7    1  0.2886818E-013  0.7246171E+02  0.7816164E-02  0.1226708E+00
        -11   -1    0    0    0    0  0.00000000000E+00  0.00000000000E+00  0.45593999997E+02  0.45594000000E+02  0.51100000000E-03 0. -1.
         11   -1    0    0    0    0 -0.00000000000E+00 -0.00000000000E+00 -0.45593999997E+02  0.45594000000E+02  0.51100000000E-03 0.  1.
    9900012    2    1    2    0    0  0.43126372413E+01 -0.73425509966E+01 -0.16678195236E+02  0.72461705881E+02  0.70000176626E+02 0.  0.
         12    1    1    2    0    0 -0.43126372413E+01  0.73425509966E+01  0.16678195236E+02  0.18726294119E+02  0.00000000000E+00 0. -1.
         11    1    3    3    0    0  0.17860878152E+02  0.12599855783E+02 -0.19765762456E+02  0.29469521541E+02  0.51100000000E-03 0. -1.
        -11    1    3    3    0    0  0.71232321104E+01  0.15707996626E+01  0.99895085863E+01  0.12369241259E+02  0.51100000000E-03 0.  1.
        -12    1    3    3    0    0 -0.20671473021E+02 -0.21513206442E+02 -0.69019413658E+01  0.30622943080E+02  0.00000000000E+00 0.  1.
</event>
<event>
 7    1  0.2886818E-013  0.7246157E+02  0.7816164E-02  0.1226708E+00
        -11   -1    0    0    0    0  0.00000000000E+00  0.00000000000E+00  0.45593999997E+02  0.45594000000E+02  0.51100000000E-03 0.  1.
         11   -1    0    0    0    0 -0.00000000000E+00 -0.00000000000E+00 -0.45593999997E+02  0.45594000000E+02  0.51100000000E-03 0. -1.
    9900012    2    1    2    0    0  0.66424336060E+01 -0.34674810986E+01  0.17161989991E+02  0.72461568150E+02  0.69999997206E+02 0.  0.
         12    1    1    2    0    0 -0.66424336060E+01  0.34674810986E+01 -0.17161989991E+02  0.18726431850E+02  0.00000000000E+00 0. -1.
         11    1    3    3    0    0 -0.13008851814E+02 -0.49496023574E+01 -0.13645049737E+02  0.19491438418E+02  0.51100000000E-03 0. -1.
        -11    1    3    3    0    0 -0.72190066838E+01 -0.55111011035E+01  0.22064904215E+02  0.23860978420E+02  0.51100000000E-03 0.  1.
        -12    1    3    3    0    0  0.26870292104E+02  0.69932223623E+01  0.87421355132E+01  0.29109151312E+02  0.00000000000E+00 0.  1.
</event>
<event>
 7    1  0.2886818E-013  0.7246170E+02  0.7816164E-02  0.1226708E+00
        -11   -1    0    0    0    0  0.00000000000E+00  0.00000000000E+00  0.45593999997E+02  0.45594000000E+02  0.51100000000E-03 0. -1.
         11   -1    0    0    0    0 -0.00000000000E+00 -0.00000000000E+00 -0.45593999997E+02  0.45594000000E+02  0.51100000000E-03 0.  1.
    9900012    2    1    2    0    0  0.42565391724E+01 -0.18074587343E+02 -0.24218559242E+01  0.72461702462E+02  0.70000172173E+02 0.  0.
         12    1    1    2    0    0 -0.42565391724E+01  0.18074587343E+02  0.24218559242E+01  0.18726297538E+02  0.00000000000E+00 0. -1.
         11    1    3    3    0    0 -0.74352297291E+01 -0.17661675150E+02 -0.64395971042E+01  0.20215979357E+02  0.51100000000E-03 0. -1.
        -11    1    3    3    0    0  0.11807351887E+02 -0.47812870267E+01 -0.22238347771E+02  0.25628468079E+02  0.51100000000E-03 0.  1.
         12    1    3    3    0    0 -0.11558298596E+00  0.43683748337E+01  0.26256088952E+02  0.26617255026E+02  0.00000000000E+00 0. -1.
</event>
<event>
 7    1  0.2886818E-013  0.7246158E+02  0.7816164E-02  0.1226708E+00
        -11   -1    0    0    0    0  0.00000000000E+00  0.00000000000E+00  0.45593999997E+02  0.45594000000E+02  0.51100000000E-03 0.  1.
         11   -1    0    0    0    0 -0.00000000000E+00 -0.00000000000E+00 -0.45593999997E+02  0.45594000000E+02  0.51100000000E-03 0. -1.
    9900012    2    1    2    0    0  0.18155932436E+02  0.75129007780E+00  0.45250993566E+01  0.72461578997E+02  0.70000011336E+02 0.  0.
         12    1    1    2    0    0 -0.18155932436E+02 -0.75129007780E+00 -0.45250993566E+01  0.18726421003E+02  0.00000000000E+00 0. -1.
         11    1    3    3    0    0  0.26008191276E+02  0.27058814043E+02  0.69937308405E+01  0.38177450179E+02  0.51100000000E-03 0. -1.
        -11    1    3    3    0    0  0.29003449668E+01 -0.15912095772E+02 -0.83630532862E+01  0.18208444560E+02  0.51100000000E-03 0.  1.
        -12    1    3    3    0    0 -0.10752603807E+02 -0.10395428193E+02  0.58944218023E+01  0.16075684257E+02  0.00000000000E+00 0.  1.
</event>
<event>
 7    1  0.2886818E-013  0.7246159E+02  0.7816164E-02  0.1226708E+00
        -11   -1    0    0    0    0  0.00000000000E+00  0.00000000000E+00  0.45593999997E+02  0.45594000000E+02  0.51100000000E-03 0. -1.
         11   -1    0    0    0    0 -0.00000000000E+00 -0.00000000000E+00 -0.45593999997E+02  0.45594000000E+02  0.51100000000E-03 0.  1.
    9900012    2    1    2    0    0  0.12189977845E+02 -0.42003135158E+01 -0.13580877349E+02  0.72461590225E+02  0.70000025963E+02 0.  0.
         12    1    1    2    0    0 -0.12189977845E+02  0.42003135158E+01  0.13580877349E+02  0.18726409775E+02  0.00000000000E+00 0. -1.
         11    1    3    3    0    0  0.11618369078E+02  0.17990973625E+01  0.78408794599E+01  0.14131618531E+02  0.51100000000E-03 0. -1.
        -11    1    3    3    0    0 -0.91187302996E+01 -0.25163518556E+01  0.16508579495E+02  0.19026730306E+02  0.51100000000E-03 0.  1.
        -12    1    3    3    0    0  0.96903390669E+01 -0.34830590227E+01 -0.37930336304E+02  0.39303241387E+02  0.00000000000E+00 0.  1.
</event>
<event>
 7    1  0.2886818E-013  0.7246164E+02  0.7816164E-02  0.1226708E+00
        -11   -1    0    0    0    0  0.00000000000E+00  0.00000000000E+00  0.45593999997E+02  0.45594000000E+02  0.51100000000E-03 0. -1.
         11   -1    0    0    0    0 -0.00000000000E+00 -0.00000000000E+00 -0.45593999997E+02  0.45594000000E+02  0.51100000000E-03 0.  1.
    9900012    2    1    2    0    0  0.18330070610E+02  0.81557200922E+00  0.37443093802E+01  0.72461641598E+02  0.70000092887E+02 0.  0.
         12    1    1    2    0    0 -0.18330070610E+02 -0.81557200922E+00 -0.37443093802E+01  0.18726358402E+02  0.00000000000E+00 0. -1.
         11    1    3    3    0    0  0.93380562924E+01 -0.68074551402E+01 -0.49550410640E+01  0.12573510767E+02  0.51100000000E-03 0. -1.
        -11    1    3    3    0    0 -0.73719136876E+01 -0.93114311688E+01 -0.19695298845E+02  0.22998970818E+02  0.51100000000E-03 0.  1.
         12    1    3    3    0    0  0.16363928005E+02  0.16934458318E+02  0.28394649289E+02  0.36889160014E+02  0.00000000000E+00 0. -1.
</event>
<event>
 7    1  0.2886818E-013  0.7246169E+02  0.7816164E-02  0.1226708E+00
        -11   -1    0    0    0    0  0.00000000000E+00  0.00000000000E+00  0.45593999997E+02  0.45594000000E+02  0.51100000000E-03 0.  1.
         11   -1    0    0    0    0 -0.00000000000E+00 -0.00000000000E+00 -0.45593999997E+02  0.45594000000E+02  0.51100000000E-03 0. -1.
    9900012    2    1    2    0    0  0.50967924690E+01  0.95906242778E+01  0.15255079180E+02  0.72461686740E+02  0.70000151692E+02 0.  0.
         12    1    1    2    0    0 -0.50967924690E+01 -0.95906242778E+01 -0.15255079180E+02  0.18726313260E+02  0.00000000000E+00 0. -1.
         11    1    3    3    0    0 -0.63364069675E+01 -0.91506196549E+01  0.12527467549E+02  0.16757724690E+02  0.51100000000E-03 0. -1.
        -11    1    3    3    0    0 -0.91163923422E+00 -0.13738831070E+02  0.13542520415E+02  0.19312856461E+02  0.51100000000E-03 0.  1.
         12    1    3    3    0    0  0.12344838671E+02  0.32480075002E+02 -0.10814908784E+02  0.36391105589E+02  0.00000000000E+00 0. -1.
</event>
<event>
 7    1  0.2886818E-013  0.7246158E+02  0.7816164E-02  0.1226708E+00
        -11   -1    0    0    0    0  0.00000000000E+00  0.00000000000E+00  0.45593999997E+02  0.45594000000E+02  0.51100000000E-03 0.  1.
         11   -1    0    0    0    0 -0.00000000000E+00 -0.00000000000E+00 -0.45593999997E+02  0.45594000000E+02  0.51100000000E-03 0. -1.
    9900012    2    1    2    0    0 -0.15794831500E+02 -0.10054500325E+02  0.33015549563E+00  0.72461583323E+02  0.70000016973E+02 0.  0.
         12    1    1    2    0    0  0.15794831500E+02  0.10054500325E+02 -0.33015549563E+00  0.18726416677E+02  0.00000000000E+00 0. -1.
         11    1    3    3    0    0 -0.11508519189E+02 -0.20887543375E+02  0.89958102294E+01  0.25488430397E+02  0.51100000000E-03 0. -1.
        -11    1    3    3    0    0 -0.12772185984E+01  0.93911019467E+01  0.17870427986E+02  0.20228106184E+02  0.51100000000E-03 0.  1.
         12    1    3    3    0    0 -0.30090937132E+01  0.14419411034E+01 -0.26536082720E+02  0.26745046742E+02  0.00000000000E+00 0. -1.
</event>
<event>
 7    1  0.2886818E-013  0.7246157E+02  0.7816164E-02  0.1226708E+00
        -11   -1    0    0    0    0  0.00000000000E+00  0.00000000000E+00  0.45593999997E+02  0.45594000000E+02  0.51100000000E-03 0. -1.
         11   -1    0    0    0    0 -0.00000000000E+00 -0.00000000000E+00 -0.45593999997E+02  0.45594000000E+02  0.51100000000E-03 0.  1.
    9900012    2    1    2    0    0 -0.51150718148E+01  0.17502411363E+02  0.42639177184E+01  0.72461565275E+02  0.69999993462E+02 0.  0.
         12    1    1    2    0    0  0.51150718148E+01 -0.17502411363E+02 -0.42639177184E+01  0.18726434725E+02  0.00000000000E+00 0. -1.
         11    1    3    3    0    0  0.93918641125E+00 -0.20448748503E+01 -0.89726055617E+01  0.92504721552E+01  0.51100000000E-03 0. -1.
        -11    1    3    3    0    0 -0.63183584271E+01  0.15476669377E+02 -0.22060704964E+02  0.27678938780E+02  0.51100000000E-03 0.  1.
         12    1    3    3    0    0  0.26410020097E+00  0.40706168368E+01  0.35297228244E+02  0.35532154340E+02  0.00000000000E+00 0. -1.
</event>
<event>
 7    1  0.2886818E-013  0.7246157E+02  0.7816164E-02  0.1226708E+00
        -11   -1    0    0    0    0  0.00000000000E+00  0.00000000000E+00  0.45593999997E+02  0.45594000000E+02  0.51100000000E-03 0. -1.
         11   -1    0    0    0    0 -0.00000000000E+00 -0.00000000000E+00 -0.45593999997E+02  0.45594000000E+02  0.51100000000E-03 0.  1.
    9900012    2    1    2    0    0 -0.17360163297E+02  0.67456575089E+01  0.19493534551E+01  0.72461570981E+02  0.70000000894E+02 0.  0.
         12    1    1    2    0    0  0.17360163297E+02 -0.67456575089E+01 -0.19493534551E+01  0.18726429019E+02  0.00000000000E+00 0. -1.
         11    1    3    3    0    0 -0.14430886598E+02  0.27603466151E+01  0.33569182415E+02  0.36643689903E+02  0.51100000000E-03 0. -1.
        -11    1    3    3    0    0  0.19068590775E+01  0.10180943977E+01  0.12263395355E+01  0.24852639018E+01  0.51100000000E-03 0.  1.
        -12    1    3    3    0    0 -0.48361357759E+01  0.29672164961E+01 -0.32846168495E+02  0.33332617176E+02  0.00000000000E+00 0.  1.
</event>
<event>
 7    1  0.2886818E-013  0.7246155E+02  0.7816164E-02  0.1226708E+00
        -11   -1    0    0    0    0  0.00000000000E+00  0.00000000000E+00  0.45593999997E+02  0.45594000000E+02  0.51100000000E-03 0. -1.
         11   -1    0    0    0    0 -0.00000000000E+00 -0.00000000000E+00 -0.45593999997E+02  0.45594000000E+02  0.51100000000E-03 0.  1.
    9900012    2    1    2    0    0  0.15254595883E+02  0.10512608179E+02 -0.27317181743E+01  0.72461550511E+02  0.69999974228E+02 0.  0.
         12    1    1    2    0    0 -0.15254595883E+02 -0.10512608179E+02  0.27317181743E+01  0.18726449489E+02  0.00000000000E+00 0. -1.
         11    1    3    3    0    0  0.32476621914E+01 -0.62227618996E+01  0.18908335889E+01  0.72694791623E+01  0.51100000000E-03 0. -1.
        -11    1    3    3    0    0  0.38703916561E+01  0.33668963366E+02  0.15843025268E+02  0.37410967318E+02  0.51100000000E-03 0.  1.
         12    1    3    3    0    0  0.81365420357E+01 -0.16933593288E+02 -0.20465577031E+02  0.27781104031E+02  0.00000000000E+00 0. -1.
</event>
<event>
 7    1  0.2886818E-013  0.7246155E+02  0.7816164E-02  0.1226708E+00
        -11   -1    0    0    0    0  0.00000000000E+00  0.00000000000E+00  0.45593999997E+02  0.45594000000E+02  0.51100000000E-03 0.  1.
         11   -1    0    0    0    0 -0.00000000000E+00 -0.00000000000E+00 -0.45593999997E+02  0.45594000000E+02  0.51100000000E-03 0. -1.
    9900012    2    1    2    0    0 -0.26743443545E+01 -0.18533968975E+02 -0.14026270744E+00  0.72461553531E+02  0.69999978163E+02 0.  0.
         12    1    1    2    0    0  0.26743443545E+01  0.18533968975E+02  0.14026270744E+00  0.18726446469E+02  0.00000000000E+00 0. -1.
         11    1    3    3    0    0 -0.23139366331E+01  0.37458464396E+01 -0.72399242637E+01  0.84736162231E+01  0.51100000000E-03 0. -1.
        -11    1    3    3    0    0  0.75123229553E+01  0.17857839442E+02 -0.71847111676E+01  0.20662949948E+02  0.51100000000E-03 0.  1.
         12    1    3    3    0    0 -0.78727306766E+01 -0.40137654857E+02  0.14284372724E+02  0.43324987361E+02  0.00000000000E+00 0. -1.
</event>
<event>
 7    1  0.2886818E-013  0.7246159E+02  0.7816164E-02  0.1226708E+00
        -11   -1    0    0    0    0  0.00000000000E+00  0.00000000000E+00  0.45593999997E+02  0.45594000000E+02  0.51100000000E-03 0.  1.
         11   -1    0    0    0    0 -0.00000000000E+00 -0.00000000000E+00 -0.45593999997E+02  0.45594000000E+02  0.51100000000E-03 0. -1.
    9900012    2    1    2    0    0 -0.13906548146E+02  0.86919606543E+01  0.90408036596E+01  0.72461591050E+02  0.70000027038E+02 0.  0.
         12    1    1    2    0    0  0.13906548146E+02 -0.86919606543E+01 -0.90408036596E+01  0.18726408950E+02  0.00000000000E+00 0. -1.
         11    1    3    3    0    0 -0.91664574002E+01 -0.22451716877E+02  0.34870820488E+01  0.24500270885E+02  0.51100000000E-03 0.  1.
        -11    1    3    3    0    0  0.12843724049E+02  0.11851039039E+01  0.12762280733E+01  0.12961268343E+02  0.51100000000E-03 0. -1.
         12    1    3    3    0    0 -0.17583814795E+02  0.29958573627E+02  0.42774935375E+01  0.35000051821E+02  0.00000000000E+00 0. -1.
</event>
<event>
 7    1  0.2886818E-013  0.7246168E+02  0.7816164E-02  0.1226708E+00
        -11   -1    0    0    0    0  0.00000000000E+00  0.00000000000E+00  0.45593999997E+02  0.45594000000E+02  0.51100000000E-03 0.  1.
         11   -1    0    0    0    0 -0.00000000000E+00 -0.00000000000E+00 -0.45593999997E+02  0.45594000000E+02  0.51100000000E-03 0. -1.
    9900012    2    1    2    0    0 -0.14847582971E+02  0.84093553760E+01  0.77140755275E+01  0.72461683246E+02  0.70000147141E+02 0.  0.
         12    1    1    2    0    0  0.14847582971E+02 -0.84093553760E+01 -0.77140755275E+01  0.18726316754E+02  0.00000000000E+00 0. -1.
         11    1    3    3    0    0 -0.18224403512E+02 -0.90984496860E+01 -0.41686764666E+01  0.20791549577E+02  0.51100000000E-03 0. -1.
        -11    1    3    3    0    0 -0.40273336270E+01  0.19202684298E+02 -0.14383342963E+02  0.24327824717E+02  0.51100000000E-03 0.  1.
        -12    1    3    3    0    0  0.74041541684E+01 -0.16948792362E+01  0.26266094957E+02  0.27342308953E+02  0.00000000000E+00 0.  1.
</event>
<event>
 7    1  0.2886818E-013  0.7246207E+02  0.7816164E-02  0.1226707E+00
        -11   -1    0    0    0    0  0.00000000000E+00  0.00000000000E+00  0.45593999997E+02  0.45594000000E+02  0.51100000000E-03 0.  1.
         11   -1    0    0    0    0 -0.00000000000E+00 -0.00000000000E+00 -0.45593999997E+02  0.45594000000E+02  0.51100000000E-03 0. -1.
    9900012    2    1    2    0    0  0.16915510060E+02 -0.51201390861E+00 -0.80164812902E+01  0.72462065815E+02  0.70000645505E+02 0.  0.
         12    1    1    2    0    0 -0.16915510060E+02  0.51201390861E+00  0.80164812902E+01  0.18725934185E+02  0.00000000000E+00 0. -1.
         11    1    3    3    0    0  0.18447406984E+02 -0.87103668168E+00 -0.53481294085E+01  0.19226752658E+02  0.51100000000E-03 0. -1.
        -11    1    3    3    0    0 -0.67142740910E+00 -0.19979281070E+02 -0.18661828820E+02  0.27347510710E+02  0.51100000000E-03 0.  1.
        -12    1    3    3    0    0 -0.86046951516E+00  0.20338303843E+02  0.15993476939E+02  0.25887802448E+02  0.00000000000E+00 0.  1.
</event>
<event>
 7    1  0.2886818E-013  0.7246219E+02  0.7816164E-02  0.1226706E+00
        -11   -1    0    0    0    0  0.00000000000E+00  0.00000000000E+00  0.45593999997E+02  0.45594000000E+02  0.51100000000E-03 0.  1.
         11   -1    0    0    0    0 -0.00000000000E+00 -0.00000000000E+00 -0.45593999997E+02  0.45594000000E+02  0.51100000000E-03 0. -1.
    9900012    2    1    2    0    0 -0.39641734540E+01 -0.91809266605E+01  0.15831987894E+02  0.72462190907E+02  0.70000808459E+02 0.  0.
         12    1    1    2    0    0  0.39641734540E+01  0.91809266605E+01 -0.15831987894E+02  0.18725809093E+02  0.00000000000E+00 0. -1.
         11    1    3    3    0    0 -0.35002190293E+00  0.17231708180E+02  0.20575141171E+02  0.26840095317E+02  0.51100000000E-03 0. -1.
        -11    1    3    3    0    0 -0.61073569560E+01 -0.25805201926E+02  0.11696738843E+02  0.28983132254E+02  0.51100000000E-03 0.  1.
         12    1    3    3    0    0  0.24932054050E+01 -0.60743291435E+00 -0.16439892121E+02  0.16638963336E+02  0.00000000000E+00 0. -1.
</event>
<event>
 7    1  0.2886818E-013  0.7246153E+02  0.7816164E-02  0.1226708E+00
        -11   -1    0    0    0    0  0.00000000000E+00  0.00000000000E+00  0.45593999997E+02  0.45594000000E+02  0.51100000000E-03 0. -1.
         11   -1    0    0    0    0 -0.00000000000E+00 -0.00000000000E+00 -0.45593999997E+02  0.45594000000E+02  0.51100000000E-03 0.  1.
    9900012    2    1    2    0    0  0.33071352767E+01  0.18414301618E+02  0.81064978985E+00  0.72461526736E+02  0.69999943257E+02 0.  0.
         12    1    1    2    0    0 -0.33071352767E+01 -0.18414301618E+02 -0.81064978985E+00  0.18726473264E+02  0.00000000000E+00 0. -1.
         11    1    3    3    0    0  0.46697068485E+01  0.43029891152E+01 -0.49920747567E+01  0.80772945974E+01  0.51100000000E-03 0. -1.
        -11    1    3    3    0    0  0.26789867906E+02 -0.48798495876E+01 -0.69598466130E+01  0.28106038845E+02  0.51100000000E-03 0.  1.
         12    1    3    3    0    0 -0.28152439477E+02  0.18991162091E+02  0.12762571159E+02  0.36278193294E+02  0.00000000000E+00 0. -1.
</event>
<event>
 7    1  0.2886818E-013  0.7246161E+02  0.7816164E-02  0.1226708E+00
        -11   -1    0    0    0    0  0.00000000000E+00  0.00000000000E+00  0.45593999997E+02  0.45594000000E+02  0.51100000000E-03 0. -1.
         11   -1    0    0    0    0 -0.00000000000E+00 -0.00000000000E+00 -0.45593999997E+02  0.45594000000E+02  0.51100000000E-03 0.  1.
    9900012    2    1    2    0    0  0.78211469956E+01  0.69712516104E+01 -0.15521243419E+02  0.72461609888E+02  0.70000051578E+02 0.  0.
         12    1    1    2    0    0 -0.78211469956E+01 -0.69712516104E+01  0.15521243419E+02  0.18726390112E+02  0.00000000000E+00 0. -1.
         11    1    3    3    0    0 -0.12301552619E+02 -0.11537440280E+02  0.38303838024E+01  0.17294871072E+02  0.51100000000E-03 0. -1.
        -11    1    3    3    0    0  0.51563069349E+01 -0.14371349339E+02 -0.32279374204E+01  0.15605856698E+02  0.51100000000E-03 0.  1.
        -12    1    3    3    0    0  0.14966392680E+02  0.32880041230E+02 -0.16123689801E+02  0.39560882118E+02  0.00000000000E+00 0.  1.
</event>
<event>
 7    1  0.2886818E-013  0.7246163E+02  0.7816164E-02  0.1226708E+00
        -11   -1    0    0    0    0  0.00000000000E+00  0.00000000000E+00  0.45593999997E+02  0.45594000000E+02  0.51100000000E-03 0.  1.
         11   -1    0    0    0    0 -0.00000000000E+00 -0.00000000000E+00 -0.45593999997E+02  0.45594000000E+02  0.51100000000E-03 0. -1.
    9900012    2    1    2    0    0 -0.15122585614E+02 -0.93723216791E+01  0.58432960086E+01  0.72461625082E+02  0.70000071371E+02 0.  0.
         12    1    1    2    0    0  0.15122585614E+02  0.93723216791E+01 -0.58432960086E+01  0.18726374918E+02  0.00000000000E+00 0. -1.
         11    1    3    3    0    0  0.14594132696E+02 -0.18422353083E+02  0.94768842453E+01  0.25341332591E+02  0.51100000000E-03 0. -1.
        -11    1    3    3    0    0  0.56736237614E+01  0.27301487040E+01  0.72081526873E+01  0.95708507436E+01  0.51100000000E-03 0.  1.
         12    1    3    3    0    0 -0.35390342071E+02  0.63198826995E+01 -0.10841740924E+02  0.37549441747E+02  0.00000000000E+00 0. -1.
</event>
<event>
 7    1  0.2886818E-013  0.7246141E+02  0.7816164E-02  0.1226708E+00
        -11   -1    0    0    0    0  0.00000000000E+00  0.00000000000E+00  0.45593999997E+02  0.45594000000E+02  0.51100000000E-03 0.  1.
         11   -1    0    0    0    0 -0.00000000000E+00 -0.00000000000E+00 -0.45593999997E+02  0.45594000000E+02  0.51100000000E-03 0. -1.
    9900012    2    1    2    0    0  0.13110078936E+02 -0.97069850656E+01  0.91970380132E+01  0.72461408292E+02  0.69999788962E+02 0.  0.
         12    1    1    2    0    0 -0.13110078936E+02  0.97069850656E+01 -0.91970380132E+01  0.18726591708E+02  0.00000000000E+00 0. -1.
         11    1    3    3    0    0 -0.10896425192E+02  0.58697868462E+01  0.88844525309E+00  0.12408699159E+02  0.51100000000E-03 0. -1.
        -11    1    3    3    0    0  0.12365124072E+02  0.33188690762E+01  0.27741633466E+02  0.30553386276E+02  0.51100000000E-03 0.  1.
         12    1    3    3    0    0  0.11641380056E+02 -0.18895640988E+02 -0.19433040706E+02  0.29499322858E+02  0.00000000000E+00 0. -1.
</event>
<event>
 7    1  0.2886818E-013  0.7246159E+02  0.7816164E-02  0.1226708E+00
        -11   -1    0    0    0    0  0.00000000000E+00  0.00000000000E+00  0.45593999997E+02  0.45594000000E+02  0.51100000000E-03 0. -1.
         11   -1    0    0    0    0 -0.00000000000E+00 -0.00000000000E+00 -0.45593999997E+02  0.45594000000E+02  0.51100000000E-03 0.  1.
    9900012    2    1    2    0    0 -0.61055186588E+01 -0.10005850643E+02 -0.14604246809E+02  0.72461590038E+02  0.70000025720E+02 0.  0.
         12    1    1    2    0    0  0.61055186588E+01  0.10005850643E+02  0.14604246809E+02  0.18726409962E+02  0.00000000000E+00 0. -1.
         11    1    3    3    0    0 -0.13285209138E+01 -0.15845783636E+02  0.11923348336E+02  0.19875111639E+02  0.51100000000E-03 0. -1.
        -11    1    3    3    0    0 -0.12402422494E+02  0.43841641165E+01  0.91824191119E+01  0.16042375128E+02  0.51100000000E-03 0.  1.
        -12    1    3    3    0    0  0.76254247495E+01  0.14557688766E+01 -0.35710014258E+02  0.36544103271E+02  0.00000000000E+00 0.  1.
</event>
<event>
 7    1  0.2886818E-013  0.7246156E+02  0.7816164E-02  0.1226708E+00
        -11   -1    0    0    0    0  0.00000000000E+00  0.00000000000E+00  0.45593999997E+02  0.45594000000E+02  0.51100000000E-03 0.  1.
         11   -1    0    0    0    0 -0.00000000000E+00 -0.00000000000E+00 -0.45593999997E+02  0.45594000000E+02  0.51100000000E-03 0. -1.
    9900012    2    1    2    0    0 -0.13721369874E+01  0.42765158950E+01  0.18179886176E+02  0.72461558548E+02  0.69999984698E+02 0.  0.
         12    1    1    2    0    0  0.13721369874E+01 -0.42765158950E+01 -0.18179886176E+02  0.18726441452E+02  0.00000000000E+00 0. -1.
         11    1    3    3    0    0 -0.27066414403E+01  0.41919739584E+01  0.27597663570E+01  0.57021806496E+01  0.51100000000E-03 0. -1.
        -11    1    3    3    0    0  0.30341051695E+02  0.13181159498E+02  0.91341694195E+01  0.34318441616E+02  0.51100000000E-03 0.  1.
         12    1    3    3    0    0 -0.29006547242E+02 -0.13096617561E+02  0.62859503991E+01  0.32440936282E+02  0.00000000000E+00 0. -1.
</event>
<event>
 7    1  0.2886818E-013  0.7246154E+02  0.7816164E-02  0.1226708E+00
        -11   -1    0    0    0    0  0.00000000000E+00  0.00000000000E+00  0.45593999997E+02  0.45594000000E+02  0.51100000000E-03 0.  1.
         11   -1    0    0    0    0 -0.00000000000E+00 -0.00000000000E+00 -0.45593999997E+02  0.45594000000E+02  0.51100000000E-03 0. -1.
    9900012    2    1    2    0    0  0.18387403346E+00 -0.18244890873E+02  0.42155104843E+01  0.72461537940E+02  0.69999957853E+02 0.  0.
         12    1    1    2    0    0 -0.18387403346E+00  0.18244890873E+02 -0.42155104843E+01  0.18726462060E+02  0.00000000000E+00 0. -1.
         11    1    3    3    0    0 -0.41215325043E+01 -0.13767632703E+02 -0.33326508540E+01  0.14752671026E+02  0.51100000000E-03 0. -1.
        -11    1    3    3    0    0  0.18321241355E+02 -0.23972320041E+02 -0.50539382039E+01  0.30592193523E+02  0.51100000000E-03 0.  1.
         12    1    3    3    0    0 -0.14015834817E+02  0.19495061871E+02  0.12602099542E+02  0.27116673391E+02  0.00000000000E+00 0. -1.
</event>
<event>
 7    1  0.2886818E-013  0.7246163E+02  0.7816164E-02  0.1226708E+00
        -11   -1    0    0    0    0  0.00000000000E+00  0.00000000000E+00  0.45593999997E+02  0.45594000000E+02  0.51100000000E-03 0.  1.
         11   -1    0    0    0    0 -0.00000000000E+00 -0.00000000000E+00 -0.45593999997E+02  0.45594000000E+02  0.51100000000E-03 0. -1.
    9900012    2    1    2    0    0 -0.39597634226E+01 -0.15456349964E+02 -0.98029898757E+01  0.72461625789E+02  0.70000072292E+02 0.  0.
         12    1    1    2    0    0  0.39597634226E+01  0.15456349964E+02  0.98029898757E+01  0.18726374211E+02  0.00000000000E+00 0. -1.
         11    1    3    3    0    0 -0.77006444176E+01 -0.22580425237E+02  0.18029571865E+02  0.29903862463E+02  0.51100000000E-03 0. -1.
        -11    1    3    3    0    0 -0.13616416864E+01 -0.12048135387E+02 -0.13072971465E+02  0.17830149118E+02  0.51100000000E-03 0.  1.
        -12    1    3    3    0    0  0.51025226814E+01  0.19172210660E+02 -0.14759590276E+02  0.24727614208E+02  0.00000000000E+00 0.  1.
</event>
<event>
 7    1  0.2886818E-013  0.7246159E+02  0.7816164E-02  0.1226708E+00
        -11   -1    0    0    0    0  0.00000000000E+00  0.00000000000E+00  0.45593999997E+02  0.45594000000E+02  0.51100000000E-03 0.  1.
         11   -1    0    0    0    0 -0.00000000000E+00 -0.00000000000E+00 -0.45593999997E+02  0.45594000000E+02  0.51100000000E-03 0. -1.
    9900012    2    1    2    0    0  0.51335262368E+01  0.73701416287E+01 -0.16431871918E+02  0.72461588332E+02  0.70000023497E+02 0.  0.
         12    1    1    2    0    0 -0.51335262368E+01 -0.73701416287E+01  0.16431871918E+02  0.18726411668E+02  0.00000000000E+00 0. -1.
         11    1    3    3    0    0  0.86395327218E+01  0.84453709976E+01 -0.35258319476E+02  0.37270831886E+02  0.51100000000E-03 0. -1.
        -11    1    3    3    0    0 -0.52714973933E+00 -0.43634235724E+01 -0.73917816441E+01  0.85997551276E+01  0.51100000000E-03 0.  1.
        -12    1    3    3    0    0 -0.29788567456E+01  0.32881942035E+01  0.26218229202E+02  0.26591001318E+02  0.00000000000E+00 0.  1.
</event>
<event>
 7    1  0.2886818E-013  0.7246208E+02  0.7816164E-02  0.1226707E+00
        -11   -1    0    0    0    0  0.00000000000E+00  0.00000000000E+00  0.45593999997E+02  0.45594000000E+02  0.51100000000E-03 0. -1.
         11   -1    0    0    0    0 -0.00000000000E+00 -0.00000000000E+00 -0.45593999997E+02  0.45594000000E+02  0.51100000000E-03 0.  1.
    9900012    2    1    2    0    0  0.10061888288E+02  0.12518891477E+02  0.96278631837E+01  0.72462082420E+02  0.70000667135E+02 0.  0.
         12    1    1    2    0    0 -0.10061888288E+02 -0.12518891477E+02 -0.96278631837E+01  0.18725917580E+02  0.00000000000E+00 0. -1.
         11    1    3    3    0    0  0.23208279397E+02 -0.22617693057E+02  0.42447633318E+01  0.32683364084E+02  0.51100000000E-03 0. -1.
        -11    1    3    3    0    0  0.12692627156E+01  0.54261863230E+01  0.37469260158E+01  0.67152051854E+01  0.51100000000E-03 0.  1.
        -12    1    3    3    0    0 -0.14415653825E+02  0.29710398211E+02  0.16361738362E+01  0.33063513151E+02  0.00000000000E+00 0.  1.
</event>
<event>
 7    1  0.2886818E-013  0.7246190E+02  0.7816164E-02  0.1226707E+00
        -11   -1    0    0    0    0  0.00000000000E+00  0.00000000000E+00  0.45593999997E+02  0.45594000000E+02  0.51100000000E-03 0.  1.
         11   -1    0    0    0    0 -0.00000000000E+00 -0.00000000000E+00 -0.45593999997E+02  0.45594000000E+02  0.51100000000E-03 0. -1.
    9900012    2    1    2    0    0 -0.22515497285E+01  0.52778710810E+01  0.17825304952E+02  0.72461898004E+02  0.70000426902E+02 0.  0.
         12    1    1    2    0    0  0.22515497285E+01 -0.52778710810E+01 -0.17825304952E+02  0.18726101996E+02  0.00000000000E+00 0. -1.
         11    1    3    3    0    0 -0.19398185214E+02  0.10430614634E+02  0.12465365882E+02  0.25307561283E+02  0.51100000000E-03 0. -1.
        -11    1    3    3    0    0 -0.43534999083E+01  0.12958690485E+02 -0.82018656522E+01  0.15942120969E+02  0.51100000000E-03 0.  1.
        -12    1    3    3    0    0  0.21500135394E+02 -0.18111434038E+02  0.13561804722E+02  0.31212215753E+02  0.00000000000E+00 0.  1.
</event>
<event>
 7    1  0.2886818E-013  0.7246151E+02  0.7816164E-02  0.1226708E+00
        -11   -1    0    0    0    0  0.00000000000E+00  0.00000000000E+00  0.45593999997E+02  0.45594000000E+02  0.51100000000E-03 0.  1.
         11   -1    0    0    0    0 -0.00000000000E+00 -0.00000000000E+00 -0.45593999997E+02  0.45594000000E+02  0.51100000000E-03 0. -1.
    9900012    2    1    2    0    0 -0.17269191235E+02  0.38938517054E+01  0.61069151830E+01  0.72461509136E+02  0.69999920330E+02 0.  0.
         12    1    1    2    0    0  0.17269191235E+02 -0.38938517054E+01 -0.61069151830E+01  0.18726490864E+02  0.00000000000E+00 0. -1.
         11    1    3    3    0    0 -0.12509917901E+02  0.30509363280E+02  0.80635004489E+01  0.33946123982E+02  0.51100000000E-03 0. -1.
        -11    1    3    3    0    0  0.70362718039E+01  0.50267511229E+00  0.43367965988E+01  0.82806767940E+01  0.51100000000E-03 0.  1.
        -12    1    3    3    0    0 -0.11795545138E+02 -0.27118186687E+02 -0.62933818648E+01  0.30234708360E+02  0.00000000000E+00 0.  1.
</event>
<event>
 7    1  0.2886818E-013  0.7246157E+02  0.7816164E-02  0.1226708E+00
        -11   -1    0    0    0    0  0.00000000000E+00  0.00000000000E+00  0.45593999997E+02  0.45594000000E+02  0.51100000000E-03 0.  1.
         11   -1    0    0    0    0 -0.00000000000E+00 -0.00000000000E+00 -0.45593999997E+02  0.45594000000E+02  0.51100000000E-03 0. -1.
    9900012    2    1    2    0    0  0.71872224465E+01 -0.42253080388E+01  0.16768114003E+02  0.72461573707E+02  0.70000004445E+02 0.  0.
         12    1    1    2    0    0 -0.71872224465E+01  0.42253080388E+01 -0.16768114003E+02  0.18726426293E+02  0.00000000000E+00 0. -1.
         11    1    3    3    0    0  0.22243567103E+02 -0.97921337307E+01  0.27247348614E+01  0.24455803826E+02  0.51100000000E-03 0. -1.
        -11    1    3    3    0    0 -0.11523728759E+02 -0.90227716734E+01 -0.11340672677E+02  0.18515333921E+02  0.51100000000E-03 0.  1.
        -12    1    3    3    0    0 -0.35326158970E+01  0.14589597365E+02  0.25384051818E+02  0.29490435959E+02  0.00000000000E+00 0.  1.
</event>
<event>
 7    1  0.2886818E-013  0.7246157E+02  0.7816164E-02  0.1226708E+00
        -11   -1    0    0    0    0  0.00000000000E+00  0.00000000000E+00  0.45593999997E+02  0.45594000000E+02  0.51100000000E-03 0.  1.
         11   -1    0    0    0    0 -0.00000000000E+00 -0.00000000000E+00 -0.45593999997E+02  0.45594000000E+02  0.51100000000E-03 0. -1.
    9900012    2    1    2    0    0  0.10713299736E+02 -0.12581080625E+02  0.88102705593E+01  0.72461568193E+02  0.69999997262E+02 0.  0.
         12    1    1    2    0    0 -0.10713299736E+02  0.12581080625E+02 -0.88102705593E+01  0.18726431807E+02  0.00000000000E+00 0. -1.
         11    1    3    3    0    0  0.39463131582E+01 -0.19554050492E+02 -0.16169361472E+02  0.25678444830E+02  0.51100000000E-03 0. -1.
        -11    1    3    3    0    0  0.11753930820E+02  0.13270851277E+02 -0.27263017082E+01  0.17936083870E+02  0.51100000000E-03 0.  1.
        -12    1    3    3    0    0 -0.49869442421E+01 -0.62978814095E+01  0.27705933740E+02  0.28847039493E+02  0.00000000000E+00 0.  1.
</event>
<event>
 7    1  0.2886818E-013  0.7246156E+02  0.7816164E-02  0.1226708E+00
        -11   -1    0    0    0    0  0.00000000000E+00  0.00000000000E+00  0.45593999997E+02  0.45594000000E+02  0.51100000000E-03 0.  1.
         11   -1    0    0    0    0 -0.00000000000E+00 -0.00000000000E+00 -0.45593999997E+02  0.45594000000E+02  0.51100000000E-03 0. -1.
    9900012    2    1    2    0    0  0.10289322472E+02 -0.13882834490E+02  0.72164007514E+01  0.72461556392E+02  0.69999981889E+02 0.  0.
         12    1    1    2    0    0 -0.10289322472E+02  0.13882834490E+02 -0.72164007514E+01  0.18726443608E+02  0.00000000000E+00 0. -1.
         11    1    3    3    0    0 -0.36997810485E+01  0.69648607343E+01 -0.28297085304E+01  0.83788373587E+01  0.51100000000E-03 0. -1.
        -11    1    3    3    0    0 -0.13351395333E+02  0.84847960598E+01  0.17180642148E+02  0.23354356904E+02  0.51100000000E-03 0.  1.
         12    1    3    3    0    0  0.27340498853E+02 -0.29332491284E+02 -0.71345328664E+01  0.40728362129E+02  0.00000000000E+00 0. -1.
</event>
<event>
 7    1  0.2886818E-013  0.7246159E+02  0.7816164E-02  0.1226708E+00
        -11   -1    0    0    0    0  0.00000000000E+00  0.00000000000E+00  0.45593999997E+02  0.45594000000E+02  0.51100000000E-03 0.  1.
         11   -1    0    0    0    0 -0.00000000000E+00 -0.00000000000E+00 -0.45593999997E+02  0.45594000000E+02  0.51100000000E-03 0. -1.
    9900012    2    1    2    0    0  0.15218516369E+02  0.39447011908E+01  0.10174207994E+02  0.72461590406E+02  0.70000026199E+02 0.  0.
         12    1    1    2    0    0 -0.15218516369E+02 -0.39447011908E+01 -0.10174207994E+02  0.18726409594E+02  0.00000000000E+00 0. -1.
         11    1    3    3    0    0  0.58643800412E+01  0.13892119113E+01  0.11750737749E+02  0.13206085753E+02  0.51100000000E-03 0. -1.
        -11    1    3    3    0    0  0.11682690858E+02  0.23832793059E+02  0.16488508003E+02  0.31246730822E+02  0.51100000000E-03 0.  1.
         12    1    3    3    0    0 -0.23285545302E+01 -0.21277303779E+02 -0.18065037758E+02  0.28008773831E+02  0.00000000000E+00 0. -1.
</event>
<event>
 7    1  0.2886818E-013  0.7246148E+02  0.7816164E-02  0.1226708E+00
        -11   -1    0    0    0    0  0.00000000000E+00  0.00000000000E+00  0.45593999997E+02  0.45594000000E+02  0.51100000000E-03 0.  1.
         11   -1    0    0    0    0 -0.00000000000E+00 -0.00000000000E+00 -0.45593999997E+02  0.45594000000E+02  0.51100000000E-03 0. -1.
    9900012    2    1    2    0    0 -0.34822072028E+01 -0.13231635565E+02  0.12785947741E+02  0.72461483870E+02  0.69999887416E+02 0.  0.
         12    1    1    2    0    0  0.34822072028E+01  0.13231635565E+02 -0.12785947741E+02  0.18726516130E+02  0.00000000000E+00 0. -1.
         11    1    3    3    0    0  0.24399902224E+01  0.90720281855E+01  0.66269989802E+01  0.11496624001E+02  0.51100000000E-03 0. -1.
        -11    1    3    3    0    0  0.23247067992E+02  0.54738076928E+00 -0.77965151760E+00  0.23266578018E+02  0.51100000000E-03 0.  1.
         12    1    3    3    0    0 -0.29169265417E+02 -0.22851044520E+02  0.69386002787E+01  0.37698281850E+02  0.00000000000E+00 0. -1.
</event>
<event>
 7    1  0.2886818E-013  0.7246158E+02  0.7816164E-02  0.1226708E+00
        -11   -1    0    0    0    0  0.00000000000E+00  0.00000000000E+00  0.45593999997E+02  0.45594000000E+02  0.51100000000E-03 0.  1.
         11   -1    0    0    0    0 -0.00000000000E+00 -0.00000000000E+00 -0.45593999997E+02  0.45594000000E+02  0.51100000000E-03 0. -1.
    9900012    2    1    2    0    0 -0.32604523095E+01 -0.11941303579E+02  0.14051820280E+02  0.72461576593E+02  0.70000008205E+02 0.  0.
         12    1    1    2    0    0  0.32604523095E+01  0.11941303579E+02 -0.14051820280E+02  0.18726423407E+02  0.00000000000E+00 0. -1.
         11    1    3    3    0    0  0.16466396169E+02 -0.99310714646E+01 -0.11448317542E+02  0.22379284127E+02  0.51100000000E-03 0. -1.
        -11    1    3    3    0    0  0.94974377192E+01  0.50173717476E+01  0.11871503774E+00  0.10741947496E+02  0.51100000000E-03 0.  1.
        -12    1    3    3    0    0 -0.29224286198E+02 -0.70276038623E+01  0.25381422784E+02  0.39340344970E+02  0.00000000000E+00 0.  1.
</event>
<event>
 7    1  0.2886818E-013  0.7246158E+02  0.7816164E-02  0.1226708E+00
        -11   -1    0    0    0    0  0.00000000000E+00  0.00000000000E+00  0.45593999997E+02  0.45594000000E+02  0.51100000000E-03 0.  1.
         11   -1    0    0    0    0 -0.00000000000E+00 -0.00000000000E+00 -0.45593999997E+02  0.45594000000E+02  0.51100000000E-03 0. -1.
    9900012    2    1    2    0    0  0.11953243605E+02  0.10959731397E+02  0.93639290817E+01  0.72461577148E+02  0.70000008929E+02 0.  0.
         12    1    1    2    0    0 -0.11953243605E+02 -0.10959731397E+02 -0.93639290817E+01  0.18726422852E+02  0.00000000000E+00 0. -1.
         11    1    3    3    0    0 -0.38108366326E+01  0.67233053905E+01 -0.68366225524E+01  0.10318174228E+02  0.51100000000E-03 0. -1.
        -11    1    3    3    0    0 -0.21126775453E+02  0.80197516297E+01  0.30811419755E+01  0.22806808049E+02  0.51100000000E-03 0.  1.
         12    1    3    3    0    0  0.36890855690E+02 -0.37833256233E+01  0.13119409659E+02  0.39336594872E+02  0.00000000000E+00 0. -1.
</event>
<event>
 7    1  0.2886818E-013  0.7246166E+02  0.7816164E-02  0.1226708E+00
        -11   -1    0    0    0    0  0.00000000000E+00  0.00000000000E+00  0.45593999997E+02  0.45594000000E+02  0.51100000000E-03 0.  1.
         11   -1    0    0    0    0 -0.00000000000E+00 -0.00000000000E+00 -0.45593999997E+02  0.45594000000E+02  0.51100000000E-03 0. -1.
    9900012    2    1    2    0    0  0.73211432219E+01  0.12854879587E+02  0.11481664914E+02  0.72461663025E+02  0.70000120799E+02 0.  0.
         12    1    1    2    0    0 -0.73211432219E+01 -0.12854879587E+02 -0.11481664914E+02  0.18726336975E+02  0.00000000000E+00 0. -1.
         11    1    3    3    0    0  0.33319088565E+01  0.14082819463E+02  0.13347690896E+02  0.19687261698E+02  0.51100000000E-03 0. -1.
        -11    1    3    3    0    0 -0.58086618559E+01  0.30133815577E+01  0.23955242997E+02  0.24832935555E+02  0.51100000000E-03 0.  1.
         12    1    3    3    0    0  0.97978962214E+01 -0.42413214331E+01 -0.25821268979E+02  0.27941465773E+02  0.00000000000E+00 0. -1.
</event>
<event>
 7    1  0.2886818E-013  0.7246192E+02  0.7816164E-02  0.1226707E+00
        -11   -1    0    0    0    0  0.00000000000E+00  0.00000000000E+00  0.45593999997E+02  0.45594000000E+02  0.51100000000E-03 0.  1.
         11   -1    0    0    0    0 -0.00000000000E+00 -0.00000000000E+00 -0.45593999997E+02  0.45594000000E+02  0.51100000000E-03 0. -1.
    9900012    2    1    2    0    0  0.10179396425E+02  0.12414713221E+02  0.96395435924E+01  0.72461921483E+02  0.70000457487E+02 0.  0.
         12    1    1    2    0    0 -0.10179396425E+02 -0.12414713221E+02 -0.96395435924E+01  0.18726078517E+02  0.00000000000E+00 0. -1.
         11    1    3    3    0    0 -0.30795591397E+01  0.18247272416E+02  0.15704578247E+02  0.24270978829E+02  0.51100000000E-03 0.  1.
        -11    1    3    3    0    0 -0.10899253729E+02 -0.16124011879E+02  0.43491911992E+01  0.19942240477E+02  0.51100000000E-03 0. -1.
         12    1    3    3    0    0  0.24158209293E+02  0.10291452684E+02 -0.10414225853E+02  0.28248702178E+02  0.00000000000E+00 0. -1.
</event>
<event>
 7    1  0.2886818E-013  0.7246160E+02  0.7816164E-02  0.1226708E+00
        -11   -1    0    0    0    0  0.00000000000E+00  0.00000000000E+00  0.45593999997E+02  0.45594000000E+02  0.51100000000E-03 0.  1.
         11   -1    0    0    0    0 -0.00000000000E+00 -0.00000000000E+00 -0.45593999997E+02  0.45594000000E+02  0.51100000000E-03 0. -1.
    9900012    2    1    2    0    0 -0.11171206904E+02  0.23253431629E+00  0.15027577094E+02  0.72461601275E+02  0.70000040358E+02 0.  0.
         12    1    1    2    0    0  0.11171206904E+02 -0.23253431629E+00 -0.15027577094E+02  0.18726398725E+02  0.00000000000E+00 0. -1.
         11    1    3    3    0    0 -0.65135439186E+01  0.21104721046E+02  0.23187086742E+01  0.22208374884E+02  0.51100000000E-03 0. -1.
        -11    1    3    3    0    0  0.95565607978E+01  0.35098596308E+01  0.18800897616E+02  0.21380381670E+02  0.51100000000E-03 0.  1.
         12    1    3    3    0    0 -0.14214223783E+02 -0.24382046361E+02 -0.60920291967E+01  0.28872844720E+02  0.00000000000E+00 0. -1.
</event>
<event>
 7    1  0.2886818E-013  0.7246165E+02  0.7816164E-02  0.1226708E+00
        -11   -1    0    0    0    0  0.00000000000E+00  0.00000000000E+00  0.45593999997E+02  0.45594000000E+02  0.51100000000E-03 0.  1.
         11   -1    0    0    0    0 -0.00000000000E+00 -0.00000000000E+00 -0.45593999997E+02  0.45594000000E+02  0.51100000000E-03 0. -1.
    9900012    2    1    2    0    0 -0.13305640597E+02 -0.12125568996E+02 -0.51581827622E+01  0.72461645721E+02  0.70000098257E+02 0.  0.
         12    1    1    2    0    0  0.13305640597E+02  0.12125568996E+02  0.51581827622E+01  0.18726354279E+02  0.00000000000E+00 0. -1.
         11    1    3    3    0    0  0.74746060760E+01  0.21013435340E+01 -0.11573605950E+01  0.78501506003E+01  0.51100000000E-03 0. -1.
        -11    1    3    3    0    0  0.52280940386E+01  0.39682707583E+01  0.22390038031E+02  0.23332251142E+02  0.51100000000E-03 0.  1.
         12    1    3    3    0    0 -0.26008340711E+02 -0.18195183288E+02 -0.26390860198E+02  0.41279243979E+02  0.00000000000E+00 0. -1.
</event>
<event>
 7    1  0.2886818E-013  0.7246155E+02  0.7816164E-02  0.1226708E+00
        -11   -1    0    0    0    0  0.00000000000E+00  0.00000000000E+00  0.45593999997E+02  0.45594000000E+02  0.51100000000E-03 0. -1.
         11   -1    0    0    0    0 -0.00000000000E+00 -0.00000000000E+00 -0.45593999997E+02  0.45594000000E+02  0.51100000000E-03 0.  1.
    9900012    2    1    2    0    0 -0.49393126917E+00 -0.59002403649E+01 -0.17765789970E+02  0.72461545512E+02  0.69999967716E+02 0.  0.
         12    1    1    2    0    0  0.49393126917E+00  0.59002403649E+01  0.17765789970E+02  0.18726454488E+02  0.00000000000E+00 0. -1.
         11    1    3    3    0    0 -0.10065039348E+02  0.20159696767E+01 -0.24003518121E+02  0.26106283406E+02  0.51100000000E-03 0. -1.
        -11    1    3    3    0    0 -0.10796225702E+02  0.12868221894E+02  0.13982422128E+01  0.16855405829E+02  0.51100000000E-03 0.  1.
         12    1    3    3    0    0  0.20367333780E+02 -0.20784431935E+02  0.48394859388E+01  0.29499856277E+02  0.00000000000E+00 0. -1.
</event>
<event>
 7    1  0.2886818E-013  0.7246154E+02  0.7816164E-02  0.1226708E+00
        -11   -1    0    0    0    0  0.00000000000E+00  0.00000000000E+00  0.45593999997E+02  0.45594000000E+02  0.51100000000E-03 0.  1.
         11   -1    0    0    0    0 -0.00000000000E+00 -0.00000000000E+00 -0.45593999997E+02  0.45594000000E+02  0.51100000000E-03 0. -1.
    9900012    2    1    2    0    0  0.11593183753E+02  0.98764800350E+01 -0.10896493677E+02  0.72461538992E+02  0.69999959223E+02 0.  0.
         12    1    1    2    0    0 -0.11593183753E+02 -0.98764800350E+01  0.10896493677E+02  0.18726461008E+02  0.00000000000E+00 0. -1.
         11    1    3    3    0    0  0.16453184252E+02  0.19843264532E+02 -0.23038270568E+02  0.34572016579E+02  0.51100000000E-03 0.  1.
        -11    1    3    3    0    0 -0.65670471670E+00  0.12760975209E+02  0.44054885428E+01  0.13515993450E+02  0.51100000000E-03 0. -1.
         12    1    3    3    0    0 -0.42032957827E+01 -0.22727759706E+02  0.77362883485E+01  0.24373528963E+02  0.00000000000E+00 0. -1.
</event>
<event>
 7    1  0.2886818E-013  0.7246155E+02  0.7816164E-02  0.1226708E+00
        -11   -1    0    0    0    0  0.00000000000E+00  0.00000000000E+00  0.45593999997E+02  0.45594000000E+02  0.51100000000E-03 0.  1.
         11   -1    0    0    0    0 -0.00000000000E+00 -0.00000000000E+00 -0.45593999997E+02  0.45594000000E+02  0.51100000000E-03 0. -1.
    9900012    2    1    2    0    0  0.26460678373E+01  0.48451170253E+01  0.17894221569E+02  0.72461548132E+02  0.69999971130E+02 0.  0.
         12    1    1    2    0    0 -0.26460678373E+01 -0.48451170253E+01 -0.17894221569E+02  0.18726451868E+02  0.00000000000E+00 0. -1.
         11    1    3    3    0    0 -0.11258583709E+02  0.84580160246E+01 -0.96204919951E+01  0.17054254856E+02  0.51100000000E-03 0. -1.
        -11    1    3    3    0    0  0.30886910834E+02 -0.36529514339E+01  0.17305948078E+02  0.35592712093E+02  0.51100000000E-03 0.  1.
         12    1    3    3    0    0 -0.16982259287E+02  0.40052434516E-01  0.10208765487E+02  0.19814581183E+02  0.00000000000E+00 0. -1.
</event>
<event>
 7    1  0.2886818E-013  0.7246154E+02  0.7816164E-02  0.1226708E+00
        -11   -1    0    0    0    0  0.00000000000E+00  0.00000000000E+00  0.45593999997E+02  0.45594000000E+02  0.51100000000E-03 0. -1.
         11   -1    0    0    0    0 -0.00000000000E+00 -0.00000000000E+00 -0.45593999997E+02  0.45594000000E+02  0.51100000000E-03 0.  1.
    9900012    2    1    2    0    0 -0.64625135206E+00  0.15026428274E+02 -0.11156566936E+02  0.72461543494E+02  0.69999965087E+02 0.  0.
         12    1    1    2    0    0  0.64625135206E+00 -0.15026428274E+02  0.11156566936E+02  0.18726456506E+02  0.00000000000E+00 0. -1.
         11    1    3    3    0    0  0.57167746096E+01 -0.22414114509E+01 -0.28785835820E+01  0.67817166653E+01  0.51100000000E-03 0. -1.
        -11    1    3    3    0    0 -0.30349625210E+02 -0.18436094406E+01 -0.15563187723E+02  0.34157158233E+02  0.51100000000E-03 0.  1.
         12    1    3    3    0    0  0.23986599249E+02  0.19111449165E+02  0.72852043686E+01  0.31522668596E+02  0.00000000000E+00 0. -1.
</event>
<event>
 7    1  0.2886818E-013  0.7246170E+02  0.7816164E-02  0.1226708E+00
        -11   -1    0    0    0    0  0.00000000000E+00  0.00000000000E+00  0.45593999997E+02  0.45594000000E+02  0.51100000000E-03 0.  1.
         11   -1    0    0    0    0 -0.00000000000E+00 -0.00000000000E+00 -0.45593999997E+02  0.45594000000E+02  0.51100000000E-03 0. -1.
    9900012    2    1    2    0    0  0.60848162281E+01 -0.98188705096E+01  0.14739028924E+02  0.72461703510E+02  0.70000173538E+02 0.  0.
         12    1    1    2    0    0 -0.60848162281E+01  0.98188705096E+01 -0.14739028924E+02  0.18726296490E+02  0.00000000000E+00 0. -1.
         11    1    3    3    0    0 -0.16089699882E+02  0.98925395033E+01 -0.19561912061E+01  0.18988614073E+02  0.51100000000E-03 0. -1.
        -11    1    3    3    0    0  0.25748191921E+02 -0.57192719613E+01 -0.55481369978E+01  0.26952945728E+02  0.51100000000E-03 0.  1.
         12    1    3    3    0    0 -0.35736758109E+01 -0.13992138052E+02  0.22243357128E+02  0.26520143709E+02  0.00000000000E+00 0. -1.
</event>
<event>
 7    1  0.2886818E-013  0.7246158E+02  0.7816164E-02  0.1226708E+00
        -11   -1    0    0    0    0  0.00000000000E+00  0.00000000000E+00  0.45593999997E+02  0.45594000000E+02  0.51100000000E-03 0.  1.
         11   -1    0    0    0    0 -0.00000000000E+00 -0.00000000000E+00 -0.45593999997E+02  0.45594000000E+02  0.51100000000E-03 0. -1.
    9900012    2    1    2    0    0 -0.24677559513E+01 -0.18560420420E+02 -0.31574227576E+00  0.72461582329E+02  0.70000015677E+02 0.  0.
         12    1    1    2    0    0  0.24677559513E+01  0.18560420420E+02  0.31574227576E+00  0.18726417671E+02  0.00000000000E+00 0. -1.
         11    1    3    3    0    0  0.12579184805E+02  0.77147122179E+01 -0.70683497776E+01  0.16361975547E+02  0.51100000000E-03 0. -1.
        -11    1    3    3    0    0  0.20810358480E+01 -0.13409518496E+02 -0.18526477527E+02  0.22964674313E+02  0.51100000000E-03 0.  1.
        -12    1    3    3    0    0 -0.17127976604E+02 -0.12865614142E+02  0.25279085029E+02  0.33134932469E+02  0.00000000000E+00 0.  1.
</event>
<event>
 7    1  0.2886818E-013  0.7246157E+02  0.7816164E-02  0.1226708E+00
        -11   -1    0    0    0    0  0.00000000000E+00  0.00000000000E+00  0.45593999997E+02  0.45594000000E+02  0.51100000000E-03 0. -1.
         11   -1    0    0    0    0 -0.00000000000E+00 -0.00000000000E+00 -0.45593999997E+02  0.45594000000E+02  0.51100000000E-03 0.  1.
    9900012    2    1    2    0    0  0.18139747012E+02  0.29356261087E+01 -0.36070448368E+01  0.72461572291E+02  0.70000002601E+02 0.  0.
         12    1    1    2    0    0 -0.18139747012E+02 -0.29356261087E+01  0.36070448368E+01  0.18726427709E+02  0.00000000000E+00 0. -1.
         11    1    3    3    0    0  0.13151710279E+02  0.26313919730E+02  0.75362960979E+01  0.30367509183E+02  0.51100000000E-03 0. -1.
        -11    1    3    3    0    0 -0.84798269512E+01  0.45223978155E+01 -0.27488794939E+01  0.99957934081E+01  0.51100000000E-03 0.  1.
         12    1    3    3    0    0  0.13467863684E+02 -0.27900691437E+02 -0.83944614409E+01  0.32098269700E+02  0.00000000000E+00 0. -1.
</event>
<event>
 7    1  0.2886818E-013  0.7246157E+02  0.7816164E-02  0.1226708E+00
        -11   -1    0    0    0    0  0.00000000000E+00  0.00000000000E+00  0.45593999997E+02  0.45594000000E+02  0.51100000000E-03 0. -1.
         11   -1    0    0    0    0 -0.00000000000E+00 -0.00000000000E+00 -0.45593999997E+02  0.45594000000E+02  0.51100000000E-03 0.  1.
    9900012    2    1    2    0    0  0.81949079759E+01 -0.12227808367E+02 -0.11575979153E+02  0.72461571949E+02  0.70000002155E+02 0.  0.
         12    1    1    2    0    0 -0.81949079759E+01  0.12227808367E+02  0.11575979153E+02  0.18726428051E+02  0.00000000000E+00 0. -1.
         11    1    3    3    0    0 -0.15348971422E+02  0.19661649455E+02 -0.12114431892E+01  0.24972764722E+02  0.51100000000E-03 0. -1.
        -11    1    3    3    0    0  0.16403710233E+01  0.36194719504E+01 -0.33178558362E+01  0.51768293293E+01  0.51100000000E-03 0.  1.
        -12    1    3    3    0    0  0.21903508375E+02 -0.35508929773E+02 -0.70466801277E+01  0.42311977897E+02  0.00000000000E+00 0.  1.
</event>
<event>
 7    1  0.2886818E-013  0.7246178E+02  0.7816164E-02  0.1226707E+00
        -11   -1    0    0    0    0  0.00000000000E+00  0.00000000000E+00  0.45593999997E+02  0.45594000000E+02  0.51100000000E-03 0. -1.
         11   -1    0    0    0    0 -0.00000000000E+00 -0.00000000000E+00 -0.45593999997E+02  0.45594000000E+02  0.51100000000E-03 0.  1.
    9900012    2    1    2    0    0 -0.94551688984E+01  0.16161387404E+02  0.28428864375E+00  0.72461775561E+02  0.70000267397E+02 0.  0.
         12    1    1    2    0    0  0.94551688984E+01 -0.16161387404E+02 -0.28428864375E+00  0.18726224439E+02  0.00000000000E+00 0. -1.
         11    1    3    3    0    0 -0.19822595549E+02 -0.13773763000E+02  0.18138921801E+02  0.30193912066E+02  0.51100000000E-03 0. -1.
        -11    1    3    3    0    0 -0.27851554838E+01  0.39015681227E+01  0.36540357627E+01  0.60275453131E+01  0.51100000000E-03 0.  1.
        -12    1    3    3    0    0  0.13152582134E+02  0.26033582281E+02 -0.21508668920E+02  0.36240318182E+02  0.00000000000E+00 0.  1.
</event>
<event>
 7    1  0.2886818E-013  0.7246161E+02  0.7816164E-02  0.1226708E+00
        -11   -1    0    0    0    0  0.00000000000E+00  0.00000000000E+00  0.45593999997E+02  0.45594000000E+02  0.51100000000E-03 0.  1.
         11   -1    0    0    0    0 -0.00000000000E+00 -0.00000000000E+00 -0.45593999997E+02  0.45594000000E+02  0.51100000000E-03 0. -1.
    9900012    2    1    2    0    0 -0.17312681634E+02  0.53814988875E+01 -0.46891674338E+01  0.72461607745E+02  0.70000048787E+02 0.  0.
         12    1    1    2    0    0  0.17312681634E+02 -0.53814988875E+01  0.46891674338E+01  0.18726392255E+02  0.00000000000E+00 0. -1.
         11    1    3    3    0    0 -0.17497503092E+02  0.21595797505E+02  0.78156234571E+01  0.28872565778E+02  0.51100000000E-03 0. -1.
        -11    1    3    3    0    0 -0.12365861374E+02  0.78012071051E+01 -0.52795629374E+01  0.15545003856E+02  0.51100000000E-03 0.  1.
         12    1    3    3    0    0  0.12550682831E+02 -0.24015505722E+02 -0.72252279536E+01  0.28044038112E+02  0.00000000000E+00 0. -1.
</event>
<event>
 7    1  0.2886818E-013  0.7246161E+02  0.7816164E-02  0.1226708E+00
        -11   -1    0    0    0    0  0.00000000000E+00  0.00000000000E+00  0.45593999997E+02  0.45594000000E+02  0.51100000000E-03 0.  1.
         11   -1    0    0    0    0 -0.00000000000E+00 -0.00000000000E+00 -0.45593999997E+02  0.45594000000E+02  0.51100000000E-03 0. -1.
    9900012    2    1    2    0    0 -0.66960965451E+01  0.16149682719E+02  0.67102786598E+01  0.72461606846E+02  0.70000047615E+02 0.  0.
         12    1    1    2    0    0  0.66960965451E+01 -0.16149682719E+02 -0.67102786598E+01  0.18726393154E+02  0.00000000000E+00 0. -1.
         11    1    3    3    0    0  0.59523231235E+01 -0.11671390754E+02 -0.15114895247E+01  0.13188484126E+02  0.51100000000E-03 0. -1.
        -11    1    3    3    0    0  0.25768243308E+01  0.83813264696E+01 -0.19961825112E+02  0.21802777784E+02  0.51100000000E-03 0.  1.
        -12    1    3    3    0    0 -0.15225243999E+02  0.19439747004E+02  0.28183593297E+02  0.37470344935E+02  0.00000000000E+00 0.  1.
</event>
<event>
 7    1  0.2886818E-013  0.7246156E+02  0.7816164E-02  0.1226708E+00
        -11   -1    0    0    0    0  0.00000000000E+00  0.00000000000E+00  0.45593999997E+02  0.45594000000E+02  0.51100000000E-03 0.  1.
         11   -1    0    0    0    0 -0.00000000000E+00 -0.00000000000E+00 -0.45593999997E+02  0.45594000000E+02  0.51100000000E-03 0. -1.
    9900012    2    1    2    0    0  0.14494042915E+02  0.53416090456E+01  0.10586287234E+02  0.72461560279E+02  0.69999986953E+02 0.  0.
         12    1    1    2    0    0 -0.14494042915E+02 -0.53416090456E+01 -0.10586287234E+02  0.18726439721E+02  0.00000000000E+00 0. -1.
         11    1    3    3    0    0  0.12641506889E+01  0.14590598066E+02  0.87319444939E+01  0.17050820619E+02  0.51100000000E-03 0. -1.
        -11    1    3    3    0    0  0.18095625872E+02  0.12166300770E+02  0.17900801836E+02  0.28211863759E+02  0.51100000000E-03 0.  1.
         12    1    3    3    0    0 -0.48657336464E+01 -0.21415289790E+02 -0.16046459096E+02  0.27198875900E+02  0.00000000000E+00 0. -1.
</event>
<event>
 7    1  0.2886818E-013  0.7246166E+02  0.7816164E-02  0.1226708E+00
        -11   -1    0    0    0    0  0.00000000000E+00  0.00000000000E+00  0.45593999997E+02  0.45594000000E+02  0.51100000000E-03 0.  1.
         11   -1    0    0    0    0 -0.00000000000E+00 -0.00000000000E+00 -0.45593999997E+02  0.45594000000E+02  0.51100000000E-03 0. -1.
    9900012    2    1    2    0    0  0.25961265152E+01  0.18509357076E+02  0.11573814294E+01  0.72461662824E+02  0.70000120537E+02 0.  0.
         12    1    1    2    0    0 -0.25961265152E+01 -0.18509357076E+02 -0.11573814294E+01  0.18726337176E+02  0.00000000000E+00 0. -1.
         11    1    3    3    0    0 -0.58452590147E+00  0.17166737651E+02 -0.14366078187E+02  0.22392470941E+02  0.51100000000E-03 0. -1.
        -11    1    3    3    0    0  0.19889736857E+02 -0.64768011201E+01 -0.59615069380E+01  0.21750635628E+02  0.51100000000E-03 0.  1.
        -12    1    3    3    0    0 -0.16709084440E+02  0.78194205455E+01  0.21484966555E+02  0.28318556255E+02  0.00000000000E+00 0.  1.
</event>
<event>
 7    1  0.2886818E-013  0.7246156E+02  0.7816164E-02  0.1226708E+00
        -11   -1    0    0    0    0  0.00000000000E+00  0.00000000000E+00  0.45593999997E+02  0.45594000000E+02  0.51100000000E-03 0.  1.
         11   -1    0    0    0    0 -0.00000000000E+00 -0.00000000000E+00 -0.45593999997E+02  0.45594000000E+02  0.51100000000E-03 0. -1.
    9900012    2    1    2    0    0 -0.14590478218E+01 -0.44346808488E+01  0.18135172326E+02  0.72461556395E+02  0.69999981894E+02 0.  0.
         12    1    1    2    0    0  0.14590478218E+01  0.44346808488E+01 -0.18135172326E+02  0.18726443605E+02  0.00000000000E+00 0. -1.
         11    1    3    3    0    0  0.26282560169E+01  0.10537858965E+02  0.28491213963E+01  0.11228165222E+02  0.51100000000E-03 0. -1.
        -11    1    3    3    0    0 -0.92622277752E+01  0.30943151417E+01 -0.19436133760E+02  0.21751481451E+02  0.51100000000E-03 0.  1.
         12    1    3    3    0    0  0.51749239364E+01 -0.18066854955E+02  0.34722184689E+02  0.39481909722E+02  0.00000000000E+00 0. -1.
</event>
<event>
 7    1  0.2886818E-013  0.7246156E+02  0.7816164E-02  0.1226708E+00
        -11   -1    0    0    0    0  0.00000000000E+00  0.00000000000E+00  0.45593999997E+02  0.45594000000E+02  0.51100000000E-03 0. -1.
         11   -1    0    0    0    0 -0.00000000000E+00 -0.00000000000E+00 -0.45593999997E+02  0.45594000000E+02  0.51100000000E-03 0.  1.
    9900012    2    1    2    0    0 -0.11262803863E+02 -0.10476367665E+02 -0.10680560086E+02  0.72461564299E+02  0.69999992190E+02 0.  0.
         12    1    1    2    0    0  0.11262803863E+02  0.10476367665E+02  0.10680560086E+02  0.18726435701E+02  0.00000000000E+00 0. -1.
         11    1    3    3    0    0 -0.22770319714E+02 -0.12384700061E+02  0.16115064530E+02  0.30521526183E+02  0.51100000000E-03 0. -1.
        -11    1    3    3    0    0 -0.45142594717E+01  0.62134806103E+01  0.26649416134E+01  0.81294399522E+01  0.51100000000E-03 0.  1.
         12    1    3    3    0    0  0.16021775322E+02 -0.43051482144E+01 -0.29460566230E+02  0.33810598164E+02  0.00000000000E+00 0. -1.
</event>
<event>
 7    1  0.2886818E-013  0.7246188E+02  0.7816164E-02  0.1226707E+00
        -11   -1    0    0    0    0  0.00000000000E+00  0.00000000000E+00  0.45593999997E+02  0.45594000000E+02  0.51100000000E-03 0. -1.
         11   -1    0    0    0    0 -0.00000000000E+00 -0.00000000000E+00 -0.45593999997E+02  0.45594000000E+02  0.51100000000E-03 0.  1.
    9900012    2    1    2    0    0  0.17251048960E+00  0.15825612594E+02 -0.10009388496E+02  0.72461878353E+02  0.70000401303E+02 0.  0.
         12    1    1    2    0    0 -0.17251048960E+00 -0.15825612594E+02  0.10009388496E+02  0.18726121647E+02  0.00000000000E+00 0. -1.
         11    1    3    3    0    0  0.16194775817E+02  0.81731029659E+01  0.11982749566E+02  0.21740668418E+02  0.51100000000E-03 0. -1.
        -11    1    3    3    0    0  0.95203173865E+01  0.14652913042E+02 -0.21031711817E+01  0.17600216846E+02  0.51100000000E-03 0.  1.
        -12    1    3    3    0    0 -0.25542582714E+02 -0.70004034132E+01 -0.19888966880E+02  0.33120993089E+02  0.00000000000E+00 0.  1.
</event>
<event>
 7    1  0.2886818E-013  0.7246156E+02  0.7816164E-02  0.1226708E+00
        -11   -1    0    0    0    0  0.00000000000E+00  0.00000000000E+00  0.45593999997E+02  0.45594000000E+02  0.51100000000E-03 0.  1.
         11   -1    0    0    0    0 -0.00000000000E+00 -0.00000000000E+00 -0.45593999997E+02  0.45594000000E+02  0.51100000000E-03 0. -1.
    9900012    2    1    2    0    0 -0.16704186248E+02  0.16782226900E+01  0.82965814183E+01  0.72461560594E+02  0.69999987364E+02 0.  0.
         12    1    1    2    0    0  0.16704186248E+02 -0.16782226900E+01 -0.82965814183E+01  0.18726439406E+02  0.00000000000E+00 0. -1.
         11    1    3    3    0    0  0.38203546618E+01 -0.68465752452E+01 -0.95191193730E+00  0.78979009191E+01  0.51100000000E-03 0. -1.
        -11    1    3    3    0    0  0.98854988330E+01  0.12627141824E+02 -0.17585950885E+02  0.23799862744E+02  0.51100000000E-03 0.  1.
         12    1    3    3    0    0 -0.30410039742E+02 -0.41023438890E+01  0.26834444241E+02  0.40763796931E+02  0.00000000000E+00 0. -1.
</event>
<event>
 7    1  0.2886818E-013  0.7246157E+02  0.7816164E-02  0.1226708E+00
        -11   -1    0    0    0    0  0.00000000000E+00  0.00000000000E+00  0.45593999997E+02  0.45594000000E+02  0.51100000000E-03 0. -1.
         11   -1    0    0    0    0 -0.00000000000E+00 -0.00000000000E+00 -0.45593999997E+02  0.45594000000E+02  0.51100000000E-03 0.  1.
    9900012    2    1    2    0    0  0.72492563166E+01  0.17149343378E+02 -0.20068558027E+01  0.72461570398E+02  0.70000000135E+02 0.  0.
         12    1    1    2    0    0 -0.72492563166E+01 -0.17149343378E+02  0.20068558027E+01  0.18726429602E+02  0.00000000000E+00 0. -1.
         11    1    3    3    0    0 -0.48844094827E+01  0.16934112052E+02  0.14831989339E+02  0.23034962882E+02  0.51100000000E-03 0. -1.
        -11    1    3    3    0    0 -0.49222192962E+01  0.19504731570E+02 -0.11357842546E+02  0.23101155469E+02  0.51100000000E-03 0.  1.
         12    1    3    3    0    0  0.17055885096E+02 -0.19289500244E+02 -0.54810025951E+01  0.26325452047E+02  0.00000000000E+00 0. -1.
</event>
<event>
 7    1  0.2886818E-013  0.7246160E+02  0.7816164E-02  0.1226708E+00
        -11   -1    0    0    0    0  0.00000000000E+00  0.00000000000E+00  0.45593999997E+02  0.45594000000E+02  0.51100000000E-03 0. -1.
         11   -1    0    0    0    0 -0.00000000000E+00 -0.00000000000E+00 -0.45593999997E+02  0.45594000000E+02  0.51100000000E-03 0.  1.
    9900012    2    1    2    0    0 -0.11797643275E+02 -0.90455110688E+01 -0.11387377767E+02  0.72461600727E+02  0.70000039644E+02 0.  0.
         12    1    1    2    0    0  0.11797643275E+02  0.90455110688E+01  0.11387377767E+02  0.18726399273E+02  0.00000000000E+00 0. -1.
         11    1    3    3    0    0  0.71269980924E+01  0.11649409255E+02 -0.94287786963E+01  0.16595321804E+02  0.51100000000E-03 0. -1.
        -11    1    3    3    0    0 -0.26224234001E+02  0.70332173882E+01 -0.14272197749E+01  0.27188481979E+02  0.51100000000E-03 0.  1.
        -12    1    3    3    0    0  0.72995926335E+01 -0.27728137712E+02 -0.53137929533E+00  0.28677796944E+02  0.00000000000E+00 0.  1.
</event>
<event>
 7    1  0.2886818E-013  0.7246157E+02  0.7816164E-02  0.1226708E+00
        -11   -1    0    0    0    0  0.00000000000E+00  0.00000000000E+00  0.45593999997E+02  0.45594000000E+02  0.51100000000E-03 0. -1.
         11   -1    0    0    0    0 -0.00000000000E+00 -0.00000000000E+00 -0.45593999997E+02  0.45594000000E+02  0.51100000000E-03 0.  1.
    9900012    2    1    2    0    0 -0.14964259250E+02  0.62369528908E+01 -0.93728544300E+01  0.72461573848E+02  0.70000004629E+02 0.  0.
         12    1    1    2    0    0  0.14964259250E+02 -0.62369528908E+01  0.93728544300E+01  0.18726426152E+02  0.00000000000E+00 0. -1.
         11    1    3    3    0    0 -0.26127222663E+02  0.24676810365E+02 -0.75111901252E+01  0.36715047477E+02  0.51100000000E-03 0. -1.
        -11    1    3    3    0    0 -0.30345122645E+01 -0.61193424811E+01 -0.12428803051E+02  0.14182022515E+02  0.51100000000E-03 0.  1.
        -12    1    3    3    0    0  0.14197475678E+02 -0.12320514993E+02  0.10567138746E+02  0.21564503857E+02  0.00000000000E+00 0.  1.
</event>
<event>
 7    1  0.2886818E-013  0.7246158E+02  0.7816164E-02  0.1226708E+00
        -11   -1    0    0    0    0  0.00000000000E+00  0.00000000000E+00  0.45593999997E+02  0.45594000000E+02  0.51100000000E-03 0.  1.
         11   -1    0    0    0    0 -0.00000000000E+00 -0.00000000000E+00 -0.45593999997E+02  0.45594000000E+02  0.51100000000E-03 0. -1.
    9900012    2    1    2    0    0 -0.43958207058E+01  0.14636958458E+02  0.10821970443E+02  0.72461579177E+02  0.70000011571E+02 0.  0.
         12    1    1    2    0    0  0.43958207058E+01 -0.14636958458E+02 -0.10821970443E+02  0.18726420823E+02  0.00000000000E+00 0. -1.
         11    1    3    3    0    0 -0.18056957240E+02  0.15715658134E+02 -0.92173438817E+01  0.25651414071E+02  0.51100000000E-03 0. -1.
        -11    1    3    3    0    0 -0.29239488695E+01  0.10540177278E+02  0.23818942150E+02  0.26210433408E+02  0.51100000000E-03 0.  1.
         12    1    3    3    0    0  0.16585085404E+02 -0.11618876954E+02 -0.37796278246E+01  0.20599731698E+02  0.00000000000E+00 0. -1.
</event>
<event>
 7    1  0.2886818E-013  0.7246156E+02  0.7816164E-02  0.1226708E+00
        -11   -1    0    0    0    0  0.00000000000E+00  0.00000000000E+00  0.45593999997E+02  0.45594000000E+02  0.51100000000E-03 0. -1.
         11   -1    0    0    0    0 -0.00000000000E+00 -0.00000000000E+00 -0.45593999997E+02  0.45594000000E+02  0.51100000000E-03 0.  1.
    9900012    2    1    2    0    0 -0.13280049848E+02 -0.12378591952E+02  0.45923969746E+01  0.72461564871E+02  0.69999992935E+02 0.  0.
         12    1    1    2    0    0  0.13280049848E+02  0.12378591952E+02 -0.45923969746E+01  0.18726435129E+02  0.00000000000E+00 0. -1.
         11    1    3    3    0    0  0.76005195233E+01  0.19305871122E+01 -0.67737621922E+01  0.10362379945E+02  0.51100000000E-03 0. -1.
        -11    1    3    3    0    0 -0.30806925528E+02  0.11486550690E+02  0.20923662160E+01  0.32945189389E+02  0.51100000000E-03 0.  1.
         12    1    3    3    0    0  0.99263561574E+01 -0.25795729754E+02  0.92737929508E+01  0.29153995537E+02  0.00000000000E+00 0. -1.
</event>
<event>
 7    1  0.2886818E-013  0.7246162E+02  0.7816164E-02  0.1226708E+00
        -11   -1    0    0    0    0  0.00000000000E+00  0.00000000000E+00  0.45593999997E+02  0.45594000000E+02  0.51100000000E-03 0. -1.
         11   -1    0    0    0    0 -0.00000000000E+00 -0.00000000000E+00 -0.45593999997E+02  0.45594000000E+02  0.51100000000E-03 0.  1.
    9900012    2    1    2    0    0  0.27567383041E+01  0.18349255188E+02 -0.25264049550E+01  0.72461615030E+02  0.70000058277E+02 0.  0.
         12    1    1    2    0    0 -0.27567383041E+01 -0.18349255188E+02  0.25264049550E+01  0.18726384970E+02  0.00000000000E+00 0. -1.
         11    1    3    3    0    0 -0.27684507106E+01  0.33953444813E+02 -0.89798271611E+00  0.34077956324E+02  0.51100000000E-03 0. -1.
        -11    1    3    3    0    0 -0.12596983982E+02 -0.26047676223E+01 -0.80505680187E+01  0.15174994744E+02  0.51100000000E-03 0.  1.
        -12    1    3    3    0    0  0.18122172997E+02 -0.12999422002E+02  0.64221457798E+01  0.23208663963E+02  0.00000000000E+00 0.  1.
</event>
<event>
 7    1  0.2886818E-013  0.7246156E+02  0.7816164E-02  0.1226708E+00
        -11   -1    0    0    0    0  0.00000000000E+00  0.00000000000E+00  0.45593999997E+02  0.45594000000E+02  0.51100000000E-03 0.  1.
         11   -1    0    0    0    0 -0.00000000000E+00 -0.00000000000E+00 -0.45593999997E+02  0.45594000000E+02  0.51100000000E-03 0. -1.
    9900012    2    1    2    0    0  0.32338510781E+01 -0.18372055335E+02 -0.16399063494E+01  0.72461561394E+02  0.69999988406E+02 0.  0.
         12    1    1    2    0    0 -0.32338510781E+01  0.18372055335E+02  0.16399063494E+01  0.18726438606E+02  0.00000000000E+00 0. -1.
         11    1    3    3    0    0 -0.28981658873E+00  0.16804049284E+02  0.45460362616E+01  0.17410528767E+02  0.51100000000E-03 0. -1.
        -11    1    3    3    0    0 -0.57393578104E+01  0.10533780162E+01 -0.15458908638E+02  0.16523549554E+02  0.51100000000E-03 0.  1.
        -12    1    3    3    0    0  0.92630254773E+01 -0.36229482635E+02  0.92729660268E+01  0.38527483073E+02  0.00000000000E+00 0.  1.
</event>
<event>
 7    1  0.2886818E-013  0.7246148E+02  0.7816164E-02  0.1226708E+00
        -11   -1    0    0    0    0  0.00000000000E+00  0.00000000000E+00  0.45593999997E+02  0.45594000000E+02  0.51100000000E-03 0.  1.
         11   -1    0    0    0    0 -0.00000000000E+00 -0.00000000000E+00 -0.45593999997E+02  0.45594000000E+02  0.51100000000E-03 0. -1.
    9900012    2    1    2    0    0  0.86262031351E+00  0.17929318078E+02  0.53364762650E+01  0.72461480316E+02  0.69999882787E+02 0.  0.
         12    1    1    2    0    0 -0.86262031351E+00 -0.17929318078E+02 -0.53364762650E+01  0.18726519684E+02  0.00000000000E+00 0. -1.
         11    1    3    3    0    0 -0.22182071244E+01 -0.37072303034E+01 -0.14565758705E+02  0.15192936723E+02  0.51100000000E-03 0. -1.
        -11    1    3    3    0    0 -0.14740719739E+02  0.20450834508E+02  0.27983608211E+02  0.37664409982E+02  0.51100000000E-03 0.  1.
         12    1    3    3    0    0  0.17821547177E+02  0.11857138726E+01 -0.80813732413E+01  0.19604133611E+02  0.00000000000E+00 0. -1.
</event>
<event>
 7    1  0.2886818E-013  0.7246159E+02  0.7816164E-02  0.1226708E+00
        -11   -1    0    0    0    0  0.00000000000E+00  0.00000000000E+00  0.45593999997E+02  0.45594000000E+02  0.51100000000E-03 0. -1.
         11   -1    0    0    0    0 -0.00000000000E+00 -0.00000000000E+00 -0.45593999997E+02  0.45594000000E+02  0.51100000000E-03 0.  1.
    9900012    2    1    2    0    0 -0.13138884972E+02  0.13272698228E+02  0.13724825513E+01  0.72461587506E+02  0.70000022421E+02 0.  0.
         12    1    1    2    0    0  0.13138884972E+02 -0.13272698228E+02 -0.13724825513E+01  0.18726412494E+02  0.00000000000E+00 0. -1.
         11    1    3    3    0    0  0.20042966008E+02  0.16033302735E+02  0.11176270773E+02  0.27994576468E+02  0.51100000000E-03 0. -1.
        -11    1    3    3    0    0 -0.25361230278E+02  0.19249623938E+01  0.60818004275E+01  0.26151209879E+02  0.51100000000E-03 0.  1.
        -12    1    3    3    0    0 -0.78206207024E+01 -0.46855669012E+01 -0.15885588649E+02  0.18315801159E+02  0.00000000000E+00 0.  1.
</event>
<event>
 7    1  0.2886818E-013  0.7246159E+02  0.7816164E-02  0.1226708E+00
        -11   -1    0    0    0    0  0.00000000000E+00  0.00000000000E+00  0.45593999997E+02  0.45594000000E+02  0.51100000000E-03 0. -1.
         11   -1    0    0    0    0 -0.00000000000E+00 -0.00000000000E+00 -0.45593999997E+02  0.45594000000E+02  0.51100000000E-03 0.  1.
    9900012    2    1    2    0    0  0.78028572352E+01  0.17012968205E+02 -0.59407014766E+00  0.72461585834E+02  0.70000020243E+02 0.  0.
         12    1    1    2    0    0 -0.78028572352E+01 -0.17012968205E+02  0.59407014766E+00  0.18726414166E+02  0.00000000000E+00 0. -1.
         11    1    3    3    0    0 -0.72297999355E+01  0.22574264452E+01 -0.12645045118E+02  0.14739848967E+02  0.51100000000E-03 0. -1.
        -11    1    3    3    0    0 -0.23250818925E+00 -0.63097022888E+01 -0.17350357633E+02  0.18463513027E+02  0.51100000000E-03 0.  1.
         12    1    3    3    0    0  0.15265165360E+02  0.21065244049E+02  0.29401332603E+02  0.39258223841E+02  0.00000000000E+00 0. -1.
</event>
<event>
 7    1  0.2886818E-013  0.7246145E+02  0.7816164E-02  0.1226708E+00
        -11   -1    0    0    0    0  0.00000000000E+00  0.00000000000E+00  0.45593999997E+02  0.45594000000E+02  0.51100000000E-03 0. -1.
         11   -1    0    0    0    0 -0.00000000000E+00 -0.00000000000E+00 -0.45593999997E+02  0.45594000000E+02  0.51100000000E-03 0.  1.
    9900012    2    1    2    0    0 -0.18715502678E+02 -0.37198944286E+00  0.52448210971E+00  0.72461454720E+02  0.69999849443E+02 0.  0.
         12    1    1    2    0    0  0.18715502678E+02  0.37198944286E+00 -0.52448210971E+00  0.18726545280E+02  0.00000000000E+00 0. -1.
         11    1    3    3    0    0  0.69792004765E+01  0.13827250254E+02  0.25989095913E+02  0.30254507028E+02  0.51100000000E-03 0. -1.
        -11    1    3    3    0    0 -0.97904651331E+01  0.24353770458E+01 -0.11453181264E+02  0.15263015109E+02  0.51100000000E-03 0.  1.
        -12    1    3    3    0    0 -0.15904238022E+02 -0.16634616743E+02 -0.14011432540E+02  0.26943932583E+02  0.00000000000E+00 0.  1.
</event>
<event>
 7    1  0.2886818E-013  0.7246160E+02  0.7816164E-02  0.1226708E+00
        -11   -1    0    0    0    0  0.00000000000E+00  0.00000000000E+00  0.45593999997E+02  0.45594000000E+02  0.51100000000E-03 0.  1.
         11   -1    0    0    0    0 -0.00000000000E+00 -0.00000000000E+00 -0.45593999997E+02  0.45594000000E+02  0.51100000000E-03 0. -1.
    9900012    2    1    2    0    0 -0.15542951953E+02 -0.56206553523E+01 -0.88035747775E+01  0.72461600163E+02  0.70000038909E+02 0.  0.
         12    1    1    2    0    0  0.15542951953E+02  0.56206553523E+01  0.88035747775E+01  0.18726399837E+02  0.00000000000E+00 0. -1.
         11    1    3    3    0    0 -0.74631036804E+01 -0.22226401388E+02 -0.18147179081E+02  0.29648456015E+02  0.51100000000E-03 0. -1.
        -11    1    3    3    0    0 -0.77487164911E+01  0.71516766990E+01 -0.14057219179E+02  0.17572549564E+02  0.51100000000E-03 0.  1.
        -12    1    3    3    0    0 -0.33113178120E+00  0.94540693370E+01  0.23400823483E+02  0.25240594584E+02  0.00000000000E+00 0.  1.
</event>
<event>
 7    1  0.2886818E-013  0.7246157E+02  0.7816164E-02  0.1226708E+00
        -11   -1    0    0    0    0  0.00000000000E+00  0.00000000000E+00  0.45593999997E+02  0.45594000000E+02  0.51100000000E-03 0. -1.
         11   -1    0    0    0    0 -0.00000000000E+00 -0.00000000000E+00 -0.45593999997E+02  0.45594000000E+02  0.51100000000E-03 0.  1.
    9900012    2    1    2    0    0 -0.50047166370E+01 -0.17324094596E+02  0.50505055835E+01  0.72461573517E+02  0.70000004198E+02 0.  0.
         12    1    1    2    0    0  0.50047166370E+01  0.17324094596E+02 -0.50505055835E+01  0.18726426483E+02  0.00000000000E+00 0. -1.
         11    1    3    3    0    0 -0.71212151400E+01  0.37297537879E+01  0.13380779785E+02  0.15609869836E+02  0.51100000000E-03 0. -1.
        -11    1    3    3    0    0 -0.11246378740E+02  0.14256581729E+02  0.13906832366E+00  0.18159033499E+02  0.51100000000E-03 0.  1.
         12    1    3    3    0    0  0.13362877243E+02 -0.35310430113E+02 -0.84693425252E+01  0.38692670181E+02  0.00000000000E+00 0. -1.
</event>
<event>
 7    1  0.2886818E-013  0.7246157E+02  0.7816164E-02  0.1226708E+00
        -11   -1    0    0    0    0  0.00000000000E+00  0.00000000000E+00  0.45593999997E+02  0.45594000000E+02  0.51100000000E-03 0.  1.
         11   -1    0    0    0    0 -0.00000000000E+00 -0.00000000000E+00 -0.45593999997E+02  0.45594000000E+02  0.51100000000E-03 0. -1.
    9900012    2    1    2    0    0  0.16697142247E+02  0.82504560960E+01  0.19530919386E+01  0.72461570732E+02  0.70000000570E+02 0.  0.
         12    1    1    2    0    0 -0.16697142247E+02 -0.82504560960E+01 -0.19530919386E+01  0.18726429268E+02  0.00000000000E+00 0. -1.
         11    1    3    3    0    0 -0.76036803319E+01  0.10700666906E+02 -0.80610299214E+01  0.15404558757E+02  0.51100000000E-03 0. -1.
        -11    1    3    3    0    0 -0.13762892532E+02  0.89300603439E+01  0.19926149167E+01  0.16526757186E+02  0.51100000000E-03 0.  1.
        -12    1    3    3    0    0  0.38063715112E+02 -0.11380271154E+02  0.80215069433E+01  0.40530254789E+02  0.00000000000E+00 0.  1.
</event>
<event>
 7    1  0.2886818E-013  0.7246158E+02  0.7816164E-02  0.1226708E+00
        -11   -1    0    0    0    0  0.00000000000E+00  0.00000000000E+00  0.45593999997E+02  0.45594000000E+02  0.51100000000E-03 0.  1.
         11   -1    0    0    0    0 -0.00000000000E+00 -0.00000000000E+00 -0.45593999997E+02  0.45594000000E+02  0.51100000000E-03 0. -1.
    9900012    2    1    2    0    0  0.31753196353E+01 -0.28657390352E+01  0.18231387944E+02  0.72461584930E+02  0.70000019066E+02 0.  0.
         12    1    1    2    0    0 -0.31753196353E+01  0.28657390352E+01 -0.18231387944E+02  0.18726415070E+02  0.00000000000E+00 0. -1.
         11    1    3    3    0    0 -0.36222631783E+01  0.79959034458E+01  0.91336363918E+01  0.12668013911E+02  0.51100000000E-03 0. -1.
        -11    1    3    3    0    0  0.21033293126E+02  0.13817022817E+02  0.16827579914E+02  0.30273370893E+02  0.51100000000E-03 0.  1.
         12    1    3    3    0    0 -0.14235710312E+02 -0.24678665298E+02 -0.77298283615E+01  0.29520200126E+02  0.00000000000E+00 0. -1.
</event>
<event>
 7    1  0.2886818E-013  0.7246169E+02  0.7816164E-02  0.1226708E+00
        -11   -1    0    0    0    0  0.00000000000E+00  0.00000000000E+00  0.45593999997E+02  0.45594000000E+02  0.51100000000E-03 0.  1.
         11   -1    0    0    0    0 -0.00000000000E+00 -0.00000000000E+00 -0.45593999997E+02  0.45594000000E+02  0.51100000000E-03 0. -1.
    9900012    2    1    2    0    0 -0.65398025343E+01  0.69225459549E+01  0.16124015624E+02  0.72461693917E+02  0.70000161041E+02 0.  0.
         12    1    1    2    0    0  0.65398025343E+01 -0.69225459549E+01 -0.16124015624E+02  0.18726306083E+02  0.00000000000E+00 0. -1.
         11    1    3    3    0    0  0.52351018413E+01 -0.97889762412E+01  0.35175262347E+02  0.36885355204E+02  0.51100000000E-03 0. -1.
        -11    1    3    3    0    0  0.65760106800E+01  0.51872981360E+01 -0.53820152828E+01  0.99558057022E+01  0.51100000000E-03 0.  1.
        -12    1    3    3    0    0 -0.18350915056E+02  0.11524224060E+02 -0.13669231440E+02  0.25620533010E+02  0.00000000000E+00 0.  1.
</event>
<event>
 7    1  0.2886818E-013  0.7246163E+02  0.7816164E-02  0.1226708E+00
        -11   -1    0    0    0    0  0.00000000000E+00  0.00000000000E+00  0.45593999997E+02  0.45594000000E+02  0.51100000000E-03 0.  1.
         11   -1    0    0    0    0 -0.00000000000E+00 -0.00000000000E+00 -0.45593999997E+02  0.45594000000E+02  0.51100000000E-03 0. -1.
    9900012    2    1    2    0    0 -0.17836950494E+02  0.90636509091E-01  0.57019233893E+01  0.72461629603E+02  0.70000077261E+02 0.  0.
         12    1    1    2    0    0  0.17836950494E+02 -0.90636509091E-01 -0.57019233893E+01  0.18726370397E+02  0.00000000000E+00 0. -1.
         11    1    3    3    0    0 -0.37013330640E+00  0.14064375530E+02 -0.22710389896E+02  0.26715266557E+02  0.51100000000E-03 0. -1.
        -11    1    3    3    0    0  0.24073071635E+01 -0.78309873100E+01 -0.24293582943E+01  0.85452485049E+01  0.51100000000E-03 0.  1.
        -12    1    3    3    0    0 -0.19874124351E+02 -0.61427517108E+01  0.30841671580E+02  0.37201114541E+02  0.00000000000E+00 0.  1.
</event>
<event>
 7    1  0.2886818E-013  0.7246161E+02  0.7816164E-02  0.1226708E+00
        -11   -1    0    0    0    0  0.00000000000E+00  0.00000000000E+00  0.45593999997E+02  0.45594000000E+02  0.51100000000E-03 0. -1.
         11   -1    0    0    0    0 -0.00000000000E+00 -0.00000000000E+00 -0.45593999997E+02  0.45594000000E+02  0.51100000000E-03 0.  1.
    9900012    2    1    2    0    0 -0.14501234288E+02 -0.84398341057E+01 -0.83163212585E+01  0.72461606998E+02  0.70000047813E+02 0.  0.
         12    1    1    2    0    0  0.14501234288E+02  0.84398341057E+01  0.83163212585E+01  0.18726393002E+02  0.00000000000E+00 0. -1.
         11    1    3    3    0    0 -0.27144153639E+01 -0.30104055275E+02  0.12528299360E+01  0.30252136749E+02  0.51100000000E-03 0. -1.
        -11    1    3    3    0    0  0.51410215012E+01 -0.89534927733E-01 -0.13425972151E+02  0.14376885861E+02  0.51100000000E-03 0.  1.
         12    1    3    3    0    0 -0.16927840425E+02  0.21753756097E+02  0.38568209568E+01  0.27832584388E+02  0.00000000000E+00 0. -1.
</event>
<event>
 7    1  0.2886818E-013  0.7246158E+02  0.7816164E-02  0.1226708E+00
        -11   -1    0    0    0    0  0.00000000000E+00  0.00000000000E+00  0.45593999997E+02  0.45594000000E+02  0.51100000000E-03 0.  1.
         11   -1    0    0    0    0 -0.00000000000E+00 -0.00000000000E+00 -0.45593999997E+02  0.45594000000E+02  0.51100000000E-03 0. -1.
    9900012    2    1    2    0    0  0.30642519253E+01 -0.66664931229E+00  0.18461976379E+02  0.72461584620E+02  0.70000018662E+02 0.  0.
         12    1    1    2    0    0 -0.30642519253E+01  0.66664931229E+00 -0.18461976379E+02  0.18726415380E+02  0.00000000000E+00 0. -1.
         11    1    3    3    0    0  0.18235905753E+02 -0.13994897406E+02 -0.56265045466E+01  0.23665649488E+02  0.51100000000E-03 0. -1.
        -11    1    3    3    0    0 -0.16797004450E+02 -0.96214942795E+01  0.96047802859E+01  0.21609357123E+02  0.51100000000E-03 0.  1.
        -12    1    3    3    0    0  0.16253506225E+01  0.22949742373E+02  0.14483700639E+02  0.27186578009E+02  0.00000000000E+00 0.  1.
</event>
<event>
 7    1  0.2886818E-013  0.7246156E+02  0.7816164E-02  0.1226708E+00
        -11   -1    0    0    0    0  0.00000000000E+00  0.00000000000E+00  0.45593999997E+02  0.45594000000E+02  0.51100000000E-03 0.  1.
         11   -1    0    0    0    0 -0.00000000000E+00 -0.00000000000E+00 -0.45593999997E+02  0.45594000000E+02  0.51100000000E-03 0. -1.
    9900012    2    1    2    0    0  0.17010253039E+02  0.15962849414E+00  0.78297647530E+01  0.72461563986E+02  0.69999991782E+02 0.  0.
         12    1    1    2    0    0 -0.17010253039E+02 -0.15962849414E+00 -0.78297647530E+01  0.18726436014E+02  0.00000000000E+00 0. -1.
         11    1    3    3    0    0 -0.57721247101E+01  0.11111355096E+02  0.16080601079E+01  0.12624004646E+02  0.51100000000E-03 0. -1.
        -11    1    3    3    0    0  0.52032697838E+01 -0.85774983144E+01  0.29161732135E+02  0.30839165280E+02  0.51100000000E-03 0.  1.
        -12    1    3    3    0    0  0.17579107965E+02 -0.23742282871E+01 -0.22940027490E+02  0.28998394060E+02  0.00000000000E+00 0.  1.
</event>
<event>
 7    1  0.2886818E-013  0.7246157E+02  0.7816164E-02  0.1226708E+00
        -11   -1    0    0    0    0  0.00000000000E+00  0.00000000000E+00  0.45593999997E+02  0.45594000000E+02  0.51100000000E-03 0.  1.
         11   -1    0    0    0    0 -0.00000000000E+00 -0.00000000000E+00 -0.45593999997E+02  0.45594000000E+02  0.51100000000E-03 0. -1.
    9900012    2    1    2    0    0  0.13490254503E+02 -0.11793297712E+02  0.54415282771E+01  0.72461573019E+02  0.70000003550E+02 0.  0.
         12    1    1    2    0    0 -0.13490254503E+02  0.11793297712E+02 -0.54415282771E+01  0.18726426981E+02  0.00000000000E+00 0. -1.
         11    1    3    3    0    0  0.15344710601E+02  0.14510141403E+02  0.12966636872E+02  0.24781808226E+02  0.51100000000E-03 0. -1.
        -11    1    3    3    0    0 -0.14177489299E+02  0.19730404048E+01  0.38189859175E+01  0.14814815050E+02  0.51100000000E-03 0.  1.
        -12    1    3    3    0    0  0.12323033202E+02 -0.28276479519E+02 -0.11344094512E+02  0.32864949743E+02  0.00000000000E+00 0.  1.
</event>
<event>
 7    1  0.2886818E-013  0.7246157E+02  0.7816164E-02  0.1226708E+00
        -11   -1    0    0    0    0  0.00000000000E+00  0.00000000000E+00  0.45593999997E+02  0.45594000000E+02  0.51100000000E-03 0. -1.
         11   -1    0    0    0    0 -0.00000000000E+00 -0.00000000000E+00 -0.45593999997E+02  0.45594000000E+02  0.51100000000E-03 0.  1.
    9900012    2    1    2    0    0  0.18745916294E+01 -0.17116672740E+02 -0.73610185607E+01  0.72461570183E+02  0.69999999854E+02 0.  0.
         12    1    1    2    0    0 -0.18745916294E+01  0.17116672740E+02  0.73610185607E+01  0.18726429817E+02  0.00000000000E+00 0. -1.
         11    1    3    3    0    0 -0.25947219471E+02 -0.22622429207E+02  0.16792660636E+01  0.34465235184E+02  0.51100000000E-03 0. -1.
        -11    1    3    3    0    0 -0.26153751986E+01  0.59120921384E+01 -0.16634286679E+01  0.66753289115E+01  0.51100000000E-03 0.  1.
        -12    1    3    3    0    0  0.30437186299E+02 -0.40633567097E+00 -0.73768559564E+01  0.31321006087E+02  0.00000000000E+00 0.  1.
</event>
<event>
 7    1  0.2886818E-013  0.7246152E+02  0.7816164E-02  0.1226708E+00
        -11   -1    0    0    0    0  0.00000000000E+00  0.00000000000E+00  0.45593999997E+02  0.45594000000E+02  0.51100000000E-03 0.  1.
         11   -1    0    0    0    0 -0.00000000000E+00 -0.00000000000E+00 -0.45593999997E+02  0.45594000000E+02  0.51100000000E-03 0. -1.
    9900012    2    1    2    0    0  0.14822168010E+02  0.98366149070E+01  0.58502511914E+01  0.72461518847E+02  0.69999932981E+02 0.  0.
         12    1    1    2    0    0 -0.14822168010E+02 -0.98366149070E+01 -0.58502511914E+01  0.18726481153E+02  0.00000000000E+00 0. -1.
         11    1    3    3    0    0  0.80950664549E+01 -0.17963258304E+02 -0.56188786419E-01  0.19703093850E+02  0.51100000000E-03 0.  1.
        -11    1    3    3    0    0  0.18188443557E+02  0.34583201335E+02  0.52304634560E+01  0.39423026797E+02  0.51100000000E-03 0. -1.
         12    1    3    3    0    0 -0.11461342001E+02 -0.67833281236E+01  0.67597652182E+00  0.13335398200E+02  0.00000000000E+00 0. -1.
</event>
<event>
 7    1  0.2886818E-013  0.7246140E+02  0.7816164E-02  0.1226708E+00
        -11   -1    0    0    0    0  0.00000000000E+00  0.00000000000E+00  0.45593999997E+02  0.45594000000E+02  0.51100000000E-03 0. -1.
         11   -1    0    0    0    0 -0.00000000000E+00 -0.00000000000E+00 -0.45593999997E+02  0.45594000000E+02  0.51100000000E-03 0.  1.
    9900012    2    1    2    0    0 -0.11386062435E+02 -0.21036040282E+01 -0.14717948664E+02  0.72461399119E+02  0.69999777012E+02 0.  0.
         12    1    1    2    0    0  0.11386062435E+02  0.21036040282E+01  0.14717948664E+02  0.18726600881E+02  0.00000000000E+00 0. -1.
         11    1    3    3    0    0 -0.13624180191E+02  0.44994836232E+01  0.35313701070E+00  0.14352294059E+02  0.51100000000E-03 0. -1.
        -11    1    3    3    0    0 -0.10686198557E+02  0.10620400991E+02  0.14909830272E+02  0.21196480741E+02  0.51100000000E-03 0.  1.
         12    1    3    3    0    0  0.12924316313E+02 -0.17223488642E+02 -0.29980915946E+02  0.36912624319E+02  0.00000000000E+00 0. -1.
</event>
<event>
 7    1  0.2886818E-013  0.7246172E+02  0.7816164E-02  0.1226708E+00
        -11   -1    0    0    0    0  0.00000000000E+00  0.00000000000E+00  0.45593999997E+02  0.45594000000E+02  0.51100000000E-03 0.  1.
         11   -1    0    0    0    0 -0.00000000000E+00 -0.00000000000E+00 -0.45593999997E+02  0.45594000000E+02  0.51100000000E-03 0. -1.
    9900012    2    1    2    0    0 -0.63546545262E+01  0.17596178501E+02 -0.81644407038E+00  0.72461715988E+02  0.70000189792E+02 0.  0.
         12    1    1    2    0    0  0.63546545262E+01 -0.17596178501E+02  0.81644407038E+00  0.18726284012E+02  0.00000000000E+00 0. -1.
         11    1    3    3    0    0 -0.50466776682E+01 -0.13526546389E+01 -0.29104236952E+01  0.59807354402E+01  0.51100000000E-03 0. -1.
        -11    1    3    3    0    0 -0.24795863385E+02 -0.38442654477E+01  0.17212748767E+02  0.30428472492E+02  0.51100000000E-03 0.  1.
         12    1    3    3    0    0  0.23487886527E+02  0.22793098588E+02 -0.15118769142E+02  0.36052508055E+02  0.00000000000E+00 0. -1.
</event>
<event>
 7    1  0.2886818E-013  0.7246153E+02  0.7816164E-02  0.1226708E+00
        -11   -1    0    0    0    0  0.00000000000E+00  0.00000000000E+00  0.45593999997E+02  0.45594000000E+02  0.51100000000E-03 0. -1.
         11   -1    0    0    0    0 -0.00000000000E+00 -0.00000000000E+00 -0.45593999997E+02  0.45594000000E+02  0.51100000000E-03 0.  1.
    9900012    2    1    2    0    0  0.15322001424E+02 -0.22920293079E+01 -0.10519680292E+02  0.72461526775E+02  0.69999943308E+02 0.  0.
         12    1    1    2    0    0 -0.15322001424E+02  0.22920293079E+01  0.10519680292E+02  0.18726473225E+02  0.00000000000E+00 0. -1.
         11    1    3    3    0    0 -0.25222285109E+01  0.63947146631E+01  0.15982331334E+02  0.17397957564E+02  0.51100000000E-03 0. -1.
        -11    1    3    3    0    0  0.10325260808E+02 -0.33533534856E+01  0.11585103007E+02  0.15876731474E+02  0.51100000000E-03 0.  1.
         12    1    3    3    0    0  0.75189691270E+01 -0.53333904854E+01 -0.38087114633E+02  0.39186837737E+02  0.00000000000E+00 0. -1.
</event>
<event>
 7    1  0.2886818E-013  0.7246158E+02  0.7816164E-02  0.1226708E+00
        -11   -1    0    0    0    0  0.00000000000E+00  0.00000000000E+00  0.45593999997E+02  0.45594000000E+02  0.51100000000E-03 0.  1.
         11   -1    0    0    0    0 -0.00000000000E+00 -0.00000000000E+00 -0.45593999997E+02  0.45594000000E+02  0.51100000000E-03 0. -1.
    9900012    2    1    2    0    0  0.13266121516E+02 -0.12824723861E+02  0.31961505497E+01  0.72461577477E+02  0.70000009356E+02 0.  0.
         12    1    1    2    0    0 -0.13266121516E+02  0.12824723861E+02 -0.31961505497E+01  0.18726422523E+02  0.00000000000E+00 0. -1.
         11    1    3    3    0    0  0.17798029476E+02 -0.18595541252E+02 -0.14995315039E+02  0.29789653927E+02  0.51100000000E-03 0. -1.
        -11    1    3    3    0    0  0.12191690108E+02 -0.88267493271E+01  0.19736724726E+01  0.15180388489E+02  0.51100000000E-03 0.  1.
        -12    1    3    3    0    0 -0.16723598068E+02  0.14597566718E+02  0.16217793116E+02  0.27491535061E+02  0.00000000000E+00 0.  1.
</event>
<event>
 7    1  0.2886818E-013  0.7246148E+02  0.7816164E-02  0.1226708E+00
        -11   -1    0    0    0    0  0.00000000000E+00  0.00000000000E+00  0.45593999997E+02  0.45594000000E+02  0.51100000000E-03 0. -1.
         11   -1    0    0    0    0 -0.00000000000E+00 -0.00000000000E+00 -0.45593999997E+02  0.45594000000E+02  0.51100000000E-03 0.  1.
    9900012    2    1    2    0    0 -0.14141605366E+02  0.23095069187E+01 -0.12056687141E+02  0.72461480586E+02  0.69999883139E+02 0.  0.
         12    1    1    2    0    0  0.14141605366E+02 -0.23095069187E+01  0.12056687141E+02  0.18726519414E+02  0.00000000000E+00 0. -1.
         11    1    3    3    0    0 -0.18511372350E+02 -0.15595916944E+01  0.67295988049E+01  0.19758307946E+02  0.51100000000E-03 0. -1.
        -11    1    3    3    0    0 -0.14361818666E+02  0.13416245252E+02 -0.24021478514E+02  0.31036895823E+02  0.51100000000E-03 0.  1.
        -12    1    3    3    0    0  0.18731585650E+02 -0.95471466389E+01  0.52351925681E+01  0.21666276818E+02  0.00000000000E+00 0.  1.
</event>
<event>
 7    1  0.2886818E-013  0.7246152E+02  0.7816164E-02  0.1226708E+00
        -11   -1    0    0    0    0  0.00000000000E+00  0.00000000000E+00  0.45593999997E+02  0.45594000000E+02  0.51100000000E-03 0.  1.
         11   -1    0    0    0    0 -0.00000000000E+00 -0.00000000000E+00 -0.45593999997E+02  0.45594000000E+02  0.51100000000E-03 0. -1.
    9900012    2    1    2    0    0 -0.92281943331E+01 -0.13386289227E+02  0.92913316178E+01  0.72461517331E+02  0.69999931005E+02 0.  0.
         12    1    1    2    0    0  0.92281943331E+01  0.13386289227E+02 -0.92913316178E+01  0.18726482669E+02  0.00000000000E+00 0. -1.
         11    1    3    3    0    0 -0.62785558466E+01  0.30952112567E+01 -0.18019264719E+02  0.19331179413E+02  0.51100000000E-03 0. -1.
        -11    1    3    3    0    0 -0.14463112809E+02  0.55784377190E+01  0.23210489516E+02  0.27911062741E+02  0.51100000000E-03 0.  1.
        -12    1    3    3    0    0  0.11513474322E+02 -0.22059938203E+02  0.41001068206E+01  0.25219275177E+02  0.00000000000E+00 0.  1.
</event>
<event>
 7    1  0.2886818E-013  0.7246153E+02  0.7816164E-02  0.1226708E+00
        -11   -1    0    0    0    0  0.00000000000E+00  0.00000000000E+00  0.45593999997E+02  0.45594000000E+02  0.51100000000E-03 0.  1.
         11   -1    0    0    0    0 -0.00000000000E+00 -0.00000000000E+00 -0.45593999997E+02  0.45594000000E+02  0.51100000000E-03 0. -1.
    9900012    2    1    2    0    0  0.87870021207E+01 -0.16511712333E+02  0.91248263531E+00  0.72461530098E+02  0.69999947637E+02 0.  0.
         12    1    1    2    0    0 -0.87870021207E+01  0.16511712333E+02 -0.91248263531E+00  0.18726469902E+02  0.00000000000E+00 0. -1.
         11    1    3    3    0    0  0.88375353219E+01 -0.45784416914E+00  0.10067782319E+02  0.13404174459E+02  0.51100000000E-03 0. -1.
        -11    1    3    3    0    0 -0.12815128085E+02  0.93945868698E+01  0.14901685847E+02  0.21784077020E+02  0.51100000000E-03 0.  1.
        -12    1    3    3    0    0  0.12764594883E+02 -0.25448455033E+02 -0.24056985531E+02  0.37273278618E+02  0.00000000000E+00 0.  1.
</event>
<event>
 7    1  0.2886818E-013  0.7246159E+02  0.7816164E-02  0.1226708E+00
        -11   -1    0    0    0    0  0.00000000000E+00  0.00000000000E+00  0.45593999997E+02  0.45594000000E+02  0.51100000000E-03 0. -1.
         11   -1    0    0    0    0 -0.00000000000E+00 -0.00000000000E+00 -0.45593999997E+02  0.45594000000E+02  0.51100000000E-03 0.  1.
    9900012    2    1    2    0    0  0.97180096050E+01  0.45965472884E+01 -0.15333307148E+02  0.72461594425E+02  0.70000031435E+02 0.  0.
         12    1    1    2    0    0 -0.97180096050E+01 -0.45965472884E+01  0.15333307148E+02  0.18726405575E+02  0.00000000000E+00 0. -1.
         11    1    3    3    0    0 -0.19848612799E+02  0.39740098977E+00 -0.18730834975E+02  0.27294130078E+02  0.51100000000E-03 0. -1.
        -11    1    3    3    0    0  0.12171925505E+02  0.68411544489E+01 -0.14458362135E+02  0.20099786083E+02  0.51100000000E-03 0.  1.
         12    1    3    3    0    0  0.17394696899E+02 -0.26420081503E+01  0.17855889961E+02  0.25067678265E+02  0.00000000000E+00 0. -1.
</event>
<event>
 7    1  0.2886818E-013  0.7246157E+02  0.7816164E-02  0.1226708E+00
        -11   -1    0    0    0    0  0.00000000000E+00  0.00000000000E+00  0.45593999997E+02  0.45594000000E+02  0.51100000000E-03 0.  1.
         11   -1    0    0    0    0 -0.00000000000E+00 -0.00000000000E+00 -0.45593999997E+02  0.45594000000E+02  0.51100000000E-03 0. -1.
    9900012    2    1    2    0    0 -0.14724571035E+01  0.16929807359E+02  0.78671789514E+01  0.72461574506E+02  0.70000005486E+02 0.  0.
         12    1    1    2    0    0  0.14724571035E+01 -0.16929807359E+02 -0.78671789514E+01  0.18726425494E+02  0.00000000000E+00 0. -1.
         11    1    3    3    0    0 -0.21786247453E+01 -0.60340370310E+01 -0.15940290060E+02  0.17182806992E+02  0.51100000000E-03 0. -1.
        -11    1    3    3    0    0 -0.13118664329E+02 -0.45705322816E+01 -0.32579380786E+01  0.14268962117E+02  0.51100000000E-03 0.  1.
        -12    1    3    3    0    0  0.13824831971E+02  0.27534376671E+02  0.27065407090E+02  0.41009805396E+02  0.00000000000E+00 0.  1.
</event>
<event>
 7    1  0.2886818E-013  0.7246158E+02  0.7816164E-02  0.1226708E+00
        -11   -1    0    0    0    0  0.00000000000E+00  0.00000000000E+00  0.45593999997E+02  0.45594000000E+02  0.51100000000E-03 0. -1.
         11   -1    0    0    0    0 -0.00000000000E+00 -0.00000000000E+00 -0.45593999997E+02  0.45594000000E+02  0.51100000000E-03 0.  1.
    9900012    2    1    2    0    0  0.36073648483E+01  0.20166409777E+00 -0.18374577396E+02  0.72461578985E+02  0.70000011321E+02 0.  0.
         12    1    1    2    0    0 -0.36073648483E+01 -0.20166409777E+00  0.18374577396E+02  0.18726421015E+02  0.00000000000E+00 0. -1.
         11    1    3    3    0    0  0.20741652100E+02  0.57217211762E+01 -0.65716381787E+01  0.22497569950E+02  0.51100000000E-03 0. -1.
        -11    1    3    3    0    0  0.69414807388E+01 -0.20668303147E+01 -0.22319793730E+02  0.23465488165E+02  0.51100000000E-03 0.  1.
        -12    1    3    3    0    0 -0.24075767991E+02 -0.34532267637E+01  0.10516854513E+02  0.26498520869E+02  0.00000000000E+00 0.  1.
</event>
<event>
 7    1  0.2886818E-013  0.7246134E+02  0.7816164E-02  0.1226709E+00
        -11   -1    0    0    0    0  0.00000000000E+00  0.00000000000E+00  0.45593999997E+02  0.45594000000E+02  0.51100000000E-03 0.  1.
         11   -1    0    0    0    0 -0.00000000000E+00 -0.00000000000E+00 -0.45593999997E+02  0.45594000000E+02  0.51100000000E-03 0. -1.
    9900012    2    1    2    0    0 -0.32473524103E+01 -0.17658046214E+02  0.53231627318E+01  0.72461335715E+02  0.69999694417E+02 0.  0.
         12    1    1    2    0    0  0.32473524103E+01  0.17658046214E+02 -0.53231627318E+01  0.18726664285E+02  0.00000000000E+00 0. -1.
         11    1    3    3    0    0 -0.17728475888E+02  0.82140058713E+01  0.45528833511E+01  0.20062340264E+02  0.51100000000E-03 0. -1.
        -11    1    3    3    0    0 -0.15521462115E+01  0.11549926182E+02 -0.53512577301E+00  0.11666032424E+02  0.51100000000E-03 0.  1.
         12    1    3    3    0    0  0.16033269690E+02 -0.37421978267E+02  0.13054051537E+01  0.40732963027E+02  0.00000000000E+00 0. -1.
</event>
<event>
 7    1  0.2886818E-013  0.7246140E+02  0.7816164E-02  0.1226708E+00
        -11   -1    0    0    0    0  0.00000000000E+00  0.00000000000E+00  0.45593999997E+02  0.45594000000E+02  0.51100000000E-03 0. -1.
         11   -1    0    0    0    0 -0.00000000000E+00 -0.00000000000E+00 -0.45593999997E+02  0.45594000000E+02  0.51100000000E-03 0.  1.
    9900012    2    1    2    0    0  0.18223311450E+02 -0.42946838853E+01  0.39023305593E+00  0.72461396685E+02  0.69999773841E+02 0.  0.
         12    1    1    2    0    0 -0.18223311450E+02  0.42946838853E+01 -0.39023305593E+00  0.18726603315E+02  0.00000000000E+00 0. -1.
         11    1    3    3    0    0 -0.72306372758E-01  0.53225635602E+01  0.37813401692E+01  0.65294291328E+01  0.51100000000E-03 0. -1.
        -11    1    3    3    0    0 -0.68988468292E+01 -0.38671030873E+01  0.25776836583E+02  0.26962824006E+02  0.51100000000E-03 0.  1.
        -12    1    3    3    0    0  0.25194464652E+02 -0.57501443583E+01 -0.29167943697E+02  0.38969143546E+02  0.00000000000E+00 0.  1.
</event>
<event>
 7    1  0.2886818E-013  0.7246152E+02  0.7816164E-02  0.1226708E+00
        -11   -1    0    0    0    0  0.00000000000E+00  0.00000000000E+00  0.45593999997E+02  0.45594000000E+02  0.51100000000E-03 0. -1.
         11   -1    0    0    0    0 -0.00000000000E+00 -0.00000000000E+00 -0.45593999997E+02  0.45594000000E+02  0.51100000000E-03 0.  1.
    9900012    2    1    2    0    0 -0.30303248044E+01  0.14241829853E+02 -0.11775758453E+02  0.72461519468E+02  0.69999933789E+02 0.  0.
         12    1    1    2    0    0  0.30303248044E+01 -0.14241829853E+02  0.11775758453E+02  0.18726480532E+02  0.00000000000E+00 0. -1.
         11    1    3    3    0    0 -0.15918787800E+02 -0.17447567913E+01 -0.28474568360E+02  0.32668838743E+02  0.51100000000E-03 0.  1.
        -11    1    3    3    0    0  0.27299422906E+01  0.40941247643E+01 -0.86821034328E+01  0.99796474273E+01  0.51100000000E-03 0. -1.
         12    1    3    3    0    0  0.10158520705E+02  0.11892461880E+02  0.25380913339E+02  0.29813033298E+02  0.00000000000E+00 0. -1.
</event>
<event>
 7    1  0.2886818E-013  0.7246159E+02  0.7816164E-02  0.1226708E+00
        -11   -1    0    0    0    0  0.00000000000E+00  0.00000000000E+00  0.45593999997E+02  0.45594000000E+02  0.51100000000E-03 0.  1.
         11   -1    0    0    0    0 -0.00000000000E+00 -0.00000000000E+00 -0.45593999997E+02  0.45594000000E+02  0.51100000000E-03 0. -1.
    9900012    2    1    2    0    0  0.18361891014E+02  0.34699676365E+01 -0.12159941673E+01  0.72461591940E+02  0.70000028198E+02 0.  0.
         12    1    1    2    0    0 -0.18361891014E+02 -0.34699676365E+01  0.12159941673E+01  0.18726408060E+02  0.00000000000E+00 0. -1.
         11    1    3    3    0    0 -0.20458538521E+02  0.13217452943E+02 -0.47084732036E+01  0.24807712125E+02  0.51100000000E-03 0. -1.
        -11    1    3    3    0    0  0.51792681950E+01 -0.10925596664E+02  0.67281185561E+01  0.13836945511E+02  0.51100000000E-03 0.  1.
         12    1    3    3    0    0  0.33641161340E+02  0.11781113578E+01 -0.32356395199E+01  0.33816934305E+02  0.00000000000E+00 0. -1.
</event>
<event>
 7    1  0.2886818E-013  0.7246161E+02  0.7816164E-02  0.1226708E+00
        -11   -1    0    0    0    0  0.00000000000E+00  0.00000000000E+00  0.45593999997E+02  0.45594000000E+02  0.51100000000E-03 0.  1.
         11   -1    0    0    0    0 -0.00000000000E+00 -0.00000000000E+00 -0.45593999997E+02  0.45594000000E+02  0.51100000000E-03 0. -1.
    9900012    2    1    2    0    0  0.91694976927E+01 -0.16297351031E+02  0.99721074438E+00  0.72461607720E+02  0.70000048754E+02 0.  0.
         12    1    1    2    0    0 -0.91694976927E+01  0.16297351031E+02 -0.99721074438E+00  0.18726392280E+02  0.00000000000E+00 0. -1.
         11    1    3    3    0    0 -0.48634925945E+01  0.12712243532E+02  0.10513508409E+02  0.17198504445E+02  0.51100000000E-03 0. -1.
        -11    1    3    3    0    0  0.74529435746E+01 -0.14857157841E+02  0.17454067214E+02  0.24102405888E+02  0.51100000000E-03 0.  1.
         12    1    3    3    0    0  0.65800467126E+01 -0.14152436722E+02 -0.26970364879E+02  0.31160697386E+02  0.00000000000E+00 0. -1.
</event>
<event>
 7    1  0.2886818E-013  0.7246162E+02  0.7816164E-02  0.1226708E+00
        -11   -1    0    0    0    0  0.00000000000E+00  0.00000000000E+00  0.45593999997E+02  0.45594000000E+02  0.51100000000E-03 0.  1.
         11   -1    0    0    0    0 -0.00000000000E+00 -0.00000000000E+00 -0.45593999997E+02  0.45594000000E+02  0.51100000000E-03 0. -1.
    9900012    2    1    2    0    0 -0.10793570540E+02  0.13542554437E+02  0.71256755315E+01  0.72461622949E+02  0.70000068593E+02 0.  0.
         12    1    1    2    0    0  0.10793570540E+02 -0.13542554437E+02 -0.71256755315E+01  0.18726377051E+02  0.00000000000E+00 0. -1.
         11    1    3    3    0    0 -0.20636625109E+02 -0.82165660591E+00  0.20727056221E+02  0.29260148245E+02  0.51100000000E-03 0. -1.
        -11    1    3    3    0    0 -0.14902494599E+01 -0.41046779074E+01  0.10150722097E+02  0.11050175724E+02  0.51100000000E-03 0.  1.
         12    1    3    3    0    0  0.11333304030E+02  0.18468888950E+02 -0.23752102787E+02  0.32151298980E+02  0.00000000000E+00 0. -1.
</event>
<event>
 7    1  0.2886818E-013  0.7246157E+02  0.7816164E-02  0.1226708E+00
        -11   -1    0    0    0    0  0.00000000000E+00  0.00000000000E+00  0.45593999997E+02  0.45594000000E+02  0.51100000000E-03 0.  1.
         11   -1    0    0    0    0 -0.00000000000E+00 -0.00000000000E+00 -0.45593999997E+02  0.45594000000E+02  0.51100000000E-03 0. -1.
    9900012    2    1    2    0    0 -0.56839775648E+01  0.16040275506E+02  0.78154317801E+01  0.72461574469E+02  0.70000005438E+02 0.  0.
         12    1    1    2    0    0  0.56839775648E+01 -0.16040275506E+02 -0.78154317801E+01  0.18726425531E+02  0.00000000000E+00 0. -1.
         11    1    3    3    0    0  0.74762894531E+01  0.16183396652E+02  0.12436166176E+02  0.21736040591E+02  0.51100000000E-03 0.  1.
        -11    1    3    3    0    0 -0.21986618005E+02 -0.13358063637E+02  0.11418734302E+02  0.28146700140E+02  0.51100000000E-03 0. -1.
         12    1    3    3    0    0  0.88263509870E+01  0.13214942492E+02 -0.16039468698E+02  0.22578833737E+02  0.00000000000E+00 0. -1.
</event>
<event>
 7    1  0.2886818E-013  0.7246154E+02  0.7816164E-02  0.1226708E+00
        -11   -1    0    0    0    0  0.00000000000E+00  0.00000000000E+00  0.45593999997E+02  0.45594000000E+02  0.51100000000E-03 0.  1.
         11   -1    0    0    0    0 -0.00000000000E+00 -0.00000000000E+00 -0.45593999997E+02  0.45594000000E+02  0.51100000000E-03 0. -1.
    9900012    2    1    2    0    0 -0.99940008470E+01  0.50390439924E+01  0.15013601001E+02  0.72461541917E+02  0.69999963034E+02 0.  0.
         12    1    1    2    0    0  0.99940008470E+01 -0.50390439924E+01 -0.15013601001E+02  0.18726458083E+02  0.00000000000E+00 0. -1.
         11    1    3    3    0    0  0.21579917538E+01  0.10184025084E+02 -0.24705153750E+01  0.10699286976E+02  0.51100000000E-03 0. -1.
        -11    1    3    3    0    0 -0.16974807029E+02  0.16582524062E+02  0.28370083949E+02  0.36986292615E+02  0.51100000000E-03 0.  1.
         12    1    3    3    0    0  0.48228144278E+01 -0.21727505153E+02 -0.10885967572E+02  0.24775962326E+02  0.00000000000E+00 0. -1.
</event>
<event>
 7    1  0.2886818E-013  0.7246160E+02  0.7816164E-02  0.1226708E+00
        -11   -1    0    0    0    0  0.00000000000E+00  0.00000000000E+00  0.45593999997E+02  0.45594000000E+02  0.51100000000E-03 0.  1.
         11   -1    0    0    0    0 -0.00000000000E+00 -0.00000000000E+00 -0.45593999997E+02  0.45594000000E+02  0.51100000000E-03 0. -1.
    9900012    2    1    2    0    0 -0.13957675611E+02 -0.11154739739E+02  0.56065316748E+01  0.72461598196E+02  0.70000036347E+02 0.  0.
         12    1    1    2    0    0  0.13957675611E+02  0.11154739739E+02 -0.56065316748E+01  0.18726401804E+02  0.00000000000E+00 0. -1.
         11    1    3    3    0    0 -0.13636513310E+01  0.14545292829E+01 -0.36325656649E+01  0.41437584338E+01  0.51100000000E-03 0. -1.
        -11    1    3    3    0    0 -0.79606222874E+01 -0.29812579117E+02  0.28553400111E+02  0.42041146975E+02  0.51100000000E-03 0.  1.
         12    1    3    3    0    0 -0.46334019931E+01  0.17203310095E+02 -0.19314302771E+02  0.26276692787E+02  0.00000000000E+00 0. -1.
</event>
<event>
 7    1  0.2886818E-013  0.7246187E+02  0.7816164E-02  0.1226707E+00
        -11   -1    0    0    0    0  0.00000000000E+00  0.00000000000E+00  0.45593999997E+02  0.45594000000E+02  0.51100000000E-03 0.  1.
         11   -1    0    0    0    0 -0.00000000000E+00 -0.00000000000E+00 -0.45593999997E+02  0.45594000000E+02  0.51100000000E-03 0. -1.
    9900012    2    1    2    0    0  0.10575898449E+02 -0.11885519617E+01  0.15407972235E+02  0.72461871405E+02  0.70000392251E+02 0.  0.
         12    1    1    2    0    0 -0.10575898449E+02  0.11885519617E+01 -0.15407972235E+02  0.18726128595E+02  0.00000000000E+00 0. -1.
         11    1    3    3    0    0  0.13135558548E+02 -0.11001579783E+02 -0.51467118113E+01  0.17890396832E+02  0.51100000000E-03 0. -1.
        -11    1    3    3    0    0  0.22164037441E+02  0.12222638037E+02  0.13801076021E+02  0.28828928801E+02  0.51100000000E-03 0.  1.
        -12    1    3    3    0    0 -0.24723697539E+02 -0.24096102149E+01  0.67536080259E+01  0.25742545771E+02  0.00000000000E+00 0.  1.
</event>
<event>
 7    1  0.2886818E-013  0.7246156E+02  0.7816164E-02  0.1226708E+00
        -11   -1    0    0    0    0  0.00000000000E+00  0.00000000000E+00  0.45593999997E+02  0.45594000000E+02  0.51100000000E-03 0.  1.
         11   -1    0    0    0    0 -0.00000000000E+00 -0.00000000000E+00 -0.45593999997E+02  0.45594000000E+02  0.51100000000E-03 0. -1.
    9900012    2    1    2    0    0 -0.52955618501E-01 -0.12820189322E+02  0.13649886552E+02  0.72461562500E+02  0.69999989847E+02 0.  0.
         12    1    1    2    0    0  0.52955618501E-01  0.12820189322E+02 -0.13649886552E+02  0.18726437500E+02  0.00000000000E+00 0. -1.
         11    1    3    3    0    0 -0.64488907870E-01  0.11525173182E+02  0.60549798568E+00  0.11541247930E+02  0.51100000000E-03 0. -1.
        -11    1    3    3    0    0 -0.18365364140E+02  0.16754223672E+01  0.21138532624E+02  0.28052294057E+02  0.51100000000E-03 0.  1.
         12    1    3    3    0    0  0.18376897429E+02 -0.26020784872E+02 -0.80941440576E+01  0.32868020514E+02  0.00000000000E+00 0. -1.
</event>
<event>
 7    1  0.2886818E-013  0.7246155E+02  0.7816164E-02  0.1226708E+00
        -11   -1    0    0    0    0  0.00000000000E+00  0.00000000000E+00  0.45593999997E+02  0.45594000000E+02  0.51100000000E-03 0. -1.
         11   -1    0    0    0    0 -0.00000000000E+00 -0.00000000000E+00 -0.45593999997E+02  0.45594000000E+02  0.51100000000E-03 0.  1.
    9900012    2    1    2    0    0 -0.12285024927E+02 -0.94654700260E-01 -0.14133266648E+02  0.72461547503E+02  0.69999970310E+02 0.  0.
         12    1    1    2    0    0  0.12285024927E+02  0.94654700260E-01  0.14133266648E+02  0.18726452497E+02  0.00000000000E+00 0. -1.
         11    1    3    3    0    0 -0.28583134648E+02 -0.18743979907E+02  0.36560554022E+01  0.34375850686E+02  0.51100000000E-03 0. -1.
        -11    1    3    3    0    0 -0.33723994509E+01  0.21523557765E+01  0.30411249337E+01  0.50253511886E+01  0.51100000000E-03 0.  1.
        -12    1    3    3    0    0  0.19670509172E+02  0.16496969431E+02 -0.20830446984E+02  0.33060345628E+02  0.00000000000E+00 0.  1.
</event>
<event>
 7    1  0.2886818E-013  0.7246132E+02  0.7816164E-02  0.1226709E+00
        -11   -1    0    0    0    0  0.00000000000E+00  0.00000000000E+00  0.45593999997E+02  0.45594000000E+02  0.51100000000E-03 0.  1.
         11   -1    0    0    0    0 -0.00000000000E+00 -0.00000000000E+00 -0.45593999997E+02  0.45594000000E+02  0.51100000000E-03 0. -1.
    9900012    2    1    2    0    0 -0.16960924576E+01 -0.30836869095E+01  0.18393005857E+02  0.72461320661E+02  0.69999674806E+02 0.  0.
         12    1    1    2    0    0  0.16960924576E+01  0.30836869095E+01 -0.18393005857E+02  0.18726679339E+02  0.00000000000E+00 0. -1.
         11    1    3    3    0    0 -0.15675598697E+01 -0.86046524779E+01  0.13697145771E+01  0.88528756059E+01  0.51100000000E-03 0. -1.
        -11    1    3    3    0    0  0.19130306295E+01 -0.78053041936E+01  0.37907894034E+02  0.38750366322E+02  0.51100000000E-03 0.  1.
        -12    1    3    3    0    0 -0.20415632174E+01  0.13326269762E+02 -0.20884602754E+02  0.24858078733E+02  0.00000000000E+00 0.  1.
</event>
<event>
 7    1  0.2886818E-013  0.7246143E+02  0.7816164E-02  0.1226708E+00
        -11   -1    0    0    0    0  0.00000000000E+00  0.00000000000E+00  0.45593999997E+02  0.45594000000E+02  0.51100000000E-03 0.  1.
         11   -1    0    0    0    0 -0.00000000000E+00 -0.00000000000E+00 -0.45593999997E+02  0.45594000000E+02  0.51100000000E-03 0. -1.
    9900012    2    1    2    0    0  0.55695650258E+00  0.16486074809E+02 -0.88647372992E+01  0.72461429825E+02  0.69999817012E+02 0.  0.
         12    1    1    2    0    0 -0.55695650258E+00 -0.16486074809E+02  0.88647372992E+01  0.18726570175E+02  0.00000000000E+00 0. -1.
         11    1    3    3    0    0  0.11127066696E+02  0.78710562588E+01 -0.14976825661E+02  0.20250196222E+02  0.51100000000E-03 0. -1.
        -11    1    3    3    0    0  0.10289413656E+02  0.23010782198E+02  0.88591398409E+01  0.26718018073E+02  0.51100000000E-03 0.  1.
        -12    1    3    3    0    0 -0.20859523849E+02 -0.14395763648E+02 -0.27470514793E+01  0.25493215530E+02  0.00000000000E+00 0.  1.
</event>
<event>
 7    1  0.2886818E-013  0.7246143E+02  0.7816164E-02  0.1226708E+00
        -11   -1    0    0    0    0  0.00000000000E+00  0.00000000000E+00  0.45593999997E+02  0.45594000000E+02  0.51100000000E-03 0.  1.
         11   -1    0    0    0    0 -0.00000000000E+00 -0.00000000000E+00 -0.45593999997E+02  0.45594000000E+02  0.51100000000E-03 0. -1.
    9900012    2    1    2    0    0 -0.95766886826E+01 -0.59823018823E+01  0.14939327177E+02  0.72461430682E+02  0.69999818128E+02 0.  0.
         12    1    1    2    0    0  0.95766886826E+01  0.59823018823E+01 -0.14939327177E+02  0.18726569318E+02  0.00000000000E+00 0. -1.
         11    1    3    3    0    0  0.33270916772E+01  0.17548895124E+02 -0.27264452285E+01  0.18068391266E+02  0.51100000000E-03 0. -1.
        -11    1    3    3    0    0  0.10521069497E+02 -0.25552846305E+02  0.12452111386E+02  0.30309997292E+02  0.51100000000E-03 0.  1.
        -12    1    3    3    0    0 -0.23424849857E+02  0.20216492987E+01  0.52136610196E+01  0.24083042124E+02  0.00000000000E+00 0.  1.
</event>
<event>
 7    1  0.2886818E-013  0.7246104E+02  0.7816164E-02  0.1226709E+00
        -11   -1    0    0    0    0  0.00000000000E+00  0.00000000000E+00  0.45593999997E+02  0.45594000000E+02  0.51100000000E-03 0.  1.
         11   -1    0    0    0    0 -0.00000000000E+00 -0.00000000000E+00 -0.45593999997E+02  0.45594000000E+02  0.51100000000E-03 0. -1.
    9900012    2    1    2    0    0  0.16934427561E+02  0.68738116283E+01  0.40834732264E+01  0.72461044115E+02  0.69999314551E+02 0.  0.
         12    1    1    2    0    0 -0.16934427561E+02 -0.68738116283E+01 -0.40834732264E+01  0.18726955885E+02  0.00000000000E+00 0. -1.
         11    1    3    3    0    0  0.30697903091E+01  0.22179948736E+02 -0.19151155859E+01  0.22473126316E+02  0.51100000000E-03 0. -1.
        -11    1    3    3    0    0  0.25776938637E+02  0.36367692409E+01 -0.22722227197E+01  0.26131200745E+02  0.51100000000E-03 0.  1.
        -12    1    3    3    0    0 -0.11912301385E+02 -0.18942906348E+02  0.82708115320E+01  0.23856717054E+02  0.00000000000E+00 0.  1.
</event>
<event>
 7    1  0.2886818E-013  0.7246173E+02  0.7816164E-02  0.1226708E+00
        -11   -1    0    0    0    0  0.00000000000E+00  0.00000000000E+00  0.45593999997E+02  0.45594000000E+02  0.51100000000E-03 0. -1.
         11   -1    0    0    0    0 -0.00000000000E+00 -0.00000000000E+00 -0.45593999997E+02  0.45594000000E+02  0.51100000000E-03 0.  1.
    9900012    2    1    2    0    0 -0.28214445494E+00 -0.30774539191E+01 -0.18469514672E+02  0.72461727003E+02  0.70000204142E+02 0.  0.
         12    1    1    2    0    0  0.28214445494E+00  0.30774539191E+01  0.18469514672E+02  0.18726272997E+02  0.00000000000E+00 0. -1.
         11    1    3    3    0    0  0.23166264835E+01  0.25380352807E+02 -0.35351597506E+01  0.25729874108E+02  0.51100000000E-03 0. -1.
        -11    1    3    3    0    0  0.14184084249E+02 -0.49125400989E+01 -0.79493831438E+01  0.16985699539E+02  0.51100000000E-03 0.  1.
        -12    1    3    3    0    0 -0.16782855187E+02 -0.23545266627E+02 -0.69849717777E+01  0.29746153357E+02  0.00000000000E+00 0.  1.
</event>
<event>
 7    1  0.2886818E-013  0.7246162E+02  0.7816164E-02  0.1226708E+00
        -11   -1    0    0    0    0  0.00000000000E+00  0.00000000000E+00  0.45593999997E+02  0.45594000000E+02  0.51100000000E-03 0.  1.
         11   -1    0    0    0    0 -0.00000000000E+00 -0.00000000000E+00 -0.45593999997E+02  0.45594000000E+02  0.51100000000E-03 0. -1.
    9900012    2    1    2    0    0 -0.53429381594E+01  0.16673213402E+02  0.66433627215E+01  0.72461620169E+02  0.70000064971E+02 0.  0.
         12    1    1    2    0    0  0.53429381594E+01 -0.16673213402E+02 -0.66433627215E+01  0.18726379831E+02  0.00000000000E+00 0. -1.
         11    1    3    3    0    0 -0.10876788340E+02 -0.10758285644E+02  0.16002183783E+02  0.22138543779E+02  0.51100000000E-03 0. -1.
        -11    1    3    3    0    0 -0.16168279739E+02  0.21534103512E+02 -0.42595847389E+01  0.27263069273E+02  0.51100000000E-03 0.  1.
         12    1    3    3    0    0  0.21702129920E+02  0.58973955344E+01 -0.50992363224E+01  0.23060007116E+02  0.00000000000E+00 0. -1.
</event>
<event>
 7    1  0.2886818E-013  0.7246153E+02  0.7816164E-02  0.1226708E+00
        -11   -1    0    0    0    0  0.00000000000E+00  0.00000000000E+00  0.45593999997E+02  0.45594000000E+02  0.51100000000E-03 0. -1.
         11   -1    0    0    0    0 -0.00000000000E+00 -0.00000000000E+00 -0.45593999997E+02  0.45594000000E+02  0.51100000000E-03 0.  1.
    9900012    2    1    2    0    0  0.13053371774E+02  0.37632506616E+01 -0.12889067532E+02  0.72461531244E+02  0.69999949130E+02 0.  0.
         12    1    1    2    0    0 -0.13053371774E+02 -0.37632506616E+01  0.12889067532E+02  0.18726468756E+02  0.00000000000E+00 0. -1.
         11    1    3    3    0    0  0.49073924224E+01  0.10813347913E+02 -0.19646437154E+02  0.22956338702E+02  0.51100000000E-03 0. -1.
        -11    1    3    3    0    0  0.20439160177E+02  0.13157454454E+02 -0.17446775643E+01  0.24370510387E+02  0.51100000000E-03 0.  1.
         12    1    3    3    0    0 -0.12293180825E+02 -0.20207551706E+02  0.85020471862E+01  0.25134682156E+02  0.00000000000E+00 0. -1.
</event>
<event>
 7    1  0.2886818E-013  0.7246156E+02  0.7816164E-02  0.1226708E+00
        -11   -1    0    0    0    0  0.00000000000E+00  0.00000000000E+00  0.45593999997E+02  0.45594000000E+02  0.51100000000E-03 0.  1.
         11   -1    0    0    0    0 -0.00000000000E+00 -0.00000000000E+00 -0.45593999997E+02  0.45594000000E+02  0.51100000000E-03 0. -1.
    9900012    2    1    2    0    0 -0.16793298089E+02 -0.75671300962E+01 -0.33768696930E+01  0.72461559668E+02  0.69999986157E+02 0.  0.
         12    1    1    2    0    0  0.16793298089E+02  0.75671300962E+01  0.33768696930E+01  0.18726440332E+02  0.00000000000E+00 0. -1.
         11    1    3    3    0    0 -0.25350735286E+02  0.57041417960E+01  0.64514755251E+01  0.26773467275E+02  0.51100000000E-03 0. -1.
        -11    1    3    3    0    0 -0.11149858961E+02 -0.19373930766E+02  0.10251414262E+01  0.22376761682E+02  0.51100000000E-03 0.  1.
        -12    1    3    3    0    0  0.19707296158E+02  0.61026588737E+01 -0.10853486644E+02  0.23311330711E+02  0.00000000000E+00 0.  1.
</event>
<event>
 7    1  0.2886818E-013  0.7246162E+02  0.7816164E-02  0.1226708E+00
        -11   -1    0    0    0    0  0.00000000000E+00  0.00000000000E+00  0.45593999997E+02  0.45594000000E+02  0.51100000000E-03 0. -1.
         11   -1    0    0    0    0 -0.00000000000E+00 -0.00000000000E+00 -0.45593999997E+02  0.45594000000E+02  0.51100000000E-03 0.  1.
    9900012    2    1    2    0    0  0.66105803850E+01  0.15595991659E+02 -0.79839026429E+01  0.72461616733E+02  0.70000060495E+02 0.  0.
         12    1    1    2    0    0 -0.66105803850E+01 -0.15595991659E+02  0.79839026429E+01  0.18726383267E+02  0.00000000000E+00 0. -1.
         11    1    3    3    0    0  0.96354320057E+00  0.56851652897E+01 -0.19162764471E+02  0.20011523237E+02  0.51100000000E-03 0. -1.
        -11    1    3    3    0    0  0.23907043875E+02 -0.27505847882E+01 -0.54772769491E+01  0.24680215286E+02  0.51100000000E-03 0.  1.
         12    1    3    3    0    0 -0.18260006690E+02  0.12661411157E+02  0.16656138777E+02  0.27769878210E+02  0.00000000000E+00 0. -1.
</event>
<event>
 7    1  0.2886818E-013  0.7246158E+02  0.7816164E-02  0.1226708E+00
        -11   -1    0    0    0    0  0.00000000000E+00  0.00000000000E+00  0.45593999997E+02  0.45594000000E+02  0.51100000000E-03 0. -1.
         11   -1    0    0    0    0 -0.00000000000E+00 -0.00000000000E+00 -0.45593999997E+02  0.45594000000E+02  0.51100000000E-03 0.  1.
    9900012    2    1    2    0    0 -0.18684769649E+02 -0.11312304318E+01  0.52770615906E+00  0.72461580884E+02  0.70000013795E+02 0.  0.
         12    1    1    2    0    0  0.18684769649E+02  0.11312304318E+01 -0.52770615906E+00  0.18726419116E+02  0.00000000000E+00 0. -1.
         11    1    3    3    0    0  0.13566865094E+02  0.67399473708E+01  0.77732750874E+01  0.17026759083E+02  0.51100000000E-03 0. -1.
        -11    1    3    3    0    0  0.89418504892E+01 -0.96834448717E+01  0.15576504332E+01  0.13272229273E+02  0.51100000000E-03 0.  1.
        -12    1    3    3    0    0 -0.41193485232E+02  0.18122670690E+01 -0.88032193615E+01  0.42162592527E+02  0.00000000000E+00 0.  1.
</event>
<event>
 7    1  0.2886818E-013  0.7246157E+02  0.7816164E-02  0.1226708E+00
        -11   -1    0    0    0    0  0.00000000000E+00  0.00000000000E+00  0.45593999997E+02  0.45594000000E+02  0.51100000000E-03 0.  1.
         11   -1    0    0    0    0 -0.00000000000E+00 -0.00000000000E+00 -0.45593999997E+02  0.45594000000E+02  0.51100000000E-03 0. -1.
    9900012    2    1    2    0    0 -0.10635258841E+02  0.12351453429E+02  0.92202029131E+01  0.72461567500E+02  0.69999996360E+02 0.  0.
         12    1    1    2    0    0  0.10635258841E+02 -0.12351453429E+02 -0.92202029131E+01  0.18726432500E+02  0.00000000000E+00 0. -1.
         11    1    3    3    0    0 -0.16800940412E+02 -0.27547358558E+01  0.14227634343E+02  0.22187513326E+02  0.51100000000E-03 0. -1.
        -11    1    3    3    0    0  0.10077576593E+02  0.21351503918E+02  0.15660327092E+02  0.28331786291E+02  0.51100000000E-03 0.  1.
         12    1    3    3    0    0 -0.39118950220E+01 -0.62453146328E+01 -0.20667758522E+02  0.21942267883E+02  0.00000000000E+00 0. -1.
</event>
<event>
 7    1  0.2886818E-013  0.7246154E+02  0.7816164E-02  0.1226708E+00
        -11   -1    0    0    0    0  0.00000000000E+00  0.00000000000E+00  0.45593999997E+02  0.45594000000E+02  0.51100000000E-03 0. -1.
         11   -1    0    0    0    0 -0.00000000000E+00 -0.00000000000E+00 -0.45593999997E+02  0.45594000000E+02  0.51100000000E-03 0.  1.
    9900012    2    1    2    0    0  0.18894494506E+01 -0.20476042861E+01 -0.18518036915E+02  0.72461537608E+02  0.69999957420E+02 0.  0.
         12    1    1    2    0    0 -0.18894494506E+01  0.20476042861E+01  0.18518036915E+02  0.18726462392E+02  0.00000000000E+00 0. -1.
         11    1    3    3    0    0  0.52442762897E+01 -0.52223275483E+01  0.84197045372E+01  0.11210109883E+02  0.51100000000E-03 0. -1.
        -11    1    3    3    0    0  0.15147491031E+02  0.14923706482E+02  0.56287271318E+01  0.21996501292E+02  0.51100000000E-03 0.  1.
        -12    1    3    3    0    0 -0.18502317870E+02 -0.11748983220E+02 -0.32566468584E+02  0.39254926433E+02  0.00000000000E+00 0.  1.
</event>
<event>
 7    1  0.2886818E-013  0.7246136E+02  0.7816164E-02  0.1226709E+00
        -11   -1    0    0    0    0  0.00000000000E+00  0.00000000000E+00  0.45593999997E+02  0.45594000000E+02  0.51100000000E-03 0. -1.
         11   -1    0    0    0    0 -0.00000000000E+00 -0.00000000000E+00 -0.45593999997E+02  0.45594000000E+02  0.51100000000E-03 0.  1.
    9900012    2    1    2    0    0 -0.12943824781E+02  0.13204237955E+02 -0.29652388578E+01  0.72461357444E+02  0.69999722723E+02 0.  0.
         12    1    1    2    0    0  0.12943824781E+02 -0.13204237955E+02  0.29652388578E+01  0.18726642556E+02  0.00000000000E+00 0. -1.
         11    1    3    3    0    0 -0.93593317191E+01  0.27425420897E+02  0.11982622240E-01  0.28978456575E+02  0.51100000000E-03 0. -1.
        -11    1    3    3    0    0  0.66696771933E+01 -0.28415915459E+00 -0.18853217498E+02  0.20000228763E+02  0.51100000000E-03 0.  1.
        -12    1    3    3    0    0 -0.10254170255E+02 -0.13937023788E+02  0.15875996018E+02  0.23482672106E+02  0.00000000000E+00 0.  1.
</event>
<event>
 7    1  0.2886818E-013  0.7246159E+02  0.7816164E-02  0.1226708E+00
        -11   -1    0    0    0    0  0.00000000000E+00  0.00000000000E+00  0.45593999997E+02  0.45594000000E+02  0.51100000000E-03 0.  1.
         11   -1    0    0    0    0 -0.00000000000E+00 -0.00000000000E+00 -0.45593999997E+02  0.45594000000E+02  0.51100000000E-03 0. -1.
    9900012    2    1    2    0    0 -0.44949228790E+01 -0.15630918065E+02  0.92816226280E+01  0.72461589510E+02  0.70000025032E+02 0.  0.
         12    1    1    2    0    0  0.44949228790E+01  0.15630918065E+02 -0.92816226280E+01  0.18726410490E+02  0.00000000000E+00 0. -1.
         11    1    3    3    0    0  0.63229846663E+01  0.87896271311E+01  0.51583857071E+00  0.10839915585E+02  0.51100000000E-03 0. -1.
        -11    1    3    3    0    0 -0.81461780109E+01  0.12310720110E+02  0.18365489802E+02  0.23562794014E+02  0.51100000000E-03 0.  1.
         12    1    3    3    0    0 -0.26717295343E+01 -0.36731265306E+02 -0.95997057450E+01  0.38058879911E+02  0.00000000000E+00 0. -1.
</event>
<event>
 7    1  0.2886818E-013  0.7246154E+02  0.7816164E-02  0.1226708E+00
        -11   -1    0    0    0    0  0.00000000000E+00  0.00000000000E+00  0.45593999997E+02  0.45594000000E+02  0.51100000000E-03 0. -1.
         11   -1    0    0    0    0 -0.00000000000E+00 -0.00000000000E+00 -0.45593999997E+02  0.45594000000E+02  0.51100000000E-03 0.  1.
    9900012    2    1    2    0    0 -0.52796911879E+01 -0.10433233536E+02 -0.14627119445E+02  0.72461544801E+02  0.69999966790E+02 0.  0.
         12    1    1    2    0    0  0.52796911879E+01  0.10433233536E+02  0.14627119445E+02  0.18726455199E+02  0.00000000000E+00 0. -1.
         11    1    3    3    0    0 -0.21669326449E+02 -0.89546143829E+01 -0.18895448427E+02  0.30112834457E+02  0.51100000000E-03 0. -1.
        -11    1    3    3    0    0 -0.39514543964E+01  0.11205563070E+02 -0.90405719530E+01  0.14930190121E+02  0.51100000000E-03 0.  1.
        -12    1    3    3    0    0  0.20341089658E+02 -0.12684182223E+02  0.13308900935E+02  0.27418520223E+02  0.00000000000E+00 0.  1.
</event>
<event>
 7    1  0.2886818E-013  0.7246158E+02  0.7816164E-02  0.1226708E+00
        -11   -1    0    0    0    0  0.00000000000E+00  0.00000000000E+00  0.45593999997E+02  0.45594000000E+02  0.51100000000E-03 0.  1.
         11   -1    0    0    0    0 -0.00000000000E+00 -0.00000000000E+00 -0.45593999997E+02  0.45594000000E+02  0.51100000000E-03 0. -1.
    9900012    2    1    2    0    0 -0.11248746658E+02 -0.12833036754E+02  0.77108747205E+01  0.72461582226E+02  0.70000015543E+02 0.  0.
         12    1    1    2    0    0  0.11248746658E+02  0.12833036754E+02 -0.77108747205E+01  0.18726417774E+02  0.00000000000E+00 0. -1.
         11    1    3    3    0    0  0.10672976982E+02  0.14546157270E+02  0.12821151211E+01  0.18087203997E+02  0.51100000000E-03 0. -1.
        -11    1    3    3    0    0  0.11604447645E+02 -0.11064299277E+02  0.59020143558E+01  0.17085540593E+02  0.51100000000E-03 0.  1.
        -12    1    3    3    0    0 -0.33526171285E+02 -0.16314894747E+02  0.52674524362E+00  0.37288837636E+02  0.00000000000E+00 0.  1.
</event>
<event>
 7    1  0.2886818E-013  0.7246159E+02  0.7816164E-02  0.1226708E+00
        -11   -1    0    0    0    0  0.00000000000E+00  0.00000000000E+00  0.45593999997E+02  0.45594000000E+02  0.51100000000E-03 0.  1.
         11   -1    0    0    0    0 -0.00000000000E+00 -0.00000000000E+00 -0.45593999997E+02  0.45594000000E+02  0.51100000000E-03 0. -1.
    9900012    2    1    2    0    0  0.11267766534E+02  0.13959760555E+02 -0.53703673566E+01  0.72461592898E+02  0.70000029446E+02 0.  0.
         12    1    1    2    0    0 -0.11267766534E+02 -0.13959760555E+02  0.53703673566E+01  0.18726407102E+02  0.00000000000E+00 0. -1.
         11    1    3    3    0    0  0.24374503651E+01  0.67665706057E+01  0.10493089762E+02  0.12721343289E+02  0.51100000000E-03 0. -1.
        -11    1    3    3    0    0  0.92246496950E+01  0.28763996683E+02  0.39301184912E+01  0.30461574135E+02  0.51100000000E-03 0.  1.
         12    1    3    3    0    0 -0.39433352658E+00 -0.21570806734E+02 -0.19793575610E+02  0.29278675474E+02  0.00000000000E+00 0. -1.
</event>
<event>
 7    1  0.2886818E-013  0.7246154E+02  0.7816164E-02  0.1226708E+00
        -11   -1    0    0    0    0  0.00000000000E+00  0.00000000000E+00  0.45593999997E+02  0.45594000000E+02  0.51100000000E-03 0. -1.
         11   -1    0    0    0    0 -0.00000000000E+00 -0.00000000000E+00 -0.45593999997E+02  0.45594000000E+02  0.51100000000E-03 0.  1.
    9900012    2    1    2    0    0 -0.86262199185E+01 -0.12795400984E+02 -0.10608780067E+02  0.72461543556E+02  0.69999965168E+02 0.  0.
         12    1    1    2    0    0  0.86262199185E+01  0.12795400984E+02  0.10608780067E+02  0.18726456444E+02  0.00000000000E+00 0. -1.
         11    1    3    3    0    0 -0.92700721505E+01  0.16653302199E+02  0.33495529451E+01  0.19351646364E+02  0.51100000000E-03 0. -1.
        -11    1    3    3    0    0  0.18389932406E+02 -0.41838105303E+01  0.82640100003E+00  0.18877945421E+02  0.51100000000E-03 0.  1.
        -12    1    3    3    0    0 -0.17746080173E+02 -0.25264892653E+02 -0.14784734012E+02  0.34231951772E+02  0.00000000000E+00 0.  1.
</event>
<event>
 7    1  0.2886818E-013  0.7246168E+02  0.7816164E-02  0.1226708E+00
        -11   -1    0    0    0    0  0.00000000000E+00  0.00000000000E+00  0.45593999997E+02  0.45594000000E+02  0.51100000000E-03 0. -1.
         11   -1    0    0    0    0 -0.00000000000E+00 -0.00000000000E+00 -0.45593999997E+02  0.45594000000E+02  0.51100000000E-03 0.  1.
    9900012    2    1    2    0    0  0.15732131511E+02 -0.20260988451E+01  0.99533863489E+01  0.72461683271E+02  0.70000147173E+02 0.  0.
         12    1    1    2    0    0 -0.15732131511E+02  0.20260988451E+01 -0.99533863489E+01  0.18726316729E+02  0.00000000000E+00 0. -1.
         11    1    3    3    0    0  0.29372883880E+02 -0.10892058401E+02  0.87931849256E+01  0.32538029213E+02  0.51100000000E-03 0. -1.
        -11    1    3    3    0    0 -0.18066282284E+01 -0.96634341387E+01 -0.11037401306E+02  0.14780733837E+02  0.51100000000E-03 0.  1.
        -12    1    3    3    0    0 -0.11834124141E+02  0.18529393695E+02  0.12197602730E+02  0.25142920221E+02  0.00000000000E+00 0.  1.
</event>
<event>
 7    1  0.2886818E-013  0.7246158E+02  0.7816164E-02  0.1226708E+00
        -11   -1    0    0    0    0  0.00000000000E+00  0.00000000000E+00  0.45593999997E+02  0.45594000000E+02  0.51100000000E-03 0.  1.
         11   -1    0    0    0    0 -0.00000000000E+00 -0.00000000000E+00 -0.45593999997E+02  0.45594000000E+02  0.51100000000E-03 0. -1.
    9900012    2    1    2    0    0  0.16249493758E+02  0.76072105393E+01  0.53631237567E+01  0.72461580267E+02  0.70000012992E+02 0.  0.
         12    1    1    2    0    0 -0.16249493758E+02 -0.76072105393E+01 -0.53631237567E+01  0.18726419733E+02  0.00000000000E+00 0. -1.
         11    1    3    3    0    0  0.11286593024E+02  0.42700458859E+01  0.18812103869E+02  0.22349848460E+02  0.51100000000E-03 0. -1.
        -11    1    3    3    0    0 -0.19946946879E+02  0.10074932697E+02 -0.80150465994E+01  0.23740807293E+02  0.51100000000E-03 0.  1.
         12    1    3    3    0    0  0.24909847613E+02 -0.67377680434E+01 -0.54339335131E+01  0.26370924514E+02  0.00000000000E+00 0. -1.
</event>
<event>
 7    1  0.2886818E-013  0.7246158E+02  0.7816164E-02  0.1226708E+00
        -11   -1    0    0    0    0  0.00000000000E+00  0.00000000000E+00  0.45593999997E+02  0.45594000000E+02  0.51100000000E-03 0. -1.
         11   -1    0    0    0    0 -0.00000000000E+00 -0.00000000000E+00 -0.45593999997E+02  0.45594000000E+02  0.51100000000E-03 0.  1.
    9900012    2    1    2    0    0  0.96730009305E+01 -0.10976373512E+02 -0.11688934496E+02  0.72461577167E+02  0.70000008953E+02 0.  0.
         12    1    1    2    0    0 -0.96730009305E+01  0.10976373512E+02  0.11688934496E+02  0.18726422833E+02  0.00000000000E+00 0. -1.
         11    1    3    3    0    0 -0.69303988806E-01  0.42382289739E+01 -0.70742137727E+01  0.82469320745E+01  0.51100000000E-03 0. -1.
        -11    1    3    3    0    0  0.22604924547E+02 -0.14636902422E+02 -0.27162580302E+02  0.38249539804E+02  0.51100000000E-03 0.  1.
         12    1    3    3    0    0 -0.12862619628E+02 -0.57770006373E+00  0.22547859579E+02  0.25965105289E+02  0.00000000000E+00 0. -1.
</event>
<event>
 7    1  0.2886818E-013  0.7246156E+02  0.7816164E-02  0.1226708E+00
        -11   -1    0    0    0    0  0.00000000000E+00  0.00000000000E+00  0.45593999997E+02  0.45594000000E+02  0.51100000000E-03 0. -1.
         11   -1    0    0    0    0 -0.00000000000E+00 -0.00000000000E+00 -0.45593999997E+02  0.45594000000E+02  0.51100000000E-03 0.  1.
    9900012    2    1    2    0    0 -0.90595598579E+01 -0.12783148111E+02 -0.10256466382E+02  0.72461558718E+02  0.69999984920E+02 0.  0.
         12    1    1    2    0    0  0.90595598579E+01  0.12783148111E+02  0.10256466382E+02  0.18726441282E+02  0.00000000000E+00 0. -1.
         11    1    3    3    0    0  0.55660899208E+01  0.81957748775E+01 -0.58901928398E+01  0.11525903644E+02  0.51100000000E-03 0. -1.
        -11    1    3    3    0    0  0.19815777631E+02 -0.15365319157E+02  0.30515650044E+01  0.25260049983E+02  0.51100000000E-03 0.  1.
         12    1    3    3    0    0 -0.34441427409E+02 -0.56136038308E+01 -0.74178385462E+01  0.35675605092E+02  0.00000000000E+00 0. -1.
</event>
<event>
 7    1  0.2886818E-013  0.7246161E+02  0.7816164E-02  0.1226708E+00
        -11   -1    0    0    0    0  0.00000000000E+00  0.00000000000E+00  0.45593999997E+02  0.45594000000E+02  0.51100000000E-03 0.  1.
         11   -1    0    0    0    0 -0.00000000000E+00 -0.00000000000E+00 -0.45593999997E+02  0.45594000000E+02  0.51100000000E-03 0. -1.
    9900012    2    1    2    0    0 -0.16261383682E+02 -0.49168064529E+01  0.78784688037E+01  0.72461605376E+02  0.70000045700E+02 0.  0.
         12    1    1    2    0    0  0.16261383682E+02  0.49168064529E+01 -0.78784688037E+01  0.18726394624E+02  0.00000000000E+00 0. -1.
         11    1    3    3    0    0 -0.11519997842E+02 -0.21102450224E+02  0.16861367581E+02  0.29365446918E+02  0.51100000000E-03 0. -1.
        -11    1    3    3    0    0 -0.12789215744E+02 -0.40945736264E+01  0.78357520950E+01  0.15547623088E+02  0.51100000000E-03 0.  1.
        -12    1    3    3    0    0  0.80478299044E+01  0.20280217397E+02 -0.16818650873E+02  0.27548535370E+02  0.00000000000E+00 0.  1.
</event>
<event>
 7    1  0.2886818E-013  0.7246208E+02  0.7816164E-02  0.1226707E+00
        -11   -1    0    0    0    0  0.00000000000E+00  0.00000000000E+00  0.45593999997E+02  0.45594000000E+02  0.51100000000E-03 0. -1.
         11   -1    0    0    0    0 -0.00000000000E+00 -0.00000000000E+00 -0.45593999997E+02  0.45594000000E+02  0.51100000000E-03 0.  1.
    9900012    2    1    2    0    0 -0.14305993442E+02  0.78276584624E+01 -0.92046886896E+01  0.72462082686E+02  0.70000667482E+02 0.  0.
         12    1    1    2    0    0  0.14305993442E+02 -0.78276584624E+01  0.92046886896E+01  0.18725917314E+02  0.00000000000E+00 0. -1.
         11    1    3    3    0    0 -0.37491128193E+01 -0.27893543702E+01 -0.14988134687E+02  0.15699698290E+02  0.51100000000E-03 0. -1.
        -11    1    3    3    0    0 -0.62696762455E+01  0.14082758100E+02 -0.22871758526E+02  0.27581701439E+02  0.51100000000E-03 0.  1.
         12    1    3    3    0    0 -0.42872043773E+01 -0.34657452674E+01  0.28655204523E+02  0.29180682958E+02  0.00000000000E+00 0. -1.
</event>
<event>
 7    1  0.2886818E-013  0.7246159E+02  0.7816164E-02  0.1226708E+00
        -11   -1    0    0    0    0  0.00000000000E+00  0.00000000000E+00  0.45593999997E+02  0.45594000000E+02  0.51100000000E-03 0.  1.
         11   -1    0    0    0    0 -0.00000000000E+00 -0.00000000000E+00 -0.45593999997E+02  0.45594000000E+02  0.51100000000E-03 0. -1.
    9900012    2    1    2    0    0 -0.91210544521E+01  0.12481487419E+02  0.10568684083E+02  0.72461594959E+02  0.70000032130E+02 0.  0.
         12    1    1    2    0    0  0.91210544521E+01 -0.12481487419E+02 -0.10568684083E+02  0.18726405041E+02  0.00000000000E+00 0. -1.
         11    1    3    3    0    0  0.16418629315E+02 -0.37518137348E+01  0.88929077922E+01  0.19045506140E+02  0.51100000000E-03 0. -1.
        -11    1    3    3    0    0 -0.13345516662E+01  0.26536342954E+02  0.45363251206E+01  0.26954346058E+02  0.51100000000E-03 0.  1.
        -12    1    3    3    0    0 -0.24205132100E+02 -0.10303041800E+02 -0.28605488295E+01  0.26461742761E+02  0.00000000000E+00 0.  1.
</event>
<event>
 7    1  0.2886818E-013  0.7246161E+02  0.7816164E-02  0.1226708E+00
        -11   -1    0    0    0    0  0.00000000000E+00  0.00000000000E+00  0.45593999997E+02  0.45594000000E+02  0.51100000000E-03 0. -1.
         11   -1    0    0    0    0 -0.00000000000E+00 -0.00000000000E+00 -0.45593999997E+02  0.45594000000E+02  0.51100000000E-03 0.  1.
    9900012    2    1    2    0    0 -0.60826472264E+01  0.29236879911E+01 -0.17468005235E+02  0.72461608046E+02  0.70000049178E+02 0.  0.
         12    1    1    2    0    0  0.60826472264E+01 -0.29236879911E+01  0.17468005235E+02  0.18726391954E+02  0.00000000000E+00 0. -1.
         11    1    3    3    0    0 -0.11750492382E+02  0.27191107509E+02 -0.92369854529E+00  0.29635850217E+02  0.51100000000E-03 0. -1.
        -11    1    3    3    0    0 -0.11437472085E+02 -0.24510003612E+01 -0.61772198625E+01  0.13228046566E+02  0.51100000000E-03 0.  1.
        -12    1    3    3    0    0  0.17105317241E+02 -0.21816419157E+02 -0.10367086827E+02  0.29597711263E+02  0.00000000000E+00 0.  1.
</event>
<event>
 7    1  0.2886818E-013  0.7246173E+02  0.7816164E-02  0.1226708E+00
        -11   -1    0    0    0    0  0.00000000000E+00  0.00000000000E+00  0.45593999997E+02  0.45594000000E+02  0.51100000000E-03 0.  1.
         11   -1    0    0    0    0 -0.00000000000E+00 -0.00000000000E+00 -0.45593999997E+02  0.45594000000E+02  0.51100000000E-03 0. -1.
    9900012    2    1    2    0    0 -0.17486223823E+02  0.47307816870E+01  0.47460482138E+01  0.72461727210E+02  0.70000204411E+02 0.  0.
         12    1    1    2    0    0  0.17486223823E+02 -0.47307816870E+01 -0.47460482138E+01  0.18726272790E+02  0.00000000000E+00 0. -1.
         11    1    3    3    0    0 -0.39620398212E+01  0.31139347167E+02  0.34722272733E+00  0.31392312203E+02  0.51100000000E-03 0. -1.
        -11    1    3    3    0    0  0.43613140376E+01  0.23394903133E+01  0.52313941907E+01  0.72015109873E+01  0.51100000000E-03 0.  1.
        -12    1    3    3    0    0 -0.17885498040E+02 -0.28748055794E+02 -0.83256870422E+00  0.33867904020E+02  0.00000000000E+00 0.  1.
</event>
<event>
 7    1  0.2886818E-013  0.7246156E+02  0.7816164E-02  0.1226708E+00
        -11   -1    0    0    0    0  0.00000000000E+00  0.00000000000E+00  0.45593999997E+02  0.45594000000E+02  0.51100000000E-03 0.  1.
         11   -1    0    0    0    0 -0.00000000000E+00 -0.00000000000E+00 -0.45593999997E+02  0.45594000000E+02  0.51100000000E-03 0. -1.
    9900012    2    1    2    0    0 -0.11297787480E+02 -0.13971447051E+02  0.52761773855E+01  0.72461564609E+02  0.69999992594E+02 0.  0.
         12    1    1    2    0    0  0.11297787480E+02  0.13971447051E+02 -0.52761773855E+01  0.18726435391E+02  0.00000000000E+00 0. -1.
         11    1    3    3    0    0  0.10299097676E+02  0.12579409890E+02  0.92152287100E+01  0.18687787631E+02  0.51100000000E-03 0. -1.
        -11    1    3    3    0    0  0.47396393054E+01 -0.39241093925E+01  0.13560808909E+02  0.14891553102E+02  0.51100000000E-03 0.  1.
         12    1    3    3    0    0 -0.26336524462E+02 -0.22626747548E+02 -0.17499860234E+02  0.38882223876E+02  0.00000000000E+00 0. -1.
</event>
<event>
 7    1  0.2886818E-013  0.7246154E+02  0.7816164E-02  0.1226708E+00
        -11   -1    0    0    0    0  0.00000000000E+00  0.00000000000E+00  0.45593999997E+02  0.45594000000E+02  0.51100000000E-03 0. -1.
         11   -1    0    0    0    0 -0.00000000000E+00 -0.00000000000E+00 -0.45593999997E+02  0.45594000000E+02  0.51100000000E-03 0.  1.
    9900012    2    1    2    0    0  0.92954892218E+01  0.24385917960E+01 -0.16072563782E+02  0.72461543946E+02  0.69999965676E+02 0.  0.
         12    1    1    2    0    0 -0.92954892218E+01 -0.24385917960E+01  0.16072563782E+02  0.18726456054E+02  0.00000000000E+00 0. -1.
         11    1    3    3    0    0  0.10726662737E+02 -0.44544759823E+01 -0.20309144073E+02  0.23395832598E+02  0.51100000000E-03 0. -1.
        -11    1    3    3    0    0  0.96331449255E+01 -0.12275606000E+01 -0.19421978209E+02  0.21714456567E+02  0.51100000000E-03 0.  1.
         12    1    3    3    0    0 -0.11064318440E+02  0.81206283783E+01  0.23658558499E+02  0.27351254781E+02  0.00000000000E+00 0. -1.
</event>
<event>
 7    1  0.2886818E-013  0.7246159E+02  0.7816164E-02  0.1226708E+00
        -11   -1    0    0    0    0  0.00000000000E+00  0.00000000000E+00  0.45593999997E+02  0.45594000000E+02  0.51100000000E-03 0.  1.
         11   -1    0    0    0    0 -0.00000000000E+00 -0.00000000000E+00 -0.45593999997E+02  0.45594000000E+02  0.51100000000E-03 0. -1.
    9900012    2    1    2    0    0 -0.21592620165E+01  0.18578366564E+02  0.92745993602E+00  0.72461593549E+02  0.70000030294E+02 0.  0.
         12    1    1    2    0    0  0.21592620165E+01 -0.18578366564E+02 -0.92745993602E+00  0.18726406451E+02  0.00000000000E+00 0. -1.
         11    1    3    3    0    0 -0.10962019517E+02  0.95006140080E-01 -0.15492797236E+02  0.18978979544E+02  0.51100000000E-03 0. -1.
        -11    1    3    3    0    0 -0.73604170289E+00  0.16682589708E+02 -0.13849331748E+02  0.21694574134E+02  0.51100000000E-03 0.  1.
        -12    1    3    3    0    0  0.95387992036E+01  0.18007707159E+01  0.30269588920E+02  0.31788039871E+02  0.00000000000E+00 0.  1.
</event>
<event>
 7    1  0.2886818E-013  0.7246161E+02  0.7816164E-02  0.1226708E+00
        -11   -1    0    0    0    0  0.00000000000E+00  0.00000000000E+00  0.45593999997E+02  0.45594000000E+02  0.51100000000E-03 0.  1.
         11   -1    0    0    0    0 -0.00000000000E+00 -0.00000000000E+00 -0.45593999997E+02  0.45594000000E+02  0.51100000000E-03 0. -1.
    9900012    2    1    2    0    0 -0.13545630500E+02  0.12549541556E+02  0.31148721296E+01  0.72461614142E+02  0.70000057120E+02 0.  0.
         12    1    1    2    0    0  0.13545630500E+02 -0.12549541556E+02 -0.31148721296E+01  0.18726385858E+02  0.00000000000E+00 0. -1.
         11    1    3    3    0    0 -0.11825955876E+02  0.13805299609E+02 -0.17273492615E+01  0.18259881309E+02  0.51100000000E-03 0. -1.
        -11    1    3    3    0    0 -0.45753785164E+01  0.26079249437E+02  0.31783153808E+01  0.26667640104E+02  0.51100000000E-03 0.  1.
         12    1    3    3    0    0  0.28557038929E+01 -0.27335007491E+02  0.16639060103E+01  0.27534092730E+02  0.00000000000E+00 0. -1.
</event>
<event>
 7    1  0.2886818E-013  0.7246165E+02  0.7816164E-02  0.1226708E+00
        -11   -1    0    0    0    0  0.00000000000E+00  0.00000000000E+00  0.45593999997E+02  0.45594000000E+02  0.51100000000E-03 0.  1.
         11   -1    0    0    0    0 -0.00000000000E+00 -0.00000000000E+00 -0.45593999997E+02  0.45594000000E+02  0.51100000000E-03 0. -1.
    9900012    2    1    2    0    0 -0.11422272096E+02  0.92327005767E+01  0.11617441543E+02  0.72461654714E+02  0.70000109972E+02 0.  0.
         12    1    1    2    0    0  0.11422272096E+02 -0.92327005767E+01 -0.11617441543E+02  0.18726345286E+02  0.00000000000E+00 0. -1.
         11    1    3    3    0    0 -0.11395041496E+02  0.13600875078E+02  0.29690380637E+02  0.34588285245E+02  0.51100000000E-03 0. -1.
        -11    1    3    3    0    0  0.11552673144E+02 -0.35287657767E+01  0.41728806089E+01  0.12780038244E+02  0.51100000000E-03 0.  1.
         12    1    3    3    0    0 -0.11579903744E+02 -0.83940872456E+00 -0.22245819702E+02  0.25093331225E+02  0.00000000000E+00 0. -1.
</event>
<event>
 7    1  0.2886818E-013  0.7246152E+02  0.7816164E-02  0.1226708E+00
        -11   -1    0    0    0    0  0.00000000000E+00  0.00000000000E+00  0.45593999997E+02  0.45594000000E+02  0.51100000000E-03 0.  1.
         11   -1    0    0    0    0 -0.00000000000E+00 -0.00000000000E+00 -0.45593999997E+02  0.45594000000E+02  0.51100000000E-03 0. -1.
    9900012    2    1    2    0    0  0.63473193272E+01 -0.16900460390E+02  0.49766548259E+01  0.72461518289E+02  0.69999932253E+02 0.  0.
         12    1    1    2    0    0 -0.63473193272E+01  0.16900460390E+02 -0.49766548259E+01  0.18726481711E+02  0.00000000000E+00 0. -1.
         11    1    3    3    0    0  0.31352153247E+01  0.11507025141E+02  0.18982304311E+02  0.22418052546E+02  0.51100000000E-03 0. -1.
        -11    1    3    3    0    0  0.82082318672E+01  0.18101787145E+01  0.85626622687E+01  0.11998791721E+02  0.51100000000E-03 0.  1.
        -12    1    3    3    0    0 -0.49961278647E+01 -0.30217664245E+02 -0.22568311753E+02  0.38044674023E+02  0.00000000000E+00 0.  1.
</event>
<event>
 7    1  0.2886818E-013  0.7246158E+02  0.7816164E-02  0.1226708E+00
        -11   -1    0    0    0    0  0.00000000000E+00  0.00000000000E+00  0.45593999997E+02  0.45594000000E+02  0.51100000000E-03 0.  1.
         11   -1    0    0    0    0 -0.00000000000E+00 -0.00000000000E+00 -0.45593999997E+02  0.45594000000E+02  0.51100000000E-03 0. -1.
    9900012    2    1    2    0    0  0.13960474254E+02 -0.11106359535E+02  0.56949588955E+01  0.72461584958E+02  0.70000019101E+02 0.  0.
         12    1    1    2    0    0 -0.13960474254E+02  0.11106359535E+02 -0.56949588955E+01  0.18726415042E+02  0.00000000000E+00 0. -1.
         11    1    3    3    0    0  0.23720455654E+01  0.11462327705E+02 -0.18938359678E+02  0.22263715416E+02  0.51100000000E-03 0. -1.
        -11    1    3    3    0    0  0.98332465213E+01  0.42576346508E+01 -0.35119938413E+01  0.11276271147E+02  0.51100000000E-03 0.  1.
        -12    1    3    3    0    0  0.17551821674E+01 -0.26826321891E+02  0.28145312415E+02  0.38921598395E+02  0.00000000000E+00 0.  1.
</event>
<event>
 7    1  0.2886818E-013  0.7246163E+02  0.7816164E-02  0.1226708E+00
        -11   -1    0    0    0    0  0.00000000000E+00  0.00000000000E+00  0.45593999997E+02  0.45594000000E+02  0.51100000000E-03 0.  1.
         11   -1    0    0    0    0 -0.00000000000E+00 -0.00000000000E+00 -0.45593999997E+02  0.45594000000E+02  0.51100000000E-03 0. -1.
    9900012    2    1    2    0    0  0.14706512281E+02  0.11589696537E+02  0.27254408319E+00  0.72461632238E+02  0.70000080693E+02 0.  0.
         12    1    1    2    0    0 -0.14706512281E+02 -0.11589696537E+02 -0.27254408319E+00  0.18726367762E+02  0.00000000000E+00 0. -1.
         11    1    3    3    0    0 -0.99482804567E-01 -0.91067433240E+01 -0.12554206746E+02  0.15509699484E+02  0.51100000000E-03 0. -1.
        -11    1    3    3    0    0 -0.82117188484E+01  0.96626573309E+01 -0.14698589627E+02  0.19412568363E+02  0.51100000000E-03 0.  1.
        -12    1    3    3    0    0  0.23017713934E+02  0.11033782530E+02  0.27525340456E+02  0.37539364391E+02  0.00000000000E+00 0.  1.
</event>
<event>
 7    1  0.2886818E-013  0.7246159E+02  0.7816164E-02  0.1226708E+00
        -11   -1    0    0    0    0  0.00000000000E+00  0.00000000000E+00  0.45593999997E+02  0.45594000000E+02  0.51100000000E-03 0.  1.
         11   -1    0    0    0    0 -0.00000000000E+00 -0.00000000000E+00 -0.45593999997E+02  0.45594000000E+02  0.51100000000E-03 0. -1.
    9900012    2    1    2    0    0 -0.99884906457E+01 -0.15700309304E+02 -0.20996743213E+01  0.72461593781E+02  0.70000030595E+02 0.  0.
         12    1    1    2    0    0  0.99884906457E+01  0.15700309304E+02  0.20996743213E+01  0.18726406219E+02  0.00000000000E+00 0. -1.
         11    1    3    3    0    0  0.64512000730E+01 -0.47597731707E+01  0.94826417794E+01  0.12417484383E+02  0.51100000000E-03 0. -1.
        -11    1    3    3    0    0 -0.60852660528E+01 -0.13813564207E+02  0.20928189606E+02  0.25803762119E+02  0.51100000000E-03 0.  1.
         12    1    3    3    0    0 -0.10354424666E+02  0.28730280737E+01 -0.32510505707E+02  0.34240347279E+02  0.00000000000E+00 0. -1.
</event>
<event>
 7    1  0.2886818E-013  0.7246155E+02  0.7816164E-02  0.1226708E+00
        -11   -1    0    0    0    0  0.00000000000E+00  0.00000000000E+00  0.45593999997E+02  0.45594000000E+02  0.51100000000E-03 0. -1.
         11   -1    0    0    0    0 -0.00000000000E+00 -0.00000000000E+00 -0.45593999997E+02  0.45594000000E+02  0.51100000000E-03 0.  1.
    9900012    2    1    2    0    0  0.17293706305E+02  0.65234193068E+01  0.30087501386E+01  0.72461552003E+02  0.69999976172E+02 0.  0.
         12    1    1    2    0    0 -0.17293706305E+02 -0.65234193068E+01 -0.30087501386E+01  0.18726447997E+02  0.00000000000E+00 0. -1.
         11    1    3    3    0    0  0.13423090411E+02  0.36527816483E+01  0.49702259770E+01  0.14772451268E+02  0.51100000000E-03 0. -1.
        -11    1    3    3    0    0  0.19281592306E+02 -0.21461674399E+02 -0.12563233015E+01  0.28878393625E+02  0.51100000000E-03 0.  1.
         12    1    3    3    0    0 -0.15410976412E+02  0.24332312058E+02 -0.70515253690E+00  0.28810707109E+02  0.00000000000E+00 0. -1.
</event>
<event>
 7    1  0.2886818E-013  0.7246167E+02  0.7816164E-02  0.1226708E+00
        -11   -1    0    0    0    0  0.00000000000E+00  0.00000000000E+00  0.45593999997E+02  0.45594000000E+02  0.51100000000E-03 0. -1.
         11   -1    0    0    0    0 -0.00000000000E+00 -0.00000000000E+00 -0.45593999997E+02  0.45594000000E+02  0.51100000000E-03 0.  1.
    9900012    2    1    2    0    0 -0.10408488528E+02  0.11568788576E+02 -0.10416428460E+02  0.72461668687E+02  0.70000128175E+02 0.  0.
         12    1    1    2    0    0  0.10408488528E+02 -0.11568788576E+02  0.10416428460E+02  0.18726331313E+02  0.00000000000E+00 0. -1.
         11    1    3    3    0    0  0.75012398641E+01 -0.10163490868E+02 -0.13963575107E+02  0.18829407217E+02  0.51100000000E-03 0. -1.
        -11    1    3    3    0    0  0.10794000001E+02 -0.56542438214E+01  0.65716587702E+01  0.13844407119E+02  0.51100000000E-03 0.  1.
        -12    1    3    3    0    0 -0.28703728394E+02  0.27386523266E+02 -0.30245121235E+01  0.39787854351E+02  0.00000000000E+00 0.  1.
</event>
<event>
 7    1  0.2886818E-013  0.7246156E+02  0.7816164E-02  0.1226708E+00
        -11   -1    0    0    0    0  0.00000000000E+00  0.00000000000E+00  0.45593999997E+02  0.45594000000E+02  0.51100000000E-03 0.  1.
         11   -1    0    0    0    0 -0.00000000000E+00 -0.00000000000E+00 -0.45593999997E+02  0.45594000000E+02  0.51100000000E-03 0. -1.
    9900012    2    1    2    0    0  0.13091251449E+02 -0.12714359569E+02  0.42004265484E+01  0.72461564489E+02  0.69999992438E+02 0.  0.
         12    1    1    2    0    0 -0.13091251449E+02  0.12714359569E+02 -0.42004265484E+01  0.18726435511E+02  0.00000000000E+00 0. -1.
         11    1    3    3    0    0 -0.14906086989E+02 -0.14059281412E+02  0.42939008782E+01  0.20935434272E+02  0.51100000000E-03 0. -1.
        -11    1    3    3    0    0  0.13916745817E+02 -0.13176691158E+02  0.16557565723E+02  0.25326941919E+02  0.51100000000E-03 0.  1.
        -12    1    3    3    0    0  0.14080592620E+02  0.14521613000E+02 -0.16651040053E+02  0.26199188299E+02  0.00000000000E+00 0.  1.
</event>
<event>
 7    1  0.2886818E-013  0.7246154E+02  0.7816164E-02  0.1226708E+00
        -11   -1    0    0    0    0  0.00000000000E+00  0.00000000000E+00  0.45593999997E+02  0.45594000000E+02  0.51100000000E-03 0.  1.
         11   -1    0    0    0    0 -0.00000000000E+00 -0.00000000000E+00 -0.45593999997E+02  0.45594000000E+02  0.51100000000E-03 0. -1.
    9900012    2    1    2    0    0  0.12205805858E+02  0.41872485656E+01  0.13570765071E+02  0.72461537125E+02  0.69999956790E+02 0.  0.
         12    1    1    2    0    0 -0.12205805858E+02 -0.41872485656E+01 -0.13570765071E+02  0.18726462875E+02  0.00000000000E+00 0. -1.
         11    1    3    3    0    0  0.17283670490E+01 -0.17801972820E+02  0.97687796288E+00  0.17912335966E+02  0.51100000000E-03 0. -1.
        -11    1    3    3    0    0  0.37464416556E+01 -0.11867547411E+02 -0.75755748440E+01  0.14569277303E+02  0.51100000000E-03 0.  1.
        -12    1    3    3    0    0  0.67309971538E+01  0.33856768797E+02  0.20169461952E+02  0.39979923856E+02  0.00000000000E+00 0.  1.
</event>
<event>
 7    1  0.2886818E-013  0.7246161E+02  0.7816164E-02  0.1226708E+00
        -11   -1    0    0    0    0  0.00000000000E+00  0.00000000000E+00  0.45593999997E+02  0.45594000000E+02  0.51100000000E-03 0.  1.
         11   -1    0    0    0    0 -0.00000000000E+00 -0.00000000000E+00 -0.45593999997E+02  0.45594000000E+02  0.51100000000E-03 0. -1.
    9900012    2    1    2    0    0  0.89496309587E+01  0.13897570865E+02  0.87999593133E+01  0.72461610755E+02  0.70000052707E+02 0.  0.
         12    1    1    2    0    0 -0.89496309587E+01 -0.13897570865E+02 -0.87999593133E+01  0.18726389245E+02  0.00000000000E+00 0. -1.
         11    1    3    3    0    0  0.93720024704E+00  0.60334475367E+01 -0.11908534844E+02  0.13382601985E+02  0.51100000000E-03 0. -1.
        -11    1    3    3    0    0  0.86689993544E+01  0.12668253386E+02 -0.15929210070E+02  0.22121842766E+02  0.51100000000E-03 0.  1.
         12    1    3    3    0    0 -0.65656864274E+00 -0.48041300575E+01  0.36637704228E+02  0.36957166004E+02  0.00000000000E+00 0. -1.
</event>
<event>
 7    1  0.2886818E-013  0.7246188E+02  0.7816164E-02  0.1226707E+00
        -11   -1    0    0    0    0  0.00000000000E+00  0.00000000000E+00  0.45593999997E+02  0.45594000000E+02  0.51100000000E-03 0.  1.
         11   -1    0    0    0    0 -0.00000000000E+00 -0.00000000000E+00 -0.45593999997E+02  0.45594000000E+02  0.51100000000E-03 0. -1.
    9900012    2    1    2    0    0  0.12587865116E+02 -0.31627653699E+00  0.13860483853E+02  0.72461884769E+02  0.70000409660E+02 0.  0.
         12    1    1    2    0    0 -0.12587865116E+02  0.31627653699E+00 -0.13860483853E+02  0.18726115231E+02  0.00000000000E+00 0. -1.
         11    1    3    3    0    0  0.15356018405E+02 -0.20714431997E+01 -0.11913551838E+02  0.19545610654E+02  0.51100000000E-03 0. -1.
        -11    1    3    3    0    0  0.20917131122E+02  0.30696307142E+00  0.53131110992E+01  0.21583552778E+02  0.51100000000E-03 0.  1.
         12    1    3    3    0    0 -0.23685284410E+02  0.14482035913E+01  0.20460924592E+02  0.31332721337E+02  0.00000000000E+00 0. -1.
</event>
<event>
 7    1  0.2886818E-013  0.7246158E+02  0.7816164E-02  0.1226708E+00
        -11   -1    0    0    0    0  0.00000000000E+00  0.00000000000E+00  0.45593999997E+02  0.45594000000E+02  0.51100000000E-03 0. -1.
         11   -1    0    0    0    0 -0.00000000000E+00 -0.00000000000E+00 -0.45593999997E+02  0.45594000000E+02  0.51100000000E-03 0.  1.
    9900012    2    1    2    0    0  0.14901345757E+02  0.79447605378E+01  0.80937988994E+01  0.72461577331E+02  0.70000009166E+02 0.  0.
         12    1    1    2    0    0 -0.14901345757E+02 -0.79447605378E+01 -0.80937988994E+01  0.18726422669E+02  0.00000000000E+00 0. -1.
         11    1    3    3    0    0 -0.12269187654E+02 -0.84484836695E+01 -0.14174615379E+02  0.20562819928E+02  0.51100000000E-03 0. -1.
        -11    1    3    3    0    0 -0.35114278943E+01 -0.56374823338E+00 -0.59262114663E+01  0.69114340431E+01  0.51100000000E-03 0.  1.
        -12    1    3    3    0    0  0.30681961305E+02  0.16956992441E+02  0.28194625745E+02  0.44987323359E+02  0.00000000000E+00 0.  1.
</event>
<event>
 7    1  0.2886818E-013  0.7246157E+02  0.7816164E-02  0.1226708E+00
        -11   -1    0    0    0    0  0.00000000000E+00  0.00000000000E+00  0.45593999997E+02  0.45594000000E+02  0.51100000000E-03 0.  1.
         11   -1    0    0    0    0 -0.00000000000E+00 -0.00000000000E+00 -0.45593999997E+02  0.45594000000E+02  0.51100000000E-03 0. -1.
    9900012    2    1    2    0    0  0.16201490766E+02 -0.45284077951E+01  0.82270594096E+01  0.72461567165E+02  0.69999995924E+02 0.  0.
         12    1    1    2    0    0 -0.16201490766E+02  0.45284077951E+01 -0.82270594096E+01  0.18726432835E+02  0.00000000000E+00 0. -1.
         11    1    3    3    0    0  0.84614615596E+01 -0.69379767776E+01 -0.45073970622E+01  0.11834208129E+02  0.51100000000E-03 0. -1.
        -11    1    3    3    0    0  0.16662266479E+02 -0.14771557409E+01  0.33638953105E+02  0.37568501162E+02  0.51100000000E-03 0.  1.
         12    1    3    3    0    0 -0.89222372727E+01  0.38867247234E+01 -0.20904496633E+02  0.23058857875E+02  0.00000000000E+00 0. -1.
</event>
<event>
 7    1  0.2886818E-013  0.7246156E+02  0.7816164E-02  0.1226708E+00
        -11   -1    0    0    0    0  0.00000000000E+00  0.00000000000E+00  0.45593999997E+02  0.45594000000E+02  0.51100000000E-03 0. -1.
         11   -1    0    0    0    0 -0.00000000000E+00 -0.00000000000E+00 -0.45593999997E+02  0.45594000000E+02  0.51100000000E-03 0.  1.
    9900012    2    1    2    0    0  0.16529608900E+02 -0.19800940364E+01  0.85750133009E+01  0.72461558910E+02  0.69999985170E+02 0.  0.
         12    1    1    2    0    0 -0.16529608900E+02  0.19800940364E+01 -0.85750133009E+01  0.18726441090E+02  0.00000000000E+00 0. -1.
         11    1    3    3    0    0 -0.92172630036E+01  0.41026671574E+00 -0.45503110849E+01  0.10287448045E+02  0.51100000000E-03 0. -1.
        -11    1    3    3    0    0 -0.54716993408E+01 -0.28465499525E+01 -0.17429609901E+02  0.18488743654E+02  0.51100000000E-03 0.  1.
        -12    1    3    3    0    0  0.31218571244E+02  0.45618920035E+00  0.30554934287E+02  0.43685367212E+02  0.00000000000E+00 0.  1.
</event>
<event>
 7    1  0.2886818E-013  0.7246158E+02  0.7816164E-02  0.1226708E+00
        -11   -1    0    0    0    0  0.00000000000E+00  0.00000000000E+00  0.45593999997E+02  0.45594000000E+02  0.51100000000E-03 0. -1.
         11   -1    0    0    0    0 -0.00000000000E+00 -0.00000000000E+00 -0.45593999997E+02  0.45594000000E+02  0.51100000000E-03 0.  1.
    9900012    2    1    2    0    0 -0.10989347951E+02  0.13367354866E+02 -0.71572970399E+01  0.72461578948E+02  0.70000011273E+02 0.  0.
         12    1    1    2    0    0  0.10989347951E+02 -0.13367354866E+02  0.71572970399E+01  0.18726421052E+02  0.00000000000E+00 0. -1.
         11    1    3    3    0    0 -0.37169585308E+01  0.41877419139E+01 -0.39817281105E+01  0.68707439237E+01  0.51100000000E-03 0. -1.
        -11    1    3    3    0    0 -0.14808104697E+02  0.15565137232E+02 -0.30060753283E+02  0.36948644766E+02  0.51100000000E-03 0.  1.
         12    1    3    3    0    0  0.75357152773E+01 -0.63855242801E+01  0.26885184354E+02  0.28642190259E+02  0.00000000000E+00 0. -1.
</event>
<event>
 7    1  0.2886818E-013  0.7246159E+02  0.7816164E-02  0.1226708E+00
        -11   -1    0    0    0    0  0.00000000000E+00  0.00000000000E+00  0.45593999997E+02  0.45594000000E+02  0.51100000000E-03 0. -1.
         11   -1    0    0    0    0 -0.00000000000E+00 -0.00000000000E+00 -0.45593999997E+02  0.45594000000E+02  0.51100000000E-03 0.  1.
    9900012    2    1    2    0    0  0.17418160666E+02  0.36777380692E+01  0.58103642282E+01  0.72461590554E+02  0.70000026391E+02 0.  0.
         12    1    1    2    0    0 -0.17418160666E+02 -0.36777380692E+01 -0.58103642282E+01  0.18726409446E+02  0.00000000000E+00 0. -1.
         11    1    3    3    0    0 -0.78089279690E+01  0.11121298536E+02  0.96169661559E+01  0.16647782899E+02  0.51100000000E-03 0. -1.
        -11    1    3    3    0    0  0.29087132483E+02  0.15070751699E+02 -0.75682501735E+00  0.32768302019E+02  0.51100000000E-03 0.  1.
         12    1    3    3    0    0 -0.38600438483E+01 -0.22514312165E+02 -0.30497769103E+01  0.23045505635E+02  0.00000000000E+00 0. -1.
</event>
<event>
 7    1  0.2886818E-013  0.7246157E+02  0.7816164E-02  0.1226708E+00
        -11   -1    0    0    0    0  0.00000000000E+00  0.00000000000E+00  0.45593999997E+02  0.45594000000E+02  0.51100000000E-03 0. -1.
         11   -1    0    0    0    0 -0.00000000000E+00 -0.00000000000E+00 -0.45593999997E+02  0.45594000000E+02  0.51100000000E-03 0.  1.
    9900012    2    1    2    0    0  0.58959163544E+01 -0.47306013852E+01 -0.17132972828E+02  0.72461570094E+02  0.69999999739E+02 0.  0.
         12    1    1    2    0    0 -0.58959163544E+01  0.47306013852E+01  0.17132972828E+02  0.18726429906E+02  0.00000000000E+00 0. -1.
         11    1    3    3    0    0  0.87425266404E+01 -0.11928505777E+02  0.17543353036E+02  0.22945375528E+02  0.51100000000E-03 0. -1.
        -11    1    3    3    0    0  0.14229196042E+02  0.19138179647E+01 -0.56529654185E+01  0.15430124351E+02  0.51100000000E-03 0.  1.
        -12    1    3    3    0    0 -0.17075806328E+02  0.52840864270E+01 -0.29023360445E+02  0.34086070214E+02  0.00000000000E+00 0.  1.
</event>
<event>
 7    1  0.2886818E-013  0.7246158E+02  0.7816164E-02  0.1226708E+00
        -11   -1    0    0    0    0  0.00000000000E+00  0.00000000000E+00  0.45593999997E+02  0.45594000000E+02  0.51100000000E-03 0.  1.
         11   -1    0    0    0    0 -0.00000000000E+00 -0.00000000000E+00 -0.45593999997E+02  0.45594000000E+02  0.51100000000E-03 0. -1.
    9900012    2    1    2    0    0  0.97147229032E+01  0.13877510442E+02 -0.79823408589E+01  0.72461577417E+02  0.70000009279E+02 0.  0.
         12    1    1    2    0    0 -0.97147229032E+01 -0.13877510442E+02  0.79823408589E+01  0.18726422583E+02  0.00000000000E+00 0. -1.
         11    1    3    3    0    0  0.16035311151E+02 -0.16006128621E+01  0.10908258411E+02  0.19459785895E+02  0.51100000000E-03 0. -1.
        -11    1    3    3    0    0  0.63350486879E+01  0.28590863797E+02 -0.41792564598E+01  0.29581016199E+02  0.51100000000E-03 0.  1.
         12    1    3    3    0    0 -0.12655636936E+02 -0.13112740493E+02 -0.14711342810E+02  0.23420775323E+02  0.00000000000E+00 0. -1.
</event>
<event>
 7    1  0.2886818E-013  0.7246152E+02  0.7816164E-02  0.1226708E+00
        -11   -1    0    0    0    0  0.00000000000E+00  0.00000000000E+00  0.45593999997E+02  0.45594000000E+02  0.51100000000E-03 0. -1.
         11   -1    0    0    0    0 -0.00000000000E+00 -0.00000000000E+00 -0.45593999997E+02  0.45594000000E+02  0.51100000000E-03 0.  1.
    9900012    2    1    2    0    0  0.14923859755E+02  0.99109064104E+01  0.54528392926E+01  0.72461518424E+02  0.69999932429E+02 0.  0.
         12    1    1    2    0    0 -0.14923859755E+02 -0.99109064104E+01 -0.54528392926E+01  0.18726481576E+02  0.00000000000E+00 0. -1.
         11    1    3    3    0    0 -0.86699418583E+01 -0.60072627491E+01 -0.16923125739E+02  0.19941095321E+02  0.51100000000E-03 0. -1.
        -11    1    3    3    0    0  0.11667324254E+02  0.11165356806E+02 -0.90931561144E+01  0.18533136169E+02  0.51100000000E-03 0.  1.
         12    1    3    3    0    0  0.11926477359E+02  0.47528123533E+01  0.31469121146E+02  0.33987286934E+02  0.00000000000E+00 0. -1.
</event>
<event>
 7    1  0.2886818E-013  0.7246158E+02  0.7816164E-02  0.1226708E+00
        -11   -1    0    0    0    0  0.00000000000E+00  0.00000000000E+00  0.45593999997E+02  0.45594000000E+02  0.51100000000E-03 0. -1.
         11   -1    0    0    0    0 -0.00000000000E+00 -0.00000000000E+00 -0.45593999997E+02  0.45594000000E+02  0.51100000000E-03 0.  1.
    9900012    2    1    2    0    0  0.50677258290E+01  0.12650507167E+02 -0.12843733197E+02  0.72461583923E+02  0.70000017754E+02 0.  0.
         12    1    1    2    0    0 -0.50677258290E+01 -0.12650507167E+02  0.12843733197E+02  0.18726416077E+02  0.00000000000E+00 0. -1.
         11    1    3    3    0    0 -0.64050827382E+01  0.32415019833E+02 -0.23353027093E+00  0.33042595726E+02  0.51100000000E-03 0. -1.
        -11    1    3    3    0    0 -0.89391939863E+01 -0.64384297381E+01  0.17079629406E+01  0.11148080744E+02  0.51100000000E-03 0.  1.
        -12    1    3    3    0    0  0.20412002553E+02 -0.13326082928E+02 -0.14318165866E+02  0.28270907453E+02  0.00000000000E+00 0.  1.
</event>
<event>
 7    1  0.2886818E-013  0.7246141E+02  0.7816164E-02  0.1226708E+00
        -11   -1    0    0    0    0  0.00000000000E+00  0.00000000000E+00  0.45593999997E+02  0.45594000000E+02  0.51100000000E-03 0. -1.
         11   -1    0    0    0    0 -0.00000000000E+00 -0.00000000000E+00 -0.45593999997E+02  0.45594000000E+02  0.51100000000E-03 0.  1.
    9900012    2    1    2    0    0 -0.28473219255E+01 -0.13453287058E+02 -0.12711684766E+02  0.72461411832E+02  0.69999793573E+02 0.  0.
         12    1    1    2    0    0  0.28473219255E+01  0.13453287058E+02  0.12711684766E+02  0.18726588168E+02  0.00000000000E+00 0. -1.
         11    1    3    3    0    0 -0.15230304257E+01  0.14167955541E+02  0.14915991128E+02  0.20628557329E+02  0.51100000000E-03 0. -1.
        -11    1    3    3    0    0  0.10307099174E+02  0.32837779817E+01 -0.74483492258E+01  0.13133826467E+02  0.51100000000E-03 0.  1.
         12    1    3    3    0    0 -0.11631390674E+02 -0.30905020581E+02 -0.20179326669E+02  0.38699028036E+02  0.00000000000E+00 0. -1.
</event>
<event>
 7    1  0.2886818E-013  0.7246158E+02  0.7816164E-02  0.1226708E+00
        -11   -1    0    0    0    0  0.00000000000E+00  0.00000000000E+00  0.45593999997E+02  0.45594000000E+02  0.51100000000E-03 0. -1.
         11   -1    0    0    0    0 -0.00000000000E+00 -0.00000000000E+00 -0.45593999997E+02  0.45594000000E+02  0.51100000000E-03 0.  1.
    9900012    2    1    2    0    0 -0.10450231672E+01 -0.10344446749E+02 -0.15574953937E+02  0.72461579037E+02  0.70000011389E+02 0.  0.
         12    1    1    2    0    0  0.10450231672E+01  0.10344446749E+02  0.15574953937E+02  0.18726420963E+02  0.00000000000E+00 0. -1.
         11    1    3    3    0    0 -0.21382021240E+02 -0.34519628351E+01 -0.88509270836E+01  0.23397559493E+02  0.51100000000E-03 0. -1.
        -11    1    3    3    0    0 -0.98003161042E+01  0.37474751051E+01  0.86499213402E+01  0.13598194912E+02  0.51100000000E-03 0.  1.
        -12    1    3    3    0    0  0.30137314177E+02 -0.10639959018E+02 -0.15373948194E+02  0.35465824632E+02  0.00000000000E+00 0.  1.
</event>
<event>
 7    1  0.2886818E-013  0.7246158E+02  0.7816164E-02  0.1226708E+00
        -11   -1    0    0    0    0  0.00000000000E+00  0.00000000000E+00  0.45593999997E+02  0.45594000000E+02  0.51100000000E-03 0.  1.
         11   -1    0    0    0    0 -0.00000000000E+00 -0.00000000000E+00 -0.45593999997E+02  0.45594000000E+02  0.51100000000E-03 0. -1.
    9900012    2    1    2    0    0  0.14327477574E+02  0.11839677080E+02 -0.22856825604E+01  0.72461577177E+02  0.70000008965E+02 0.  0.
         12    1    1    2    0    0 -0.14327477574E+02 -0.11839677080E+02  0.22856825604E+01  0.18726422823E+02  0.00000000000E+00 0. -1.
         11    1    3    3    0    0 -0.11610333739E+02 -0.54172990608E+01  0.61267505429E+01  0.14201551011E+02  0.51100000000E-03 0. -1.
        -11    1    3    3    0    0  0.13160530029E+01  0.14290957950E+01  0.18437822682E+02  0.18539892551E+02  0.51100000000E-03 0.  1.
         12    1    3    3    0    0  0.24621758311E+02  0.15827880346E+02 -0.26850255785E+02  0.39720133614E+02  0.00000000000E+00 0. -1.
</event>
<event>
 7    1  0.2886818E-013  0.7246162E+02  0.7816164E-02  0.1226708E+00
        -11   -1    0    0    0    0  0.00000000000E+00  0.00000000000E+00  0.45593999997E+02  0.45594000000E+02  0.51100000000E-03 0. -1.
         11   -1    0    0    0    0 -0.00000000000E+00 -0.00000000000E+00 -0.45593999997E+02  0.45594000000E+02  0.51100000000E-03 0.  1.
    9900012    2    1    2    0    0  0.72970093885E+01  0.11555864798E+02 -0.12802063043E+02  0.72461623538E+02  0.70000069360E+02 0.  0.
         12    1    1    2    0    0 -0.72970093885E+01 -0.11555864798E+02  0.12802063043E+02  0.18726376462E+02  0.00000000000E+00 0. -1.
         11    1    3    3    0    0 -0.19159210953E+01 -0.80717249386E+00  0.21066398620E+02  0.21168737141E+02  0.51100000000E-03 0. -1.
        -11    1    3    3    0    0  0.42819429330E+01  0.66815873438E+01  0.64822692894E+01  0.10246875627E+02  0.51100000000E-03 0.  1.
         12    1    3    3    0    0  0.49309875508E+01  0.56814499478E+01 -0.40350730952E+02  0.41046010770E+02  0.00000000000E+00 0. -1.
</event>
<event>
 7    1  0.2886818E-013  0.7246161E+02  0.7816164E-02  0.1226708E+00
        -11   -1    0    0    0    0  0.00000000000E+00  0.00000000000E+00  0.45593999997E+02  0.45594000000E+02  0.51100000000E-03 0.  1.
         11   -1    0    0    0    0 -0.00000000000E+00 -0.00000000000E+00 -0.45593999997E+02  0.45594000000E+02  0.51100000000E-03 0. -1.
    9900012    2    1    2    0    0 -0.66986199350E+01  0.16085938725E+02 -0.68592221794E+01  0.72461605189E+02  0.70000045457E+02 0.  0.
         12    1    1    2    0    0  0.66986199350E+01 -0.16085938725E+02  0.68592221794E+01  0.18726394811E+02  0.00000000000E+00 0. -1.
         11    1    3    3    0    0  0.80231659298E+01 -0.18780889588E+01 -0.49232180197E-01  0.82401962199E+01  0.51100000000E-03 0. -1.
        -11    1    3    3    0    0 -0.18338584316E+02  0.90261209965E+01  0.24240883187E+02  0.31707963556E+02  0.51100000000E-03 0.  1.
         12    1    3    3    0    0  0.36167984508E+01  0.89379066874E+01 -0.31050873186E+02  0.32513445413E+02  0.00000000000E+00 0. -1.
</event>
<event>
 7    1  0.2886818E-013  0.7246153E+02  0.7816164E-02  0.1226708E+00
        -11   -1    0    0    0    0  0.00000000000E+00  0.00000000000E+00  0.45593999997E+02  0.45594000000E+02  0.51100000000E-03 0. -1.
         11   -1    0    0    0    0 -0.00000000000E+00 -0.00000000000E+00 -0.45593999997E+02  0.45594000000E+02  0.51100000000E-03 0.  1.
    9900012    2    1    2    0    0 -0.14721527192E+02  0.20175457013E+01 -0.11396791541E+02  0.72461529138E+02  0.69999946386E+02 0.  0.
         12    1    1    2    0    0  0.14721527192E+02 -0.20175457013E+01  0.11396791541E+02  0.18726470862E+02  0.00000000000E+00 0. -1.
         11    1    3    3    0    0 -0.16130620079E+02 -0.18778564113E+02  0.92734011808E+01  0.26435342706E+02  0.51100000000E-03 0. -1.
        -11    1    3    3    0    0 -0.13374864477E+01 -0.92669540898E+01 -0.10736304813E+02  0.14245474699E+02  0.51100000000E-03 0.  1.
        -12    1    3    3    0    0  0.27465793343E+01  0.30063063904E+02 -0.99338879088E+01  0.31780711734E+02  0.00000000000E+00 0.  1.
</event>
<event>
 7    1  0.2886818E-013  0.7246160E+02  0.7816164E-02  0.1226708E+00
        -11   -1    0    0    0    0  0.00000000000E+00  0.00000000000E+00  0.45593999997E+02  0.45594000000E+02  0.51100000000E-03 0. -1.
         11   -1    0    0    0    0 -0.00000000000E+00 -0.00000000000E+00 -0.45593999997E+02  0.45594000000E+02  0.51100000000E-03 0.  1.
    9900012    2    1    2    0    0  0.14074584633E+02 -0.98538691364E+01  0.74488508271E+01  0.72461600234E+02  0.70000039002E+02 0.  0.
         12    1    1    2    0    0 -0.14074584633E+02  0.98538691364E+01 -0.74488508271E+01  0.18726399766E+02  0.00000000000E+00 0. -1.
         11    1    3    3    0    0 -0.49929737685E+01  0.72072774924E+01  0.13101764711E+02  0.15764862026E+02  0.51100000000E-03 0. -1.
        -11    1    3    3    0    0  0.19295737291E+01 -0.12537356873E+02  0.21091309222E+02  0.24612027489E+02  0.51100000000E-03 0.  1.
        -12    1    3    3    0    0  0.17137984672E+02 -0.45237897557E+01 -0.26744223106E+02  0.32084710719E+02  0.00000000000E+00 0.  1.
</event>
<event>
 7    1  0.2886818E-013  0.7246156E+02  0.7816164E-02  0.1226708E+00
        -11   -1    0    0    0    0  0.00000000000E+00  0.00000000000E+00  0.45593999997E+02  0.45594000000E+02  0.51100000000E-03 0.  1.
         11   -1    0    0    0    0 -0.00000000000E+00 -0.00000000000E+00 -0.45593999997E+02  0.45594000000E+02  0.51100000000E-03 0. -1.
    9900012    2    1    2    0    0  0.51659068383E+01  0.17998909888E+02  0.17918878217E+00  0.72461562559E+02  0.69999989923E+02 0.  0.
         12    1    1    2    0    0 -0.51659068383E+01 -0.17998909888E+02 -0.17918878217E+00  0.18726437441E+02  0.00000000000E+00 0. -1.
         11    1    3    3    0    0  0.84696937246E+01 -0.33858953031E+00  0.60140457220E+01  0.10393223796E+02  0.51100000000E-03 0. -1.
        -11    1    3    3    0    0  0.13169914636E+02  0.15866139608E+02  0.21669775073E+02  0.29912542345E+02  0.51100000000E-03 0.  1.
         12    1    3    3    0    0 -0.16473701522E+02  0.24713598106E+01 -0.27504632013E+02  0.32155796419E+02  0.00000000000E+00 0. -1.
</event>
<event>
 7    1  0.2886818E-013  0.7246156E+02  0.7816164E-02  0.1226708E+00
        -11   -1    0    0    0    0  0.00000000000E+00  0.00000000000E+00  0.45593999997E+02  0.45594000000E+02  0.51100000000E-03 0.  1.
         11   -1    0    0    0    0 -0.00000000000E+00 -0.00000000000E+00 -0.45593999997E+02  0.45594000000E+02  0.51100000000E-03 0. -1.
    9900012    2    1    2    0    0 -0.16878220196E+02  0.33748114258E+00 -0.81050183967E+01  0.72461560570E+02  0.69999987332E+02 0.  0.
         12    1    1    2    0    0  0.16878220196E+02 -0.33748114258E+00  0.81050183967E+01  0.18726439430E+02  0.00000000000E+00 0. -1.
         11    1    3    3    0    0 -0.19175064787E+02 -0.23970500733E+02  0.21972487638E+01  0.30774923515E+02  0.51100000000E-03 0. -1.
        -11    1    3    3    0    0 -0.13272701307E+02  0.14264739583E+02  0.17827710025E+01  0.19565931311E+02  0.51100000000E-03 0.  1.
         12    1    3    3    0    0  0.15569545898E+02  0.10043242292E+02 -0.12085038163E+02  0.22120705744E+02  0.00000000000E+00 0. -1.
</event>
<event>
 7    1  0.3261079E-013  0.7246159E+02  0.7816164E-02  0.1226708E+00
        -11   -1    0    0    0    0  0.00000000000E+00  0.00000000000E+00  0.45593999997E+02  0.45594000000E+02  0.51100000000E-03 0. -1.
         11   -1    0    0    0    0 -0.00000000000E+00 -0.00000000000E+00 -0.45593999997E+02  0.45594000000E+02  0.51100000000E-03 0.  1.
    9900012    2    1    2    0    0  0.88274275417E+00 -0.16911937685E+02 -0.79928514294E+01  0.72461586969E+02  0.70000021722E+02 0.  0.
         12    1    1    2    0    0 -0.88274275417E+00  0.16911937685E+02  0.79928514294E+01  0.18726413031E+02  0.00000000000E+00 0. -1.
         11    1    3    3    0    0  0.98411293209E+01  0.55503251234E+01  0.34723360653E+00  0.11303738617E+02  0.51100000000E-03 0. -1.
        -11    1    3    3    0    0 -0.13272774494E+00 -0.85015236269E+01 -0.31547463983E+02  0.32673169492E+02  0.51100000000E-03 0.  1.
         12    1    3    3    0    0 -0.88256588218E+01 -0.13960739181E+02  0.23207378948E+02  0.28484678860E+02  0.00000000000E+00 0. -1.
</event>
<event>
 7    1  0.2886818E-013  0.7246158E+02  0.7816164E-02  0.1226708E+00
        -11   -1    0    0    0    0  0.00000000000E+00  0.00000000000E+00  0.45593999997E+02  0.45594000000E+02  0.51100000000E-03 0.  1.
         11   -1    0    0    0    0 -0.00000000000E+00 -0.00000000000E+00 -0.45593999997E+02  0.45594000000E+02  0.51100000000E-03 0. -1.
    9900012    2    1    2    0    0  0.80107460127E+01 -0.14972608118E+02 -0.78947909229E+01  0.72461580981E+02  0.70000013922E+02 0.  0.
         12    1    1    2    0    0 -0.80107460127E+01  0.14972608118E+02  0.78947909229E+01  0.18726419019E+02  0.00000000000E+00 0. -1.
         11    1    3    3    0    0  0.19733998834E+02  0.21189531247E+01 -0.24825494035E+02  0.31784049878E+02  0.51100000000E-03 0. -1.
        -11    1    3    3    0    0  0.53617320255E+01  0.42522178149E+01 -0.23362547415E+01  0.72310174344E+01  0.51100000000E-03 0.  1.
        -12    1    3    3    0    0 -0.17084984847E+02 -0.21343779058E+02  0.19266957853E+02  0.33446513669E+02  0.00000000000E+00 0.  1.
</event>
<event>
 7    1  0.2886818E-013  0.7246161E+02  0.7816164E-02  0.1226708E+00
        -11   -1    0    0    0    0  0.00000000000E+00  0.00000000000E+00  0.45593999997E+02  0.45594000000E+02  0.51100000000E-03 0.  1.
         11   -1    0    0    0    0 -0.00000000000E+00 -0.00000000000E+00 -0.45593999997E+02  0.45594000000E+02  0.51100000000E-03 0. -1.
    9900012    2    1    2    0    0 -0.44134174817E+01 -0.12661296827E+02  0.13072531514E+02  0.72461607625E+02  0.70000048630E+02 0.  0.
         12    1    1    2    0    0  0.44134174817E+01  0.12661296827E+02 -0.13072531514E+02  0.18726392375E+02  0.00000000000E+00 0. -1.
         11    1    3    3    0    0 -0.15928535061E+02 -0.32536542883E+02  0.23071042469E+01  0.36299691214E+02  0.51100000000E-03 0. -1.
        -11    1    3    3    0    0  0.11550073420E+01 -0.50678112313E+01 -0.28363385999E+01  0.59212810735E+01  0.51100000000E-03 0.  1.
        -12    1    3    3    0    0  0.10360110237E+02  0.24943057287E+02  0.13601765867E+02  0.30240635338E+02  0.00000000000E+00 0.  1.
</event>
<event>
 7    1  0.2886818E-013  0.7246157E+02  0.7816164E-02  0.1226708E+00
        -11   -1    0    0    0    0  0.00000000000E+00  0.00000000000E+00  0.45593999997E+02  0.45594000000E+02  0.51100000000E-03 0.  1.
         11   -1    0    0    0    0 -0.00000000000E+00 -0.00000000000E+00 -0.45593999997E+02  0.45594000000E+02  0.51100000000E-03 0. -1.
    9900012    2    1    2    0    0  0.15175004177E+02 -0.57511667729E+01  0.93446439939E+01  0.72461573689E+02  0.70000004422E+02 0.  0.
         12    1    1    2    0    0 -0.15175004177E+02  0.57511667729E+01 -0.93446439939E+01  0.18726426311E+02  0.00000000000E+00 0. -1.
         11    1    3    3    0    0 -0.15259017443E+01 -0.24724242435E+02 -0.75869903969E+01  0.25907121872E+02  0.51100000000E-03 0. -1.
        -11    1    3    3    0    0 -0.83821072630E+01 -0.19710470736E+01 -0.19296935523E+01  0.88243110893E+01  0.51100000000E-03 0.  1.
        -12    1    3    3    0    0  0.25083013184E+02  0.20944122736E+02  0.18861327943E+02  0.37730140728E+02  0.00000000000E+00 0.  1.
</event>
<event>
 7    1  0.2886818E-013  0.7246168E+02  0.7816164E-02  0.1226708E+00
        -11   -1    0    0    0    0  0.00000000000E+00  0.00000000000E+00  0.45593999997E+02  0.45594000000E+02  0.51100000000E-03 0.  1.
         11   -1    0    0    0    0 -0.00000000000E+00 -0.00000000000E+00 -0.45593999997E+02  0.45594000000E+02  0.51100000000E-03 0. -1.
    9900012    2    1    2    0    0 -0.17821427553E+02  0.39741755440E+01  0.41566650014E+01  0.72461675876E+02  0.70000137539E+02 0.  0.
         12    1    1    2    0    0  0.17821427553E+02 -0.39741755440E+01 -0.41566650014E+01  0.18726324124E+02  0.00000000000E+00 0. -1.
         11    1    3    3    0    0 -0.16256741276E+02 -0.25514410113E+02  0.22406470717E+02  0.37647266708E+02  0.51100000000E-03 0. -1.
        -11    1    3    3    0    0 -0.61073348657E+00  0.22748367300E+01 -0.87333594210E+00  0.25120894628E+01  0.51100000000E-03 0.  1.
        -12    1    3    3    0    0 -0.95395279023E+00  0.27213748927E+02 -0.17376469773E+02  0.32302319705E+02  0.00000000000E+00 0.  1.
</event>
<event>
 7    1  0.2886818E-013  0.7246155E+02  0.7816164E-02  0.1226708E+00
        -11   -1    0    0    0    0  0.00000000000E+00  0.00000000000E+00  0.45593999997E+02  0.45594000000E+02  0.51100000000E-03 0. -1.
         11   -1    0    0    0    0 -0.00000000000E+00 -0.00000000000E+00 -0.45593999997E+02  0.45594000000E+02  0.51100000000E-03 0.  1.
    9900012    2    1    2    0    0 -0.39450637029E+01 -0.76619161867E+01 -0.16625624205E+02  0.72461551659E+02  0.69999975724E+02 0.  0.
         12    1    1    2    0    0  0.39450637029E+01  0.76619161867E+01  0.16625624205E+02  0.18726448341E+02  0.00000000000E+00 0. -1.
         11    1    3    3    0    0 -0.15203558635E+02 -0.10700271072E+02 -0.81899201578E+01  0.20315481502E+02  0.51100000000E-03 0. -1.
        -11    1    3    3    0    0 -0.19276031003E+02 -0.15732145380E+01 -0.88352363901E+01  0.21262685097E+02  0.51100000000E-03 0.  1.
         12    1    3    3    0    0  0.30534525936E+02  0.46115694238E+01  0.39953234313E+00  0.30883385060E+02  0.00000000000E+00 0. -1.
</event>
<event>
 7    1  0.2886818E-013  0.7246158E+02  0.7816164E-02  0.1226708E+00
        -11   -1    0    0    0    0  0.00000000000E+00  0.00000000000E+00  0.45593999997E+02  0.45594000000E+02  0.51100000000E-03 0.  1.
         11   -1    0    0    0    0 -0.00000000000E+00 -0.00000000000E+00 -0.45593999997E+02  0.45594000000E+02  0.51100000000E-03 0. -1.
    9900012    2    1    2    0    0  0.48077620053E+01  0.17559468585E+02  0.43851248398E+01  0.72461579297E+02  0.70000011728E+02 0.  0.
         12    1    1    2    0    0 -0.48077620053E+01 -0.17559468585E+02 -0.43851248398E+01  0.18726420703E+02  0.00000000000E+00 0. -1.
         11    1    3    3    0    0  0.34774383124E+02  0.67402238260E+00 -0.38607196612E+00  0.34783057365E+02  0.51100000000E-03 0. -1.
        -11    1    3    3    0    0 -0.82008223518E+01 -0.10327195733E+01 -0.23644275078E+01  0.85971224642E+01  0.51100000000E-03 0.  1.
        -12    1    3    3    0    0 -0.21765798766E+02  0.17918165775E+02  0.71356243137E+01  0.29081399468E+02  0.00000000000E+00 0.  1.
</event>
<event>
 7    1  0.2886818E-013  0.7246157E+02  0.7816164E-02  0.1226708E+00
        -11   -1    0    0    0    0  0.00000000000E+00  0.00000000000E+00  0.45593999997E+02  0.45594000000E+02  0.51100000000E-03 0. -1.
         11   -1    0    0    0    0 -0.00000000000E+00 -0.00000000000E+00 -0.45593999997E+02  0.45594000000E+02  0.51100000000E-03 0.  1.
    9900012    2    1    2    0    0 -0.88628957124E+01  0.14550313063E+02  0.77728069110E+01  0.72461573274E+02  0.70000003881E+02 0.  0.
         12    1    1    2    0    0  0.88628957124E+01 -0.14550313063E+02 -0.77728069110E+01  0.18726426726E+02  0.00000000000E+00 0. -1.
         11    1    3    3    0    0 -0.28390104284E+01 -0.79160113257E+01  0.13288556013E+01  0.85140515028E+01  0.51100000000E-03 0. -1.
        -11    1    3    3    0    0 -0.25075414899E+02  0.12015483877E+02 -0.16511465648E+02  0.32338472184E+02  0.51100000000E-03 0.  1.
         12    1    3    3    0    0  0.19051529615E+02  0.10450840513E+02  0.22955416958E+02  0.31609049587E+02  0.00000000000E+00 0. -1.
</event>
<event>
 7    1  0.2886818E-013  0.7246192E+02  0.7816164E-02  0.1226707E+00
        -11   -1    0    0    0    0  0.00000000000E+00  0.00000000000E+00  0.45593999997E+02  0.45594000000E+02  0.51100000000E-03 0. -1.
         11   -1    0    0    0    0 -0.00000000000E+00 -0.00000000000E+00 -0.45593999997E+02  0.45594000000E+02  0.51100000000E-03 0.  1.
    9900012    2    1    2    0    0  0.15851617601E+02  0.20925454242E+01  0.97474843482E+01  0.72461922513E+02  0.70000458829E+02 0.  0.
         12    1    1    2    0    0 -0.15851617601E+02 -0.20925454242E+01 -0.97474843482E+01  0.18726077487E+02  0.00000000000E+00 0. -1.
         11    1    3    3    0    0 -0.61859317743E+01  0.43619893274E+01  0.10856498107E+02  0.13234661092E+02  0.51100000000E-03 0. -1.
        -11    1    3    3    0    0  0.40314250166E+02 -0.19242417774E+01  0.30665162263E+01  0.40476474586E+02  0.51100000000E-03 0.  1.
         12    1    3    3    0    0 -0.18276700791E+02 -0.34520212572E+00 -0.41755299849E+01  0.18750786836E+02  0.00000000000E+00 0. -1.
</event>
<event>
 7    1  0.2886818E-013  0.7246157E+02  0.7816164E-02  0.1226708E+00
        -11   -1    0    0    0    0  0.00000000000E+00  0.00000000000E+00  0.45593999997E+02  0.45594000000E+02  0.51100000000E-03 0. -1.
         11   -1    0    0    0    0 -0.00000000000E+00 -0.00000000000E+00 -0.45593999997E+02  0.45594000000E+02  0.51100000000E-03 0.  1.
    9900012    2    1    2    0    0 -0.12569464557E+02 -0.66091305511E+01 -0.12206852024E+02  0.72461567284E+02  0.69999996079E+02 0.  0.
         12    1    1    2    0    0  0.12569464557E+02  0.66091305511E+01  0.12206852024E+02  0.18726432716E+02  0.00000000000E+00 0. -1.
         11    1    3    3    0    0 -0.17482509939E+02  0.33031329800E+01  0.11876399260E+02  0.21391533393E+02  0.51100000000E-03 0. -1.
        -11    1    3    3    0    0 -0.36048145356E+01 -0.51223776238E+00  0.12148203042E+02  0.12682109949E+02  0.51100000000E-03 0.  1.
        -12    1    3    3    0    0  0.85178599173E+01 -0.94000257688E+01 -0.36231454326E+02  0.38387923942E+02  0.00000000000E+00 0.  1.
</event>
<event>
 7    1  0.2886818E-013  0.7246148E+02  0.7816164E-02  0.1226708E+00
        -11   -1    0    0    0    0  0.00000000000E+00  0.00000000000E+00  0.45593999997E+02  0.45594000000E+02  0.51100000000E-03 0. -1.
         11   -1    0    0    0    0 -0.00000000000E+00 -0.00000000000E+00 -0.45593999997E+02  0.45594000000E+02  0.51100000000E-03 0.  1.
    9900012    2    1    2    0    0  0.13623085926E+02 -0.42146998350E+00  0.12841986585E+02  0.72461475321E+02  0.69999876280E+02 0.  0.
         12    1    1    2    0    0 -0.13623085926E+02  0.42146998350E+00 -0.12841986585E+02  0.18726524679E+02  0.00000000000E+00 0. -1.
         11    1    3    3    0    0  0.68651037702E+01  0.47575427926E+01  0.12389553871E+02  0.14942051685E+02  0.51100000000E-03 0. -1.
        -11    1    3    3    0    0  0.96466278706E+01 -0.15028824694E+02  0.25108701615E+02  0.30811846715E+02  0.51100000000E-03 0.  1.
        -12    1    3    3    0    0 -0.28886457148E+01  0.98498119175E+01 -0.24656268901E+02  0.26707576921E+02  0.00000000000E+00 0.  1.
</event>
<event>
 7    1  0.2886818E-013  0.7246153E+02  0.7816164E-02  0.1226708E+00
        -11   -1    0    0    0    0  0.00000000000E+00  0.00000000000E+00  0.45593999997E+02  0.45594000000E+02  0.51100000000E-03 0.  1.
         11   -1    0    0    0    0 -0.00000000000E+00 -0.00000000000E+00 -0.45593999997E+02  0.45594000000E+02  0.51100000000E-03 0. -1.
    9900012    2    1    2    0    0  0.17704852718E+02  0.22985104292E+01 -0.56511725295E+01  0.72461529139E+02  0.69999946387E+02 0.  0.
         12    1    1    2    0    0 -0.17704852718E+02 -0.22985104292E+01  0.56511725295E+01  0.18726470861E+02  0.00000000000E+00 0. -1.
         11    1    3    3    0    0  0.15546169245E+02  0.27592574496E+01  0.11202410544E+02  0.19359516578E+02  0.51100000000E-03 0. -1.
        -11    1    3    3    0    0  0.16614935651E+02  0.21809982383E+01  0.12075002598E+02  0.20654745896E+02  0.51100000000E-03 0.  1.
         12    1    3    3    0    0 -0.14456252179E+02 -0.26417452587E+01 -0.28928585672E+02  0.32447266665E+02  0.00000000000E+00 0. -1.
</event>
<event>
 7    1  0.2886818E-013  0.7246157E+02  0.7816164E-02  0.1226708E+00
        -11   -1    0    0    0    0  0.00000000000E+00  0.00000000000E+00  0.45593999997E+02  0.45594000000E+02  0.51100000000E-03 0.  1.
         11   -1    0    0    0    0 -0.00000000000E+00 -0.00000000000E+00 -0.45593999997E+02  0.45594000000E+02  0.51100000000E-03 0. -1.
    9900012    2    1    2    0    0  0.14580884193E+02 -0.10527123209E+02 -0.52208099361E+01  0.72461565121E+02  0.69999993260E+02 0.  0.
         12    1    1    2    0    0 -0.14580884193E+02  0.10527123209E+02  0.52208099361E+01  0.18726434879E+02  0.00000000000E+00 0. -1.
         11    1    3    3    0    0  0.13401767985E+02  0.20465988215E+02 -0.18709308593E+02  0.30797764318E+02  0.51100000000E-03 0. -1.
        -11    1    3    3    0    0  0.12640595086E+02 -0.15240400582E+02  0.85432570541E+01  0.21564825419E+02  0.51100000000E-03 0.  1.
        -12    1    3    3    0    0 -0.11461478878E+02 -0.15752710842E+02  0.49452416029E+01  0.20098975383E+02  0.00000000000E+00 0.  1.
</event>
<event>
 7    1  0.2886818E-013  0.7246161E+02  0.7816164E-02  0.1226708E+00
        -11   -1    0    0    0    0  0.00000000000E+00  0.00000000000E+00  0.45593999997E+02  0.45594000000E+02  0.51100000000E-03 0.  1.
         11   -1    0    0    0    0 -0.00000000000E+00 -0.00000000000E+00 -0.45593999997E+02  0.45594000000E+02  0.51100000000E-03 0. -1.
    9900012    2    1    2    0    0  0.12905322065E+02  0.39259201224E+01  0.12989129157E+02  0.72461610528E+02  0.70000052411E+02 0.  0.
         12    1    1    2    0    0 -0.12905322065E+02 -0.39259201224E+01 -0.12989129157E+02  0.18726389472E+02  0.00000000000E+00 0. -1.
         11    1    3    3    0    0 -0.26008286091E+01  0.42719539339E+01  0.15673567447E+02  0.16452191849E+02  0.51100000000E-03 0. -1.
        -11    1    3    3    0    0  0.33731389612E+02  0.39976458325E+01  0.73532497807E+01  0.34754252977E+02  0.51100000000E-03 0.  1.
         12    1    3    3    0    0 -0.18225238938E+02 -0.43436796440E+01 -0.10037688070E+02  0.21255165702E+02  0.00000000000E+00 0. -1.
</event>
<event>
 7    1  0.2886818E-013  0.7246158E+02  0.7816164E-02  0.1226708E+00
        -11   -1    0    0    0    0  0.00000000000E+00  0.00000000000E+00  0.45593999997E+02  0.45594000000E+02  0.51100000000E-03 0. -1.
         11   -1    0    0    0    0 -0.00000000000E+00 -0.00000000000E+00 -0.45593999997E+02  0.45594000000E+02  0.51100000000E-03 0.  1.
    9900012    2    1    2    0    0  0.80207727037E+01 -0.28887662831E+01 -0.16673361096E+02  0.72461581879E+02  0.70000015091E+02 0.  0.
         12    1    1    2    0    0 -0.80207727037E+01  0.28887662831E+01  0.16673361096E+02  0.18726418121E+02  0.00000000000E+00 0. -1.
         11    1    3    3    0    0  0.72906171423E+00  0.72065399183E+01 -0.21235544675E+02  0.22436891640E+02  0.51100000000E-03 0. -1.
        -11    1    3    3    0    0  0.56684636105E+01 -0.13402927109E+02 -0.20252148054E+02  0.24938312611E+02  0.51100000000E-03 0.  1.
         12    1    3    3    0    0  0.16232473790E+01  0.33076209076E+01  0.24814331633E+02  0.25086377628E+02  0.00000000000E+00 0. -1.
</event>
<event>
 7    1  0.2886818E-013  0.7246154E+02  0.7816164E-02  0.1226708E+00
        -11   -1    0    0    0    0  0.00000000000E+00  0.00000000000E+00  0.45593999997E+02  0.45594000000E+02  0.51100000000E-03 0. -1.
         11   -1    0    0    0    0 -0.00000000000E+00 -0.00000000000E+00 -0.45593999997E+02  0.45594000000E+02  0.51100000000E-03 0.  1.
    9900012    2    1    2    0    0 -0.35982132845E+01  0.13701159096E+02 -0.12247907168E+02  0.72461544665E+02  0.69999966613E+02 0.  0.
         12    1    1    2    0    0  0.35982132845E+01 -0.13701159096E+02  0.12247907168E+02  0.18726455335E+02  0.00000000000E+00 0. -1.
         11    1    3    3    0    0  0.18624357828E+02  0.90318970026E+01 -0.43640689468E+00  0.20703437376E+02  0.51100000000E-03 0. -1.
        -11    1    3    3    0    0 -0.30495499123E+02 -0.17074926035E+01  0.59836541749E+01  0.31123867293E+02  0.51100000000E-03 0.  1.
         12    1    3    3    0    0  0.82729280108E+01  0.63767546967E+01 -0.17795154449E+02  0.20634239995E+02  0.00000000000E+00 0. -1.
</event>
<event>
 7    1  0.2886818E-013  0.7246158E+02  0.7816164E-02  0.1226708E+00
        -11   -1    0    0    0    0  0.00000000000E+00  0.00000000000E+00  0.45593999997E+02  0.45594000000E+02  0.51100000000E-03 0.  1.
         11   -1    0    0    0    0 -0.00000000000E+00 -0.00000000000E+00 -0.45593999997E+02  0.45594000000E+02  0.51100000000E-03 0. -1.
    9900012    2    1    2    0    0  0.16291467651E+02 -0.43426935339E+01  0.81491155095E+01  0.72461575116E+02  0.70000006281E+02 0.  0.
         12    1    1    2    0    0 -0.16291467651E+02  0.43426935339E+01 -0.81491155095E+01  0.18726424884E+02  0.00000000000E+00 0. -1.
         11    1    3    3    0    0  0.14656147097E+02  0.32438160013E+01 -0.15217343849E+02  0.21375044891E+02  0.51100000000E-03 0. -1.
        -11    1    3    3    0    0  0.65496281708E+01 -0.76845529935E+01 -0.11827380041E+02  0.15551106159E+02  0.51100000000E-03 0.  1.
        -12    1    3    3    0    0 -0.49143076166E+01  0.98043458232E-01  0.35193839400E+02  0.35535424066E+02  0.00000000000E+00 0.  1.
</event>
<event>
 7    1  0.2886818E-013  0.7246160E+02  0.7816164E-02  0.1226708E+00
        -11   -1    0    0    0    0  0.00000000000E+00  0.00000000000E+00  0.45593999997E+02  0.45594000000E+02  0.51100000000E-03 0. -1.
         11   -1    0    0    0    0 -0.00000000000E+00 -0.00000000000E+00 -0.45593999997E+02  0.45594000000E+02  0.51100000000E-03 0.  1.
    9900012    2    1    2    0    0  0.15187463922E+02  0.61304310930E+01 -0.90794796127E+01  0.72461596293E+02  0.70000033868E+02 0.  0.
         12    1    1    2    0    0 -0.15187463922E+02 -0.61304310930E+01  0.90794796127E+01  0.18726403707E+02  0.00000000000E+00 0. -1.
         11    1    3    3    0    0  0.33854071479E+01  0.19955169537E+02 -0.25062533754E+01  0.20394878746E+02  0.51100000000E-03 0. -1.
        -11    1    3    3    0    0  0.26451350163E+02  0.58198352317E+01 -0.21895340158E+01  0.27172384272E+02  0.51100000000E-03 0.  1.
         12    1    3    3    0    0 -0.14649293389E+02 -0.19644573676E+02 -0.43836922215E+01  0.24894333275E+02  0.00000000000E+00 0. -1.
</event>
<event>
 7    1  0.2886818E-013  0.7246148E+02  0.7816164E-02  0.1226708E+00
        -11   -1    0    0    0    0  0.00000000000E+00  0.00000000000E+00  0.45593999997E+02  0.45594000000E+02  0.51100000000E-03 0.  1.
         11   -1    0    0    0    0 -0.00000000000E+00 -0.00000000000E+00 -0.45593999997E+02  0.45594000000E+02  0.51100000000E-03 0. -1.
    9900012    2    1    2    0    0 -0.17170924133E+02 -0.22762168670E+01 -0.71176483513E+01  0.72461475580E+02  0.69999876616E+02 0.  0.
         12    1    1    2    0    0  0.17170924133E+02  0.22762168670E+01  0.71176483513E+01  0.18726524420E+02  0.00000000000E+00 0. -1.
         11    1    3    3    0    0  0.86460090401E+01 -0.14388973069E+01  0.93313284558E+01  0.12802249365E+02  0.51100000000E-03 0. -1.
        -11    1    3    3    0    0 -0.79336199669E+01 -0.11455518824E+02  0.15937225041E+02  0.21169940472E+02  0.51100000000E-03 0.  1.
         12    1    3    3    0    0 -0.17883313206E+02  0.10618199264E+02 -0.32386201848E+02  0.38489285743E+02  0.00000000000E+00 0. -1.
</event>
<event>
 7    1  0.2886818E-013  0.7246159E+02  0.7816164E-02  0.1226708E+00
        -11   -1    0    0    0    0  0.00000000000E+00  0.00000000000E+00  0.45593999997E+02  0.45594000000E+02  0.51100000000E-03 0. -1.
         11   -1    0    0    0    0 -0.00000000000E+00 -0.00000000000E+00 -0.45593999997E+02  0.45594000000E+02  0.51100000000E-03 0.  1.
    9900012    2    1    2    0    0  0.77456766055E+01  0.52204147131E+01 -0.16230529497E+02  0.72461592881E+02  0.70000029423E+02 0.  0.
         12    1    1    2    0    0 -0.77456766055E+01 -0.52204147131E+01  0.16230529497E+02  0.18726407119E+02  0.00000000000E+00 0. -1.
         11    1    3    3    0    0 -0.94943982797E+00  0.13862593992E+02 -0.29101613755E+02  0.32248672401E+02  0.51100000000E-03 0. -1.
        -11    1    3    3    0    0 -0.74915594941E+01  0.55481508157E+01 -0.64106562040E+01  0.11313794870E+02  0.51100000000E-03 0.  1.
         12    1    3    3    0    0  0.16186675928E+02 -0.14190330094E+02  0.19281740463E+02  0.28899125610E+02  0.00000000000E+00 0. -1.
</event>
<event>
 7    1  0.2886818E-013  0.7246155E+02  0.7816164E-02  0.1226708E+00
        -11   -1    0    0    0    0  0.00000000000E+00  0.00000000000E+00  0.45593999997E+02  0.45594000000E+02  0.51100000000E-03 0. -1.
         11   -1    0    0    0    0 -0.00000000000E+00 -0.00000000000E+00 -0.45593999997E+02  0.45594000000E+02  0.51100000000E-03 0.  1.
    9900012    2    1    2    0    0 -0.16986932546E+02  0.74285269449E+01 -0.26346205284E+01  0.72461545043E+02  0.69999967106E+02 0.  0.
         12    1    1    2    0    0  0.16986932546E+02 -0.74285269449E+01  0.26346205284E+01  0.18726454957E+02  0.00000000000E+00 0. -1.
         11    1    3    3    0    0  0.76017280907E+01 -0.95702547381E+01  0.23847018592E+02  0.26796573320E+02  0.51100000000E-03 0. -1.
        -11    1    3    3    0    0  0.10508005742E+01  0.82263751592E+01 -0.80252190902E+00  0.83319548596E+01  0.51100000000E-03 0.  1.
        -12    1    3    3    0    0 -0.25639461211E+02  0.87724065238E+01 -0.25679117211E+02  0.37333016864E+02  0.00000000000E+00 0.  1.
</event>
<event>
 7    1  0.2886818E-013  0.7246158E+02  0.7816164E-02  0.1226708E+00
        -11   -1    0    0    0    0  0.00000000000E+00  0.00000000000E+00  0.45593999997E+02  0.45594000000E+02  0.51100000000E-03 0.  1.
         11   -1    0    0    0    0 -0.00000000000E+00 -0.00000000000E+00 -0.45593999997E+02  0.45594000000E+02  0.51100000000E-03 0. -1.
    9900012    2    1    2    0    0  0.13988706456E+01  0.10375470346E+02  0.15526482338E+02  0.72461578084E+02  0.70000010147E+02 0.  0.
         12    1    1    2    0    0 -0.13988706456E+01 -0.10375470346E+02 -0.15526482338E+02  0.18726421916E+02  0.00000000000E+00 0. -1.
         11    1    3    3    0    0  0.14622809318E+01  0.89157214422E+01  0.12194638760E+02  0.15176876132E+02  0.51100000000E-03 0. -1.
        -11    1    3    3    0    0  0.19549099546E+02 -0.11694400815E+02  0.18390373152E+02  0.29276818960E+02  0.51100000000E-03 0.  1.
         12    1    3    3    0    0 -0.19612509833E+02  0.13154149719E+02 -0.15058529574E+02  0.28007882992E+02  0.00000000000E+00 0. -1.
</event>
<event>
 7    1  0.2886818E-013  0.7246149E+02  0.7816164E-02  0.1226708E+00
        -11   -1    0    0    0    0  0.00000000000E+00  0.00000000000E+00  0.45593999997E+02  0.45594000000E+02  0.51100000000E-03 0.  1.
         11   -1    0    0    0    0 -0.00000000000E+00 -0.00000000000E+00 -0.45593999997E+02  0.45594000000E+02  0.51100000000E-03 0. -1.
    9900012    2    1    2    0    0  0.98378286009E+01  0.15772717795E+02  0.22628610279E+01  0.72461493698E+02  0.69999900219E+02 0.  0.
         12    1    1    2    0    0 -0.98378286009E+01 -0.15772717795E+02 -0.22628610279E+01  0.18726506302E+02  0.00000000000E+00 0. -1.
         11    1    3    3    0    0 -0.10600362015E+02 -0.24343180687E+01  0.50261272232E+01  0.11981466289E+02  0.51100000000E-03 0. -1.
        -11    1    3    3    0    0  0.12333034795E+02 -0.12390426124E+02  0.15987504632E+02  0.23690223963E+02  0.51100000000E-03 0.  1.
         12    1    3    3    0    0  0.81051558215E+01  0.30597461989E+02 -0.18750770827E+02  0.36789803447E+02  0.00000000000E+00 0. -1.
</event>
<event>
 7    1  0.2886818E-013  0.7246160E+02  0.7816164E-02  0.1226708E+00
        -11   -1    0    0    0    0  0.00000000000E+00  0.00000000000E+00  0.45593999997E+02  0.45594000000E+02  0.51100000000E-03 0.  1.
         11   -1    0    0    0    0 -0.00000000000E+00 -0.00000000000E+00 -0.45593999997E+02  0.45594000000E+02  0.51100000000E-03 0. -1.
    9900012    2    1    2    0    0 -0.15782856464E+02 -0.10064781079E+02 -0.52900408539E+00  0.72461595603E+02  0.70000032969E+02 0.  0.
         12    1    1    2    0    0  0.15782856464E+02  0.10064781079E+02  0.52900408539E+00  0.18726404397E+02  0.00000000000E+00 0. -1.
         11    1    3    3    0    0 -0.19547608752E+02 -0.12594836602E+02 -0.48299296933E+00  0.23258809072E+02  0.51100000000E-03 0. -1.
        -11    1    3    3    0    0 -0.31770734654E+00 -0.43591905091E+01  0.23722359147E+02  0.24121645956E+02  0.51100000000E-03 0.  1.
         12    1    3    3    0    0  0.40824596347E+01  0.68892460323E+01 -0.23768370264E+02  0.25081140575E+02  0.00000000000E+00 0. -1.
</event>
<event>
 7    1  0.2886818E-013  0.7246151E+02  0.7816164E-02  0.1226708E+00
        -11   -1    0    0    0    0  0.00000000000E+00  0.00000000000E+00  0.45593999997E+02  0.45594000000E+02  0.51100000000E-03 0.  1.
         11   -1    0    0    0    0 -0.00000000000E+00 -0.00000000000E+00 -0.45593999997E+02  0.45594000000E+02  0.51100000000E-03 0. -1.
    9900012    2    1    2    0    0  0.90695513430E+01 -0.64581331978E+01  0.15057129305E+02  0.72461511037E+02  0.69999922806E+02 0.  0.
         12    1    1    2    0    0 -0.90695513430E+01  0.64581331978E+01 -0.15057129305E+02  0.18726488963E+02  0.00000000000E+00 0. -1.
         11    1    3    3    0    0  0.12093185675E+02 -0.67837938598E+00  0.11091587865E+02  0.16423418036E+02  0.51100000000E-03 0. -1.
        -11    1    3    3    0    0 -0.21889615753E+01 -0.11247931869E+02  0.28589522903E+02  0.30800460129E+02  0.51100000000E-03 0.  1.
         12    1    3    3    0    0 -0.83467275657E+00  0.54681780570E+01 -0.24623981463E+02  0.25237632871E+02  0.00000000000E+00 0. -1.
</event>
<event>
 7    1  0.2886818E-013  0.7246138E+02  0.7816164E-02  0.1226709E+00
        -11   -1    0    0    0    0  0.00000000000E+00  0.00000000000E+00  0.45593999997E+02  0.45594000000E+02  0.51100000000E-03 0.  1.
         11   -1    0    0    0    0 -0.00000000000E+00 -0.00000000000E+00 -0.45593999997E+02  0.45594000000E+02  0.51100000000E-03 0. -1.
    9900012    2    1    2    0    0 -0.72006640016E+01 -0.16968184511E+02  0.33041333485E+01  0.72461384052E+02  0.69999757385E+02 0.  0.
         12    1    1    2    0    0  0.72006640016E+01  0.16968184511E+02 -0.33041333485E+01  0.18726615948E+02  0.00000000000E+00 0. -1.
         11    1    3    3    0    0  0.20675623713E+02 -0.19317123727E+02 -0.51611489165E+00  0.28300160067E+02  0.51100000000E-03 0. -1.
        -11    1    3    3    0    0 -0.10085642808E+01  0.11290677938E+02  0.10070728013E+02  0.15162986948E+02  0.51100000000E-03 0.  1.
        -12    1    3    3    0    0 -0.26867723433E+02 -0.89417387218E+01 -0.62504797732E+01  0.28998237037E+02  0.00000000000E+00 0.  1.
</event>
<event>
 7    1  0.2886818E-013  0.7246153E+02  0.7816164E-02  0.1226708E+00
        -11   -1    0    0    0    0  0.00000000000E+00  0.00000000000E+00  0.45593999997E+02  0.45594000000E+02  0.51100000000E-03 0.  1.
         11   -1    0    0    0    0 -0.00000000000E+00 -0.00000000000E+00 -0.45593999997E+02  0.45594000000E+02  0.51100000000E-03 0. -1.
    9900012    2    1    2    0    0  0.14049222299E+02  0.66463764286E+01  0.10446327890E+02  0.72461528543E+02  0.69999945611E+02 0.  0.
         12    1    1    2    0    0 -0.14049222299E+02 -0.66463764286E+01 -0.10446327890E+02  0.18726471457E+02  0.00000000000E+00 0. -1.
         11    1    3    3    0    0 -0.10327486216E+02  0.80450954507E+01 -0.12302092123E+00  0.13091816786E+02  0.51100000000E-03 0. -1.
        -11    1    3    3    0    0 -0.71943894024E+01  0.94622104329E+01  0.21222193968E+02  0.24324353686E+02  0.51100000000E-03 0.  1.
         12    1    3    3    0    0  0.31571097918E+02 -0.10860929455E+02 -0.10652845157E+02  0.35045358071E+02  0.00000000000E+00 0. -1.
</event>
<event>
 7    1  0.2886818E-013  0.7246152E+02  0.7816164E-02  0.1226708E+00
        -11   -1    0    0    0    0  0.00000000000E+00  0.00000000000E+00  0.45593999997E+02  0.45594000000E+02  0.51100000000E-03 0.  1.
         11   -1    0    0    0    0 -0.00000000000E+00 -0.00000000000E+00 -0.45593999997E+02  0.45594000000E+02  0.51100000000E-03 0. -1.
    9900012    2    1    2    0    0  0.14960749839E+02 -0.13420470035E+01  0.11182842878E+02  0.72461518730E+02  0.69999932828E+02 0.  0.
         12    1    1    2    0    0 -0.14960749839E+02  0.13420470035E+01 -0.11182842878E+02  0.18726481270E+02  0.00000000000E+00 0. -1.
         11    1    3    3    0    0  0.11802826461E+01 -0.12261681766E+02  0.13982487197E+02  0.18634694935E+02  0.51100000000E-03 0. -1.
        -11    1    3    3    0    0  0.95112082181E+01  0.16776532049E+01  0.23617490872E+02  0.25515945551E+02  0.51100000000E-03 0.  1.
         12    1    3    3    0    0  0.42692589750E+01  0.92419815573E+01 -0.26417135190E+02  0.28310878244E+02  0.00000000000E+00 0. -1.
</event>
<event>
 7    1  0.2886818E-013  0.7246211E+02  0.7816164E-02  0.1226707E+00
        -11   -1    0    0    0    0  0.00000000000E+00  0.00000000000E+00  0.45593999997E+02  0.45594000000E+02  0.51100000000E-03 0. -1.
         11   -1    0    0    0    0 -0.00000000000E+00 -0.00000000000E+00 -0.45593999997E+02  0.45594000000E+02  0.51100000000E-03 0.  1.
    9900012    2    1    2    0    0  0.83460786929E+01 -0.16201663846E+02 -0.43021040363E+01  0.72462107763E+02  0.70000700149E+02 0.  0.
         12    1    1    2    0    0 -0.83460786929E+01  0.16201663846E+02  0.43021040363E+01  0.18725892237E+02  0.00000000000E+00 0. -1.
         11    1    3    3    0    0 -0.79107333471E+01  0.11088367108E+01  0.13810503706E+02  0.15954285750E+02  0.51100000000E-03 0. -1.
        -11    1    3    3    0    0  0.14271129215E+02  0.15161462738E+02 -0.92908885738E+01  0.22800344124E+02  0.51100000000E-03 0.  1.
         12    1    3    3    0    0  0.19856828254E+01 -0.32471963295E+02 -0.88217191682E+01  0.33707477889E+02  0.00000000000E+00 0. -1.
</event>
<event>
 7    1  0.2886818E-013  0.7246161E+02  0.7816164E-02  0.1226708E+00
        -11   -1    0    0    0    0  0.00000000000E+00  0.00000000000E+00  0.45593999997E+02  0.45594000000E+02  0.51100000000E-03 0.  1.
         11   -1    0    0    0    0 -0.00000000000E+00 -0.00000000000E+00 -0.45593999997E+02  0.45594000000E+02  0.51100000000E-03 0. -1.
    9900012    2    1    2    0    0  0.17477720512E+02  0.17644339891E+01  0.64879659048E+01  0.72461611048E+02  0.70000053089E+02 0.  0.
         12    1    1    2    0    0 -0.17477720512E+02 -0.17644339891E+01 -0.64879659048E+01  0.18726388952E+02  0.00000000000E+00 0. -1.
         11    1    3    3    0    0 -0.55144645790E+01  0.20047139426E+02 -0.19462891496E+02  0.28479839613E+02  0.51100000000E-03 0. -1.
        -11    1    3    3    0    0  0.12417319232E+02  0.17264974563E+01  0.64058966740E+01  0.14078569630E+02  0.51100000000E-03 0.  1.
        -12    1    3    3    0    0  0.10574865859E+02 -0.20009202893E+02  0.19544960726E+02  0.29903201804E+02  0.00000000000E+00 0.  1.
</event>
<event>
 7    1  0.2886818E-013  0.7246157E+02  0.7816164E-02  0.1226708E+00
        -11   -1    0    0    0    0  0.00000000000E+00  0.00000000000E+00  0.45593999997E+02  0.45594000000E+02  0.51100000000E-03 0.  1.
         11   -1    0    0    0    0 -0.00000000000E+00 -0.00000000000E+00 -0.45593999997E+02  0.45594000000E+02  0.51100000000E-03 0. -1.
    9900012    2    1    2    0    0 -0.78064574112E+01 -0.51804964498E+01 -0.16214214106E+02  0.72461573223E+02  0.70000003815E+02 0.  0.
         12    1    1    2    0    0  0.78064574112E+01  0.51804964498E+01  0.16214214106E+02  0.18726426777E+02  0.00000000000E+00 0. -1.
         11    1    3    3    0    0  0.14173212853E+02 -0.13973526034E+02 -0.29970538722E+01  0.20127635842E+02  0.51100000000E-03 0. -1.
        -11    1    3    3    0    0  0.38241534939E+00 -0.16703326641E+02 -0.37415880350E+01  0.17121531580E+02  0.51100000000E-03 0.  1.
        -12    1    3    3    0    0 -0.22362085614E+02  0.25496356225E+02 -0.94755721985E+01  0.35212405800E+02  0.00000000000E+00 0.  1.
</event>
<event>
 7    1  0.2886818E-013  0.7246158E+02  0.7816164E-02  0.1226708E+00
        -11   -1    0    0    0    0  0.00000000000E+00  0.00000000000E+00  0.45593999997E+02  0.45594000000E+02  0.51100000000E-03 0. -1.
         11   -1    0    0    0    0 -0.00000000000E+00 -0.00000000000E+00 -0.45593999997E+02  0.45594000000E+02  0.51100000000E-03 0.  1.
    9900012    2    1    2    0    0  0.41456231514E+01  0.33364740312E+01 -0.17954401468E+02  0.72461580632E+02  0.70000013467E+02 0.  0.
         12    1    1    2    0    0 -0.41456231514E+01 -0.33364740312E+01  0.17954401468E+02  0.18726419368E+02  0.00000000000E+00 0. -1.
         11    1    3    3    0    0  0.27469216846E+02 -0.44219483556E+01 -0.16329681099E+02  0.32260966917E+02  0.51100000000E-03 0.  1.
        -11    1    3    3    0    0 -0.10315986104E+02  0.16392818708E+02  0.89575463754E+01  0.21339674595E+02  0.51100000000E-03 0. -1.
         12    1    3    3    0    0 -0.13007607590E+02 -0.86343963209E+01 -0.10582266744E+02  0.18860939120E+02  0.00000000000E+00 0. -1.
</event>
<event>
 7    1  0.2886818E-013  0.7246191E+02  0.7816164E-02  0.1226707E+00
        -11   -1    0    0    0    0  0.00000000000E+00  0.00000000000E+00  0.45593999997E+02  0.45594000000E+02  0.51100000000E-03 0.  1.
         11   -1    0    0    0    0 -0.00000000000E+00 -0.00000000000E+00 -0.45593999997E+02  0.45594000000E+02  0.51100000000E-03 0. -1.
    9900012    2    1    2    0    0 -0.39660642780E+01 -0.15673514397E+02  0.94486798642E+01  0.72461914702E+02  0.70000448653E+02 0.  0.
         12    1    1    2    0    0  0.39660642780E+01  0.15673514397E+02 -0.94486798642E+01  0.18726085298E+02  0.00000000000E+00 0. -1.
         11    1    3    3    0    0  0.70255957918E+01 -0.70645797755E+01 -0.17773891043E+01  0.10120592667E+02  0.51100000000E-03 0. -1.
        -11    1    3    3    0    0  0.11371772190E+02  0.36317039529E+00  0.29812514653E+02  0.31909796703E+02  0.51100000000E-03 0.  1.
        -12    1    3    3    0    0 -0.22363432259E+02 -0.89721050168E+01 -0.18586445684E+02  0.30431525332E+02  0.00000000000E+00 0.  1.
</event>
<event>
 7    1  0.2886818E-013  0.7246157E+02  0.7816164E-02  0.1226708E+00
        -11   -1    0    0    0    0  0.00000000000E+00  0.00000000000E+00  0.45593999997E+02  0.45594000000E+02  0.51100000000E-03 0.  1.
         11   -1    0    0    0    0 -0.00000000000E+00 -0.00000000000E+00 -0.45593999997E+02  0.45594000000E+02  0.51100000000E-03 0. -1.
    9900012    2    1    2    0    0 -0.64325535676E+01  0.62588776871E+01  0.16435568389E+02  0.72461569385E+02  0.69999998815E+02 0.  0.
         12    1    1    2    0    0  0.64325535676E+01 -0.62588776871E+01 -0.16435568389E+02  0.18726430615E+02  0.00000000000E+00 0. -1.
         11    1    3    3    0    0 -0.50012123376E+01  0.78137645114E+01 -0.14856835329E+01  0.93954401976E+01  0.51100000000E-03 0.  1.
        -11    1    3    3    0    0  0.16752986720E+02  0.23897825839E+02  0.86655602948E+01  0.30444385022E+02  0.51100000000E-03 0. -1.
        -12    1    3    3    0    0 -0.18184327950E+02 -0.25452712663E+02  0.92556916272E+01  0.32621744166E+02  0.00000000000E+00 0.  1.
</event>
<event>
 7    1  0.2886818E-013  0.7246160E+02  0.7816164E-02  0.1226708E+00
        -11   -1    0    0    0    0  0.00000000000E+00  0.00000000000E+00  0.45593999997E+02  0.45594000000E+02  0.51100000000E-03 0. -1.
         11   -1    0    0    0    0 -0.00000000000E+00 -0.00000000000E+00 -0.45593999997E+02  0.45594000000E+02  0.51100000000E-03 0.  1.
    9900012    2    1    2    0    0  0.75702540520E+01  0.11039236213E+02 -0.13095970285E+02  0.72461603649E+02  0.70000043451E+02 0.  0.
         12    1    1    2    0    0 -0.75702540520E+01 -0.11039236213E+02  0.13095970285E+02  0.18726396351E+02  0.00000000000E+00 0. -1.
         11    1    3    3    0    0 -0.66236868438E+00  0.13233479893E+02 -0.59117830339E+01  0.14509062728E+02  0.51100000000E-03 0. -1.
        -11    1    3    3    0    0  0.15372573982E+02 -0.37304705940E+01 -0.30044225031E+02  0.33954202975E+02  0.51100000000E-03 0.  1.
         12    1    3    3    0    0 -0.71399512453E+01  0.15362269135E+01  0.22860037779E+02  0.23998337946E+02  0.00000000000E+00 0. -1.
</event>
<event>
 7    1  0.2886818E-013  0.7246140E+02  0.7816164E-02  0.1226708E+00
        -11   -1    0    0    0    0  0.00000000000E+00  0.00000000000E+00  0.45593999997E+02  0.45594000000E+02  0.51100000000E-03 0.  1.
         11   -1    0    0    0    0 -0.00000000000E+00 -0.00000000000E+00 -0.45593999997E+02  0.45594000000E+02  0.51100000000E-03 0. -1.
    9900012    2    1    2    0    0 -0.10762286770E+02  0.77216355203E+01  0.13237632481E+02  0.72461404331E+02  0.69999783802E+02 0.  0.
         12    1    1    2    0    0  0.10762286770E+02 -0.77216355203E+01 -0.13237632481E+02  0.18726595669E+02  0.00000000000E+00 0. -1.
         11    1    3    3    0    0 -0.16721978151E+02  0.72350020257E+01 -0.12236848232E+02  0.21947898818E+02  0.51100000000E-03 0. -1.
        -11    1    3    3    0    0 -0.34452259608E+01 -0.98632623991E+01 -0.86952861604E+01  0.13592701304E+02  0.51100000000E-03 0.  1.
        -12    1    3    3    0    0  0.94049173409E+01  0.10349895894E+02  0.34169766874E+02  0.36920804209E+02  0.00000000000E+00 0.  1.
</event>
<event>
 7    1  0.2886818E-013  0.7246170E+02  0.7816164E-02  0.1226708E+00
        -11   -1    0    0    0    0  0.00000000000E+00  0.00000000000E+00  0.45593999997E+02  0.45594000000E+02  0.51100000000E-03 0. -1.
         11   -1    0    0    0    0 -0.00000000000E+00 -0.00000000000E+00 -0.45593999997E+02  0.45594000000E+02  0.51100000000E-03 0.  1.
    9900012    2    1    2    0    0 -0.35301433117E+01  0.16778101974E+02 -0.75304520113E+01  0.72461699641E+02  0.70000168498E+02 0.  0.
         12    1    1    2    0    0  0.35301433117E+01 -0.16778101974E+02  0.75304520113E+01  0.18726300359E+02  0.00000000000E+00 0. -1.
         11    1    3    3    0    0  0.38972353175E+01  0.21281060369E+02 -0.12471915625E+02  0.24972397826E+02  0.51100000000E-03 0. -1.
        -11    1    3    3    0    0  0.12561601705E+02  0.13840551982E+02 -0.36240703460E+01  0.19039133454E+02  0.51100000000E-03 0.  1.
         12    1    3    3    0    0 -0.19988980334E+02 -0.18343510377E+02  0.85655339599E+01  0.28450168361E+02  0.00000000000E+00 0. -1.
</event>
<event>
 7    1  0.2886818E-013  0.7246154E+02  0.7816164E-02  0.1226708E+00
        -11   -1    0    0    0    0  0.00000000000E+00  0.00000000000E+00  0.45593999997E+02  0.45594000000E+02  0.51100000000E-03 0.  1.
         11   -1    0    0    0    0 -0.00000000000E+00 -0.00000000000E+00 -0.45593999997E+02  0.45594000000E+02  0.51100000000E-03 0. -1.
    9900012    2    1    2    0    0 -0.15423480889E+02 -0.10441941947E+02  0.19396476377E+01  0.72461544187E+02  0.69999965991E+02 0.  0.
         12    1    1    2    0    0  0.15423480889E+02  0.10441941947E+02 -0.19396476377E+01  0.18726455813E+02  0.00000000000E+00 0. -1.
         11    1    3    3    0    0  0.14102554310E+02 -0.15849435233E+02  0.42182740232E+00  0.21219438585E+02  0.51100000000E-03 0. -1.
        -11    1    3    3    0    0  0.40723718574E+01 -0.85289442700E+01  0.10138269905E+02  0.13860433609E+02  0.51100000000E-03 0.  1.
         12    1    3    3    0    0 -0.33598407056E+02  0.13936437556E+02 -0.86204496699E+01  0.37381671993E+02  0.00000000000E+00 0. -1.
</event>
<event>
 7    1  0.2886818E-013  0.7246157E+02  0.7816164E-02  0.1226708E+00
        -11   -1    0    0    0    0  0.00000000000E+00  0.00000000000E+00  0.45593999997E+02  0.45594000000E+02  0.51100000000E-03 0. -1.
         11   -1    0    0    0    0 -0.00000000000E+00 -0.00000000000E+00 -0.45593999997E+02  0.45594000000E+02  0.51100000000E-03 0.  1.
    9900012    2    1    2    0    0  0.15631218468E+01  0.16767707080E+02 -0.81902369435E+01  0.72461565961E+02  0.69999994355E+02 0.  0.
         12    1    1    2    0    0 -0.15631218468E+01 -0.16767707080E+02  0.81902369435E+01  0.18726434039E+02  0.00000000000E+00 0. -1.
         11    1    3    3    0    0 -0.49996490537E+01 -0.51063541116E+01  0.68191058793E+01  0.98778311499E+01  0.51100000000E-03 0. -1.
        -11    1    3    3    0    0 -0.24333426254E+02  0.80685749051E+01 -0.18021404847E+00  0.25636887714E+02  0.51100000000E-03 0.  1.
         12    1    3    3    0    0  0.30896197155E+02  0.13805486287E+02 -0.14829128774E+02  0.36946847097E+02  0.00000000000E+00 0. -1.
</event>
<event>
 7    1  0.2886818E-013  0.7246160E+02  0.7816164E-02  0.1226708E+00
        -11   -1    0    0    0    0  0.00000000000E+00  0.00000000000E+00  0.45593999997E+02  0.45594000000E+02  0.51100000000E-03 0.  1.
         11   -1    0    0    0    0 -0.00000000000E+00 -0.00000000000E+00 -0.45593999997E+02  0.45594000000E+02  0.51100000000E-03 0. -1.
    9900012    2    1    2    0    0  0.27829481647E+01  0.89196085223E+01  0.16228793467E+02  0.72461602747E+02  0.70000042275E+02 0.  0.
         12    1    1    2    0    0 -0.27829481647E+01 -0.89196085223E+01 -0.16228793467E+02  0.18726397253E+02  0.00000000000E+00 0. -1.
         11    1    3    3    0    0  0.16966153885E+02 -0.15382113049E+01 -0.14050877495E+02  0.22082654512E+02  0.51100000000E-03 0. -1.
        -11    1    3    3    0    0  0.60415588473E+01  0.12856506083E+02  0.39070407106E+00  0.14210659094E+02  0.51100000000E-03 0.  1.
         12    1    3    3    0    0 -0.20224764567E+02 -0.23986862555E+01  0.29888966891E+02  0.36168289141E+02  0.00000000000E+00 0. -1.
</event>
<event>
 7    1  0.2886818E-013  0.7246153E+02  0.7816164E-02  0.1226708E+00
        -11   -1    0    0    0    0  0.00000000000E+00  0.00000000000E+00  0.45593999997E+02  0.45594000000E+02  0.51100000000E-03 0.  1.
         11   -1    0    0    0    0 -0.00000000000E+00 -0.00000000000E+00 -0.45593999997E+02  0.45594000000E+02  0.51100000000E-03 0. -1.
    9900012    2    1    2    0    0 -0.16895554347E+02 -0.77194608523E+01 -0.23729522468E+01  0.72461528498E+02  0.69999945553E+02 0.  0.
         12    1    1    2    0    0  0.16895554347E+02  0.77194608523E+01  0.23729522468E+01  0.18726471502E+02  0.00000000000E+00 0. -1.
         11    1    3    3    0    0 -0.29287574894E+02  0.12986929212E+02 -0.19970161333E+01  0.32100006966E+02  0.51100000000E-03 0. -1.
        -11    1    3    3    0    0 -0.37718488767E+01  0.35179580408E-01 -0.11280258454E+02  0.11894213409E+02  0.51100000000E-03 0.  1.
        -12    1    3    3    0    0  0.16163869424E+02 -0.20741569645E+02  0.10904322341E+02  0.28467308124E+02  0.00000000000E+00 0.  1.
</event>
<event>
 7    1  0.2886818E-013  0.7246154E+02  0.7816164E-02  0.1226708E+00
        -11   -1    0    0    0    0  0.00000000000E+00  0.00000000000E+00  0.45593999997E+02  0.45594000000E+02  0.51100000000E-03 0. -1.
         11   -1    0    0    0    0 -0.00000000000E+00 -0.00000000000E+00 -0.45593999997E+02  0.45594000000E+02  0.51100000000E-03 0.  1.
    9900012    2    1    2    0    0  0.49126399829E+01 -0.18055960252E+02 -0.72698971179E+00  0.72461541545E+02  0.69999962549E+02 0.  0.
         12    1    1    2    0    0 -0.49126399829E+01  0.18055960252E+02  0.72698971179E+00  0.18726458455E+02  0.00000000000E+00 0. -1.
         11    1    3    3    0    0 -0.10236971635E+02 -0.22885400387E+01  0.21000936058E+02  0.23474929591E+02  0.51100000000E-03 0. -1.
        -11    1    3    3    0    0  0.13893326932E+02 -0.85925614256E+01  0.81342501183E+01  0.18248908744E+02  0.51100000000E-03 0.  1.
         12    1    3    3    0    0  0.12562846853E+01 -0.71748587878E+01 -0.29862175888E+02  0.30737703210E+02  0.00000000000E+00 0. -1.
</event>
<event>
 7    1  0.2886818E-013  0.7246157E+02  0.7816164E-02  0.1226708E+00
        -11   -1    0    0    0    0  0.00000000000E+00  0.00000000000E+00  0.45593999997E+02  0.45594000000E+02  0.51100000000E-03 0.  1.
         11   -1    0    0    0    0 -0.00000000000E+00 -0.00000000000E+00 -0.45593999997E+02  0.45594000000E+02  0.51100000000E-03 0. -1.
    9900012    2    1    2    0    0 -0.11094444996E+02  0.11008371393E+02  0.10315433377E+02  0.72461571717E+02  0.70000001853E+02 0.  0.
         12    1    1    2    0    0  0.11094444996E+02 -0.11008371393E+02 -0.10315433377E+02  0.18726428283E+02  0.00000000000E+00 0. -1.
         11    1    3    3    0    0 -0.24617727751E+02  0.29648746893E+02 -0.47453644946E+01  0.38827814725E+02  0.51100000000E-03 0. -1.
        -11    1    3    3    0    0  0.12217621425E+01  0.37147667431E+01 -0.17586393856E+00  0.39144760919E+01  0.51100000000E-03 0.  1.
         12    1    3    3    0    0  0.12301520613E+02 -0.22355142243E+02  0.15236661810E+02  0.29719280900E+02  0.00000000000E+00 0. -1.
</event>
<event>
 7    1  0.2886818E-013  0.7246151E+02  0.7816164E-02  0.1226708E+00
        -11   -1    0    0    0    0  0.00000000000E+00  0.00000000000E+00  0.45593999997E+02  0.45594000000E+02  0.51100000000E-03 0.  1.
         11   -1    0    0    0    0 -0.00000000000E+00 -0.00000000000E+00 -0.45593999997E+02  0.45594000000E+02  0.51100000000E-03 0. -1.
    9900012    2    1    2    0    0  0.88929155848E+01  0.40706399349E+00  0.16475187126E+02  0.72461509685E+02  0.69999921045E+02 0.  0.
         12    1    1    2    0    0 -0.88929155848E+01 -0.40706399349E+00 -0.16475187126E+02  0.18726490315E+02  0.00000000000E+00 0. -1.
         11    1    3    3    0    0 -0.88445994572E+01  0.16561554896E+02  0.57807944759E+01  0.19645091630E+02  0.51100000000E-03 0. -1.
        -11    1    3    3    0    0 -0.43067414996E+01  0.12073774229E+02 -0.49386279073E+01  0.13737324788E+02  0.51100000000E-03 0.  1.
        -12    1    3    3    0    0  0.22044256542E+02 -0.28228265131E+02  0.15633020557E+02  0.39079093266E+02  0.00000000000E+00 0.  1.
</event>
<event>
 7    1  0.2886818E-013  0.7246159E+02  0.7816164E-02  0.1226708E+00
        -11   -1    0    0    0    0  0.00000000000E+00  0.00000000000E+00  0.45593999997E+02  0.45594000000E+02  0.51100000000E-03 0. -1.
         11   -1    0    0    0    0 -0.00000000000E+00 -0.00000000000E+00 -0.45593999997E+02  0.45594000000E+02  0.51100000000E-03 0.  1.
    9900012    2    1    2    0    0 -0.79192113475E+01 -0.12427163789E+02 -0.11555524774E+02  0.72461589212E+02  0.70000024644E+02 0.  0.
         12    1    1    2    0    0  0.79192113475E+01  0.12427163789E+02  0.11555524774E+02  0.18726410788E+02  0.00000000000E+00 0. -1.
         11    1    3    3    0    0 -0.89155819405E+01 -0.87468724107E+01  0.90623413268E+01  0.15431183004E+02  0.51100000000E-03 0. -1.
        -11    1    3    3    0    0  0.19920386329E+02 -0.12446175562E+02  0.49810705679E+01  0.24011250319E+02  0.51100000000E-03 0.  1.
         12    1    3    3    0    0 -0.18924015736E+02  0.87658841832E+01 -0.25598936668E+02  0.33019155889E+02  0.00000000000E+00 0. -1.
</event>
<event>
 7    1  0.2886818E-013  0.7246156E+02  0.7816164E-02  0.1226708E+00
        -11   -1    0    0    0    0  0.00000000000E+00  0.00000000000E+00  0.45593999997E+02  0.45594000000E+02  0.51100000000E-03 0.  1.
         11   -1    0    0    0    0 -0.00000000000E+00 -0.00000000000E+00 -0.45593999997E+02  0.45594000000E+02  0.51100000000E-03 0. -1.
    9900012    2    1    2    0    0 -0.67718341378E+01  0.10722183117E+02 -0.13778846547E+02  0.72461559854E+02  0.69999986399E+02 0.  0.
         12    1    1    2    0    0  0.67718341378E+01 -0.10722183117E+02  0.13778846547E+02  0.18726440146E+02  0.00000000000E+00 0. -1.
         11    1    3    3    0    0 -0.12072688294E+02  0.62937782456E+01 -0.23437153515E+02  0.27104641898E+02  0.51100000000E-03 0. -1.
        -11    1    3    3    0    0  0.54474444514E+01 -0.94942290091E+01 -0.14081400166E+02  0.17835382430E+02  0.51100000000E-03 0.  1.
        -12    1    3    3    0    0 -0.14659029542E+00  0.13922633881E+02  0.23739707134E+02  0.27521535526E+02  0.00000000000E+00 0.  1.
</event>
<event>
 7    1  0.2886818E-013  0.7246156E+02  0.7816164E-02  0.1226708E+00
        -11   -1    0    0    0    0  0.00000000000E+00  0.00000000000E+00  0.45593999997E+02  0.45594000000E+02  0.51100000000E-03 0.  1.
         11   -1    0    0    0    0 -0.00000000000E+00 -0.00000000000E+00 -0.45593999997E+02  0.45594000000E+02  0.51100000000E-03 0. -1.
    9900012    2    1    2    0    0 -0.18124535842E+02  0.12134267334E+01  0.45506592538E+01  0.72461556035E+02  0.69999981425E+02 0.  0.
         12    1    1    2    0    0  0.18124535842E+02 -0.12134267334E+01 -0.45506592538E+01  0.18726443965E+02  0.00000000000E+00 0. -1.
         11    1    3    3    0    0  0.65392550935E+01  0.81039960413E-01  0.28842511071E+01  0.71475400917E+01  0.51100000000E-03 0. -1.
        -11    1    3    3    0    0 -0.28497645063E+02  0.25657790411E+02  0.90813521631E+01  0.39406965632E+02  0.51100000000E-03 0.  1.
         12    1    3    3    0    0  0.38338541277E+01 -0.24525403638E+02 -0.74149440164E+01  0.25907050312E+02  0.00000000000E+00 0. -1.
</event>
<event>
 7    1  0.2886818E-013  0.7246169E+02  0.7816164E-02  0.1226708E+00
        -11   -1    0    0    0    0  0.00000000000E+00  0.00000000000E+00  0.45593999997E+02  0.45594000000E+02  0.51100000000E-03 0. -1.
         11   -1    0    0    0    0 -0.00000000000E+00 -0.00000000000E+00 -0.45593999997E+02  0.45594000000E+02  0.51100000000E-03 0.  1.
    9900012    2    1    2    0    0 -0.14957700533E+02  0.10933996756E+02  0.27183722862E+01  0.72461691283E+02  0.70000157610E+02 0.  0.
         12    1    1    2    0    0  0.14957700533E+02 -0.10933996756E+02 -0.27183722862E+01  0.18726308717E+02  0.00000000000E+00 0. -1.
         11    1    3    3    0    0 -0.66219215904E+01 -0.17718960526E+02  0.34318955786E+01  0.19224705855E+02  0.51100000000E-03 0. -1.
        -11    1    3    3    0    0 -0.10275202679E+02 -0.82694700809E+01 -0.81760005602E+01  0.15518083352E+02  0.51100000000E-03 0.  1.
         12    1    3    3    0    0  0.19394237360E+01  0.36922427363E+02  0.74624772678E+01  0.37718902075E+02  0.00000000000E+00 0. -1.
</event>
<event>
 7    1  0.2886818E-013  0.7246154E+02  0.7816164E-02  0.1226708E+00
        -11   -1    0    0    0    0  0.00000000000E+00  0.00000000000E+00  0.45593999997E+02  0.45594000000E+02  0.51100000000E-03 0.  1.
         11   -1    0    0    0    0 -0.00000000000E+00 -0.00000000000E+00 -0.45593999997E+02  0.45594000000E+02  0.51100000000E-03 0. -1.
    9900012    2    1    2    0    0 -0.23193237302E+00 -0.17094511107E+02  0.76422595626E+01  0.72461541877E+02  0.69999962981E+02 0.  0.
         12    1    1    2    0    0  0.23193237302E+00  0.17094511107E+02 -0.76422595626E+01  0.18726458123E+02  0.00000000000E+00 0. -1.
         11    1    3    3    0    0 -0.18355566001E+02 -0.11273861746E+02  0.58647225830E+01  0.22325360762E+02  0.51100000000E-03 0. -1.
        -11    1    3    3    0    0 -0.15318929869E+02 -0.31877867786E+01 -0.38687604198E+01  0.16118278579E+02  0.51100000000E-03 0.  1.
         12    1    3    3    0    0  0.33442563498E+02 -0.26328625821E+01  0.56462973993E+01  0.34017902537E+02  0.00000000000E+00 0. -1.
</event>
<event>
 7    1  0.2886818E-013  0.7246144E+02  0.7816164E-02  0.1226708E+00
        -11   -1    0    0    0    0  0.00000000000E+00  0.00000000000E+00  0.45593999997E+02  0.45594000000E+02  0.51100000000E-03 0. -1.
         11   -1    0    0    0    0 -0.00000000000E+00 -0.00000000000E+00 -0.45593999997E+02  0.45594000000E+02  0.51100000000E-03 0.  1.
    9900012    2    1    2    0    0  0.24615194941E+01 -0.18529868908E+02  0.11264522238E+01  0.72461440930E+02  0.69999831479E+02 0.  0.
         12    1    1    2    0    0 -0.24615194941E+01  0.18529868908E+02 -0.11264522238E+01  0.18726559070E+02  0.00000000000E+00 0. -1.
         11    1    3    3    0    0  0.65829335280E+01 -0.26602386851E+01  0.16966058691E+01  0.73000243446E+01  0.51100000000E-03 0. -1.
        -11    1    3    3    0    0 -0.11230306028E+02  0.19465728964E+02 -0.14249164549E+02  0.26609642391E+02  0.51100000000E-03 0.  1.
         12    1    3    3    0    0  0.71088919944E+01 -0.35335359187E+02  0.13679010903E+02  0.38551774195E+02  0.00000000000E+00 0. -1.
</event>
<event>
 7    1  0.2886818E-013  0.7246158E+02  0.7816164E-02  0.1226708E+00
        -11   -1    0    0    0    0  0.00000000000E+00  0.00000000000E+00  0.45593999997E+02  0.45594000000E+02  0.51100000000E-03 0.  1.
         11   -1    0    0    0    0 -0.00000000000E+00 -0.00000000000E+00 -0.45593999997E+02  0.45594000000E+02  0.51100000000E-03 0. -1.
    9900012    2    1    2    0    0  0.19389310299E+01 -0.38651732100E+01  0.18220310725E+02  0.72461581752E+02  0.70000014926E+02 0.  0.
         12    1    1    2    0    0 -0.19389310299E+01  0.38651732100E+01 -0.18220310725E+02  0.18726418248E+02  0.00000000000E+00 0. -1.
         11    1    3    3    0    0 -0.19065059224E+01 -0.30780181740E+02  0.38498593003E+01  0.31078541948E+02  0.51100000000E-03 0. -1.
        -11    1    3    3    0    0  0.13665439541E+02  0.53623378692E+01  0.85713808135E+01  0.16999043343E+02  0.51100000000E-03 0.  1.
        -12    1    3    3    0    0 -0.98200025890E+01  0.21552670660E+02  0.57990706107E+01  0.24383996461E+02  0.00000000000E+00 0.  1.
</event>
<event>
 7    1  0.2886818E-013  0.7246173E+02  0.7816164E-02  0.1226708E+00
        -11   -1    0    0    0    0  0.00000000000E+00  0.00000000000E+00  0.45593999997E+02  0.45594000000E+02  0.51100000000E-03 0. -1.
         11   -1    0    0    0    0 -0.00000000000E+00 -0.00000000000E+00 -0.45593999997E+02  0.45594000000E+02  0.51100000000E-03 0.  1.
    9900012    2    1    2    0    0  0.84989174626E+01  0.14213092647E+02 -0.87424025052E+01  0.72461729624E+02  0.70000207556E+02 0.  0.
         12    1    1    2    0    0 -0.84989174626E+01 -0.14213092647E+02  0.87424025052E+01  0.18726270376E+02  0.00000000000E+00 0. -1.
         11    1    3    3    0    0  0.62449695645E+01  0.18103074293E+02 -0.22046403892E+01  0.19276446333E+02  0.51100000000E-03 0. -1.
        -11    1    3    3    0    0 -0.16039790598E+02 -0.21325975518E+01 -0.23262332326E+02  0.28336530491E+02  0.51100000000E-03 0.  1.
         12    1    3    3    0    0  0.18293738496E+02 -0.17573840936E+01  0.16724570210E+02  0.24848752800E+02  0.00000000000E+00 0. -1.
</event>
<event>
 7    1  0.2886818E-013  0.7246159E+02  0.7816164E-02  0.1226708E+00
        -11   -1    0    0    0    0  0.00000000000E+00  0.00000000000E+00  0.45593999997E+02  0.45594000000E+02  0.51100000000E-03 0. -1.
         11   -1    0    0    0    0 -0.00000000000E+00 -0.00000000000E+00 -0.45593999997E+02  0.45594000000E+02  0.51100000000E-03 0.  1.
    9900012    2    1    2    0    0  0.13271840000E+02  0.12989193148E+02 -0.24119432168E+01  0.72461592290E+02  0.70000028654E+02 0.  0.
         12    1    1    2    0    0 -0.13271840000E+02 -0.12989193148E+02  0.24119432168E+01  0.18726407710E+02  0.00000000000E+00 0. -1.
         11    1    3    3    0    0 -0.29960638126E-01  0.17716399297E+02  0.68430433606E+01  0.18992075832E+02  0.51100000000E-03 0. -1.
        -11    1    3    3    0    0 -0.39569021076E+01  0.21153250975E+02 -0.28266337754E+01  0.21704998500E+02  0.51100000000E-03 0.  1.
         12    1    3    3    0    0  0.17258702746E+02 -0.25880457124E+02 -0.64283528020E+01  0.31764517959E+02  0.00000000000E+00 0. -1.
</event>
<event>
 7    1  0.2886818E-013  0.7246119E+02  0.7816164E-02  0.1226709E+00
        -11   -1    0    0    0    0  0.00000000000E+00  0.00000000000E+00  0.45593999997E+02  0.45594000000E+02  0.51100000000E-03 0. -1.
         11   -1    0    0    0    0 -0.00000000000E+00 -0.00000000000E+00 -0.45593999997E+02  0.45594000000E+02  0.51100000000E-03 0.  1.
    9900012    2    1    2    0    0  0.17305106795E+02  0.10161780081E+00 -0.71565718458E+01  0.72461185857E+02  0.69999499197E+02 0.  0.
         12    1    1    2    0    0 -0.17305106795E+02 -0.10161780081E+00  0.71565718458E+01  0.18726814143E+02  0.00000000000E+00 0. -1.
         11    1    3    3    0    0 -0.74424923872E+01 -0.12000873246E+02 -0.71653907059E+01  0.15835228948E+02  0.51100000000E-03 0.  1.
        -11    1    3    3    0    0  0.32761175378E+02 -0.15716834966E+01  0.13831321180E+02  0.35595930203E+02  0.51100000000E-03 0. -1.
         12    1    3    3    0    0 -0.80135761953E+01  0.13674174544E+02 -0.13822502320E+02  0.21030026706E+02  0.00000000000E+00 0. -1.
</event>
<event>
 7    1  0.2886818E-013  0.7246158E+02  0.7816164E-02  0.1226708E+00
        -11   -1    0    0    0    0  0.00000000000E+00  0.00000000000E+00  0.45593999997E+02  0.45594000000E+02  0.51100000000E-03 0.  1.
         11   -1    0    0    0    0 -0.00000000000E+00 -0.00000000000E+00 -0.45593999997E+02  0.45594000000E+02  0.51100000000E-03 0. -1.
    9900012    2    1    2    0    0 -0.84033484235E+01  0.11125380378E+02  0.12501543673E+02  0.72461576223E+02  0.70000007723E+02 0.  0.
         12    1    1    2    0    0  0.84033484235E+01 -0.11125380378E+02 -0.12501543673E+02  0.18726423777E+02  0.00000000000E+00 0. -1.
         11    1    3    3    0    0  0.38357747808E+01  0.66343633565E+01 -0.36885912339E+00  0.76722879658E+01  0.51100000000E-03 0. -1.
        -11    1    3    3    0    0 -0.10103250228E+02  0.33099488651E+02  0.44569779212E+01  0.34892928604E+02  0.51100000000E-03 0.  1.
         12    1    3    3    0    0 -0.21358729764E+01 -0.28608471630E+02  0.84134248749E+01  0.29896359653E+02  0.00000000000E+00 0. -1.
</event>
<event>
 7    1  0.2886818E-013  0.7246159E+02  0.7816164E-02  0.1226708E+00
        -11   -1    0    0    0    0  0.00000000000E+00  0.00000000000E+00  0.45593999997E+02  0.45594000000E+02  0.51100000000E-03 0. -1.
         11   -1    0    0    0    0 -0.00000000000E+00 -0.00000000000E+00 -0.45593999997E+02  0.45594000000E+02  0.51100000000E-03 0.  1.
    9900012    2    1    2    0    0 -0.17531192079E+02  0.65571668637E+01  0.58261206065E+00  0.72461586307E+02  0.70000020860E+02 0.  0.
         12    1    1    2    0    0  0.17531192079E+02 -0.65571668637E+01 -0.58261206065E+00  0.18726413693E+02  0.00000000000E+00 0. -1.
         11    1    3    3    0    0  0.12359813469E+02 -0.22310994374E+02 -0.29677227029E+00  0.25507519147E+02  0.51100000000E-03 0. -1.
        -11    1    3    3    0    0 -0.14308204456E+02  0.17220769682E+01  0.52743964492E+01  0.15346319493E+02  0.51100000000E-03 0.  1.
        -12    1    3    3    0    0 -0.15582801092E+02  0.27146084270E+02 -0.43950121183E+01  0.31607747667E+02  0.00000000000E+00 0.  1.
</event>
<event>
 7    1  0.2886818E-013  0.7246166E+02  0.7816164E-02  0.1226708E+00
        -11   -1    0    0    0    0  0.00000000000E+00  0.00000000000E+00  0.45593999997E+02  0.45594000000E+02  0.51100000000E-03 0.  1.
         11   -1    0    0    0    0 -0.00000000000E+00 -0.00000000000E+00 -0.45593999997E+02  0.45594000000E+02  0.51100000000E-03 0. -1.
    9900012    2    1    2    0    0 -0.14253873489E+02  0.64428951525E+01  0.10295241206E+02  0.72461660292E+02  0.70000117238E+02 0.  0.
         12    1    1    2    0    0  0.14253873489E+02 -0.64428951525E+01 -0.10295241206E+02  0.18726339708E+02  0.00000000000E+00 0. -1.
         11    1    3    3    0    0 -0.11993533166E+02  0.11236861983E+02  0.67990003669E+01  0.17785902037E+02  0.51100000000E-03 0. -1.
        -11    1    3    3    0    0  0.15839020863E+02  0.18943651541E+02  0.23264374988E+01  0.24802194002E+02  0.51100000000E-03 0.  1.
         12    1    3    3    0    0 -0.18099361186E+02 -0.23737618371E+02  0.11698033400E+01  0.29873564252E+02  0.00000000000E+00 0. -1.
</event>
<event>
 7    1  0.2886818E-013  0.7246156E+02  0.7816164E-02  0.1226708E+00
        -11   -1    0    0    0    0  0.00000000000E+00  0.00000000000E+00  0.45593999997E+02  0.45594000000E+02  0.51100000000E-03 0. -1.
         11   -1    0    0    0    0 -0.00000000000E+00 -0.00000000000E+00 -0.45593999997E+02  0.45594000000E+02  0.51100000000E-03 0.  1.
    9900012    2    1    2    0    0 -0.76729851762E+01 -0.15475297870E+02 -0.72332488942E+01  0.72461563199E+02  0.69999990757E+02 0.  0.
         12    1    1    2    0    0  0.76729851762E+01  0.15475297870E+02  0.72332488942E+01  0.18726436801E+02  0.00000000000E+00 0. -1.
         11    1    3    3    0    0  0.33655852244E-01 -0.11590935085E+01 -0.81083686558E+01  0.81908652167E+01  0.51100000000E-03 0. -1.
        -11    1    3    3    0    0  0.25344438083E+02 -0.13809594722E+02  0.89974844525E+01  0.30232435807E+02  0.51100000000E-03 0.  1.
         12    1    3    3    0    0 -0.33051079111E+02 -0.50660963943E+00 -0.81223646909E+01  0.34038262175E+02  0.00000000000E+00 0. -1.
</event>
<event>
 7    1  0.2886818E-013  0.7246158E+02  0.7816164E-02  0.1226708E+00
        -11   -1    0    0    0    0  0.00000000000E+00  0.00000000000E+00  0.45593999997E+02  0.45594000000E+02  0.51100000000E-03 0. -1.
         11   -1    0    0    0    0 -0.00000000000E+00 -0.00000000000E+00 -0.45593999997E+02  0.45594000000E+02  0.51100000000E-03 0.  1.
    9900012    2    1    2    0    0  0.79113430893E+00 -0.29451867477E+01 -0.18476436073E+02  0.72461582606E+02  0.70000016038E+02 0.  0.
         12    1    1    2    0    0 -0.79113430893E+00  0.29451867477E+01  0.18476436073E+02  0.18726417394E+02  0.00000000000E+00 0. -1.
         11    1    3    3    0    0  0.19983366677E+02 -0.37348712213E+01 -0.14319349309E+02  0.24866201392E+02  0.51100000000E-03 0. -1.
        -11    1    3    3    0    0  0.75947516860E+00  0.15847736832E+02 -0.13577906148E+02  0.20882698601E+02  0.51100000000E-03 0.  1.
         12    1    3    3    0    0 -0.19951707537E+02 -0.15058052359E+02  0.94208193839E+01  0.26712682612E+02  0.00000000000E+00 0. -1.
</event>
<event>
 7    1  0.2886818E-013  0.7246158E+02  0.7816164E-02  0.1226708E+00
        -11   -1    0    0    0    0  0.00000000000E+00  0.00000000000E+00  0.45593999997E+02  0.45594000000E+02  0.51100000000E-03 0. -1.
         11   -1    0    0    0    0 -0.00000000000E+00 -0.00000000000E+00 -0.45593999997E+02  0.45594000000E+02  0.51100000000E-03 0.  1.
    9900012    2    1    2    0    0  0.13483948852E+02  0.11847810638E+02 -0.53377375498E+01  0.72461576537E+02  0.70000008132E+02 0.  0.
         12    1    1    2    0    0 -0.13483948852E+02 -0.11847810638E+02  0.53377375498E+01  0.18726423463E+02  0.00000000000E+00 0. -1.
         11    1    3    3    0    0  0.68328063313E+01 -0.17351272020E+02 -0.43350450263E+01  0.19145404114E+02  0.51100000000E-03 0. -1.
        -11    1    3    3    0    0 -0.65865654341E+01  0.15870598913E+02 -0.20157370768E+02  0.26487324339E+02  0.51100000000E-03 0.  1.
         12    1    3    3    0    0  0.13237707955E+02  0.13328483745E+02  0.19154678244E+02  0.26828848084E+02  0.00000000000E+00 0. -1.
</event>
<event>
 7    1  0.2886818E-013  0.7246159E+02  0.7816164E-02  0.1226708E+00
        -11   -1    0    0    0    0  0.00000000000E+00  0.00000000000E+00  0.45593999997E+02  0.45594000000E+02  0.51100000000E-03 0. -1.
         11   -1    0    0    0    0 -0.00000000000E+00 -0.00000000000E+00 -0.45593999997E+02  0.45594000000E+02  0.51100000000E-03 0.  1.
    9900012    2    1    2    0    0  0.86520174840E+01 -0.12467576149E+02 -0.10971801874E+02  0.72461593566E+02  0.70000030315E+02 0.  0.
         12    1    1    2    0    0 -0.86520174840E+01  0.12467576149E+02  0.10971801874E+02  0.18726406434E+02  0.00000000000E+00 0. -1.
         11    1    3    3    0    0  0.49788519863E+01  0.62646160313E+01 -0.17242787597E+02  0.19009158464E+02  0.51100000000E-03 0. -1.
        -11    1    3    3    0    0 -0.17311198154E+02 -0.23511537454E+02 -0.42361384223E+01  0.29502793833E+02  0.51100000000E-03 0.  1.
         12    1    3    3    0    0  0.20984363651E+02  0.47793452741E+01  0.10507124145E+02  0.23949641269E+02  0.00000000000E+00 0. -1.
</event>
<event>
 7    1  0.2886818E-013  0.7246158E+02  0.7816164E-02  0.1226708E+00
        -11   -1    0    0    0    0  0.00000000000E+00  0.00000000000E+00  0.45593999997E+02  0.45594000000E+02  0.51100000000E-03 0. -1.
         11   -1    0    0    0    0 -0.00000000000E+00 -0.00000000000E+00 -0.45593999997E+02  0.45594000000E+02  0.51100000000E-03 0.  1.
    9900012    2    1    2    0    0  0.55011733046E+01  0.17868057878E+02 -0.10715656754E+01  0.72461584084E+02  0.70000017964E+02 0.  0.
         12    1    1    2    0    0 -0.55011733046E+01 -0.17868057878E+02  0.10715656754E+01  0.18726415916E+02  0.00000000000E+00 0. -1.
         11    1    3    3    0    0  0.16289806059E+02  0.36891115614E+01 -0.34342447014E+01  0.17051726085E+02  0.51100000000E-03 0. -1.
        -11    1    3    3    0    0  0.20113487832E+02  0.13314925895E+02  0.40072552557E+01  0.24451947557E+02  0.51100000000E-03 0.  1.
        -12    1    3    3    0    0 -0.30902120586E+02  0.86402042103E+00 -0.16445762297E+01  0.30957910443E+02  0.00000000000E+00 0.  1.
</event>
<event>
 7    1  0.2886818E-013  0.7246158E+02  0.7816164E-02  0.1226708E+00
        -11   -1    0    0    0    0  0.00000000000E+00  0.00000000000E+00  0.45593999997E+02  0.45594000000E+02  0.51100000000E-03 0. -1.
         11   -1    0    0    0    0 -0.00000000000E+00 -0.00000000000E+00 -0.45593999997E+02  0.45594000000E+02  0.51100000000E-03 0.  1.
    9900012    2    1    2    0    0  0.73716073716E+01  0.25944789900E+01 -0.17017839244E+02  0.72461580988E+02  0.70000013931E+02 0.  0.
         12    1    1    2    0    0 -0.73716073716E+01 -0.25944789900E+01  0.17017839244E+02  0.18726419012E+02  0.00000000000E+00 0. -1.
         11    1    3    3    0    0  0.23154395558E+02  0.30815196514E+01 -0.18790171796E+02  0.29978197967E+02  0.51100000000E-03 0. -1.
        -11    1    3    3    0    0  0.12399039611E+02  0.30751060530E+00 -0.51875074758E+01  0.13443994203E+02  0.51100000000E-03 0.  1.
        -12    1    3    3    0    0 -0.28181827797E+02 -0.79455126672E+00  0.69598400273E+01  0.29039388818E+02  0.00000000000E+00 0.  1.
</event>
<event>
 7    1  0.2886818E-013  0.7246163E+02  0.7816164E-02  0.1226708E+00
        -11   -1    0    0    0    0  0.00000000000E+00  0.00000000000E+00  0.45593999997E+02  0.45594000000E+02  0.51100000000E-03 0.  1.
         11   -1    0    0    0    0 -0.00000000000E+00 -0.00000000000E+00 -0.45593999997E+02  0.45594000000E+02  0.51100000000E-03 0. -1.
    9900012    2    1    2    0    0  0.19136900077E+01 -0.14817139506E+02  0.11290126443E+02  0.72461633890E+02  0.70000082845E+02 0.  0.
         12    1    1    2    0    0 -0.19136900077E+01  0.14817139506E+02 -0.11290126443E+02  0.18726366110E+02  0.00000000000E+00 0. -1.
         11    1    3    3    0    0  0.41473876167E+01  0.11999256764E+02  0.49382136729E+01  0.13622369158E+02  0.51100000000E-03 0. -1.
        -11    1    3    3    0    0 -0.11373145482E+02  0.11918557752E+02 -0.54087264301E+01  0.17339399612E+02  0.51100000000E-03 0.  1.
         12    1    3    3    0    0  0.91394478726E+01 -0.38734954023E+02  0.11760639200E+02  0.41499865120E+02  0.00000000000E+00 0. -1.
</event>
<event>
 7    1  0.2886818E-013  0.7246159E+02  0.7816164E-02  0.1226708E+00
        -11   -1    0    0    0    0  0.00000000000E+00  0.00000000000E+00  0.45593999997E+02  0.45594000000E+02  0.51100000000E-03 0. -1.
         11   -1    0    0    0    0 -0.00000000000E+00 -0.00000000000E+00 -0.45593999997E+02  0.45594000000E+02  0.51100000000E-03 0.  1.
    9900012    2    1    2    0    0 -0.98145962404E+01  0.47262491659E+01 -0.15232025888E+02  0.72461592358E+02  0.70000028742E+02 0.  0.
         12    1    1    2    0    0  0.98145962404E+01 -0.47262491659E+01  0.15232025888E+02  0.18726407642E+02  0.00000000000E+00 0. -1.
         11    1    3    3    0    0 -0.16662529751E+02 -0.68582618363E+00  0.45605024929E+01  0.17288968694E+02  0.51100000000E-03 0. -1.
        -11    1    3    3    0    0 -0.17824553145E+02 -0.11682780822E+02 -0.60081580767E+01  0.22142719487E+02  0.51100000000E-03 0.  1.
        -12    1    3    3    0    0  0.24672486655E+02  0.17094856171E+02 -0.13784370304E+02  0.33029904177E+02  0.00000000000E+00 0.  1.
</event>
<event>
 7    1  0.2921971E-013  0.7246159E+02  0.7816164E-02  0.1226708E+00
        -11   -1    0    0    0    0  0.00000000000E+00  0.00000000000E+00  0.45593999997E+02  0.45594000000E+02  0.51100000000E-03 0. -1.
         11   -1    0    0    0    0 -0.00000000000E+00 -0.00000000000E+00 -0.45593999997E+02  0.45594000000E+02  0.51100000000E-03 0.  1.
    9900012    2    1    2    0    0  0.78429820172E+01 -0.54648447941E+01 -0.16102843993E+02  0.72461588699E+02  0.70000023976E+02 0.  0.
         12    1    1    2    0    0 -0.78429820172E+01  0.54648447941E+01  0.16102843993E+02  0.18726411301E+02  0.00000000000E+00 0. -1.
         11    1    3    3    0    0 -0.38554370618E+01 -0.71446476728E+01  0.22435313826E+02  0.23859037953E+02  0.51100000000E-03 0. -1.
        -11    1    3    3    0    0  0.16414347139E+02  0.40152805881E+01 -0.10110762211E+02  0.19692150287E+02  0.51100000000E-03 0.  1.
        -12    1    3    3    0    0 -0.47159280598E+01 -0.23354777094E+01 -0.28427395609E+02  0.28910400459E+02  0.00000000000E+00 0.  1.
</event>
<event>
 7    1  0.2886818E-013  0.7246154E+02  0.7816164E-02  0.1226708E+00
        -11   -1    0    0    0    0  0.00000000000E+00  0.00000000000E+00  0.45593999997E+02  0.45594000000E+02  0.51100000000E-03 0.  1.
         11   -1    0    0    0    0 -0.00000000000E+00 -0.00000000000E+00 -0.45593999997E+02  0.45594000000E+02  0.51100000000E-03 0. -1.
    9900012    2    1    2    0    0 -0.12537023150E+02  0.84901748559E+01  0.11019083021E+02  0.72461542535E+02  0.69999963838E+02 0.  0.
         12    1    1    2    0    0  0.12537023150E+02 -0.84901748559E+01 -0.11019083021E+02  0.18726457465E+02  0.00000000000E+00 0. -1.
         11    1    3    3    0    0 -0.45509592140E+01 -0.22658729750E+01  0.48496676651E+01  0.70260007707E+01  0.51100000000E-03 0. -1.
        -11    1    3    3    0    0  0.14568696894E+02  0.10265101388E+01  0.28637062541E+02  0.32146259557E+02  0.51100000000E-03 0.  1.
         12    1    3    3    0    0 -0.22554760831E+02  0.97295376921E+01 -0.22467647185E+02  0.33289282207E+02  0.00000000000E+00 0. -1.
</event>
<event>
 7    1  0.2886818E-013  0.7246161E+02  0.7816164E-02  0.1226708E+00
        -11   -1    0    0    0    0  0.00000000000E+00  0.00000000000E+00  0.45593999997E+02  0.45594000000E+02  0.51100000000E-03 0.  1.
         11   -1    0    0    0    0 -0.00000000000E+00 -0.00000000000E+00 -0.45593999997E+02  0.45594000000E+02  0.51100000000E-03 0. -1.
    9900012    2    1    2    0    0 -0.14716693738E+02  0.10019020172E+02  0.58065490423E+01  0.72461605484E+02  0.70000045841E+02 0.  0.
         12    1    1    2    0    0  0.14716693738E+02 -0.10019020172E+02 -0.58065490423E+01  0.18726394516E+02  0.00000000000E+00 0. -1.
         11    1    3    3    0    0  0.24491676008E+02 -0.34961608778E+01  0.62696347126E+01  0.25522022926E+02  0.51100000000E-03 0. -1.
        -11    1    3    3    0    0 -0.85437373308E+01 -0.61256288007E+01  0.28182753962E+00  0.10516568015E+02  0.51100000000E-03 0.  1.
        -12    1    3    3    0    0 -0.30664632415E+02  0.19640809850E+02 -0.74491320996E+00  0.36423014543E+02  0.00000000000E+00 0.  1.
</event>
<event>
 7    1  0.2886818E-013  0.7246167E+02  0.7816164E-02  0.1226708E+00
        -11   -1    0    0    0    0  0.00000000000E+00  0.00000000000E+00  0.45593999997E+02  0.45594000000E+02  0.51100000000E-03 0. -1.
         11   -1    0    0    0    0 -0.00000000000E+00 -0.00000000000E+00 -0.45593999997E+02  0.45594000000E+02  0.51100000000E-03 0.  1.
    9900012    2    1    2    0    0  0.13762046977E+01 -0.83111268772E+01 -0.16724430633E+02  0.72461672295E+02  0.70000132874E+02 0.  0.
         12    1    1    2    0    0 -0.13762046977E+01  0.83111268772E+01  0.16724430633E+02  0.18726327705E+02  0.00000000000E+00 0. -1.
         11    1    3    3    0    0 -0.10534380535E+02  0.15636839715E+01  0.15314870020E+01  0.10759355627E+02  0.51100000000E-03 0. -1.
        -11    1    3    3    0    0 -0.19906593115E+02 -0.14698987961E+02 -0.84492884463E-01  0.24745501325E+02  0.51100000000E-03 0.  1.
        -12    1    3    3    0    0  0.31817178347E+02  0.48241771124E+01 -0.18171424750E+02  0.36956815342E+02  0.00000000000E+00 0.  1.
</event>
<event>
 7    1  0.2886818E-013  0.7246160E+02  0.7816164E-02  0.1226708E+00
        -11   -1    0    0    0    0  0.00000000000E+00  0.00000000000E+00  0.45593999997E+02  0.45594000000E+02  0.51100000000E-03 0. -1.
         11   -1    0    0    0    0 -0.00000000000E+00 -0.00000000000E+00 -0.45593999997E+02  0.45594000000E+02  0.51100000000E-03 0.  1.
    9900012    2    1    2    0    0  0.15363294904E+02  0.49319081017E+01 -0.95038711658E+01  0.72461598451E+02  0.70000036680E+02 0.  0.
         12    1    1    2    0    0 -0.15363294904E+02 -0.49319081017E+01  0.95038711658E+01  0.18726401549E+02  0.00000000000E+00 0. -1.
         11    1    3    3    0    0 -0.16102070487E+01 -0.11533803851E+02  0.98957486748E+01  0.15282252456E+02  0.51100000000E-03 0. -1.
        -11    1    3    3    0    0 -0.99257615256E+01  0.18170570538E+02  0.44633750150E+01  0.21180464875E+02  0.51100000000E-03 0.  1.
         12    1    3    3    0    0  0.26899263478E+02 -0.17048585851E+01 -0.23862994856E+02  0.35998881121E+02  0.00000000000E+00 0. -1.
</event>
<event>
 7    1  0.2886818E-013  0.7246156E+02  0.7816164E-02  0.1226708E+00
        -11   -1    0    0    0    0  0.00000000000E+00  0.00000000000E+00  0.45593999997E+02  0.45594000000E+02  0.51100000000E-03 0.  1.
         11   -1    0    0    0    0 -0.00000000000E+00 -0.00000000000E+00 -0.45593999997E+02  0.45594000000E+02  0.51100000000E-03 0. -1.
    9900012    2    1    2    0    0  0.18276213266E+02  0.88815784442E+00  0.39838231650E+01  0.72461557660E+02  0.69999983542E+02 0.  0.
         12    1    1    2    0    0 -0.18276213266E+02 -0.88815784442E+00 -0.39838231650E+01  0.18726442340E+02  0.00000000000E+00 0. -1.
         11    1    3    3    0    0 -0.88701033674E+01  0.19766462518E+02 -0.12637643680E+02  0.25081902086E+02  0.51100000000E-03 0. -1.
        -11    1    3    3    0    0  0.99442383397E+01  0.68566854084E+01 -0.33739926797E+00  0.12083701812E+02  0.51100000000E-03 0.  1.
        -12    1    3    3    0    0  0.17202078293E+02 -0.25734990082E+02  0.16958866113E+02  0.35295953762E+02  0.00000000000E+00 0.  1.
</event>
<event>
 7    1  0.2886818E-013  0.7246158E+02  0.7816164E-02  0.1226708E+00
        -11   -1    0    0    0    0  0.00000000000E+00  0.00000000000E+00  0.45593999997E+02  0.45594000000E+02  0.51100000000E-03 0.  1.
         11   -1    0    0    0    0 -0.00000000000E+00 -0.00000000000E+00 -0.45593999997E+02  0.45594000000E+02  0.51100000000E-03 0. -1.
    9900012    2    1    2    0    0 -0.17998969451E+01  0.79918398302E+01  0.16839525581E+02  0.72461581371E+02  0.70000014429E+02 0.  0.
         12    1    1    2    0    0  0.17998969451E+01 -0.79918398302E+01 -0.16839525581E+02  0.18726418629E+02  0.00000000000E+00 0. -1.
         11    1    3    3    0    0 -0.15466136208E+02 -0.11954242625E+02  0.32706035989E+01  0.19819236466E+02  0.51100000000E-03 0.  1.
        -11    1    3    3    0    0 -0.32541891014E+01 -0.13530856028E+01 -0.13687726936E+02  0.14134159200E+02  0.51100000000E-03 0. -1.
        -12    1    3    3    0    0  0.16920428365E+02  0.21299168058E+02  0.27256648918E+02  0.38508185704E+02  0.00000000000E+00 0.  1.
</event>
<event>
 7    1  0.2886818E-013  0.7246161E+02  0.7816164E-02  0.1226708E+00
        -11   -1    0    0    0    0  0.00000000000E+00  0.00000000000E+00  0.45593999997E+02  0.45594000000E+02  0.51100000000E-03 0.  1.
         11   -1    0    0    0    0 -0.00000000000E+00 -0.00000000000E+00 -0.45593999997E+02  0.45594000000E+02  0.51100000000E-03 0. -1.
    9900012    2    1    2    0    0 -0.12304214735E+02  0.12274496344E+02  0.69728675459E+01  0.72461605725E+02  0.70000046155E+02 0.  0.
         12    1    1    2    0    0  0.12304214735E+02 -0.12274496344E+02 -0.69728675459E+01  0.18726394275E+02  0.00000000000E+00 0. -1.
         11    1    3    3    0    0 -0.43477626623E+00 -0.74111384147E+01  0.16016563641E+02  0.17653450488E+02  0.51100000000E-03 0. -1.
        -11    1    3    3    0    0  0.13587451324E+02  0.67750025194E+01  0.11994517565E+02  0.19349107072E+02  0.51100000000E-03 0.  1.
        -12    1    3    3    0    0 -0.25456889792E+02  0.12910632239E+02 -0.21038213661E+02  0.35459048164E+02  0.00000000000E+00 0.  1.
</event>
<event>
 7    1  0.2886818E-013  0.7246154E+02  0.7816164E-02  0.1226708E+00
        -11   -1    0    0    0    0  0.00000000000E+00  0.00000000000E+00  0.45593999997E+02  0.45594000000E+02  0.51100000000E-03 0. -1.
         11   -1    0    0    0    0 -0.00000000000E+00 -0.00000000000E+00 -0.45593999997E+02  0.45594000000E+02  0.51100000000E-03 0.  1.
    9900012    2    1    2    0    0 -0.14989006365E+02  0.80501939792E+01 -0.78233118463E+01  0.72461544298E+02  0.69999966135E+02 0.  0.
         12    1    1    2    0    0  0.14989006365E+02 -0.80501939792E+01  0.78233118463E+01  0.18726455702E+02  0.00000000000E+00 0. -1.
         11    1    3    3    0    0 -0.40502610060E+01  0.75234591581E+01  0.41916960567E+01  0.95172142991E+01  0.51100000000E-03 0. -1.
        -11    1    3    3    0    0 -0.34277729008E+02  0.11132947762E+02 -0.51609304381E+01  0.36407972136E+02  0.51100000000E-03 0.  1.
        -12    1    3    3    0    0  0.23338983649E+02 -0.10606212941E+02 -0.68540774649E+01  0.26536357863E+02  0.00000000000E+00 0.  1.
</event>
<event>
 7    1  0.2886818E-013  0.7246156E+02  0.7816164E-02  0.1226708E+00
        -11   -1    0    0    0    0  0.00000000000E+00  0.00000000000E+00  0.45593999997E+02  0.45594000000E+02  0.51100000000E-03 0. -1.
         11   -1    0    0    0    0 -0.00000000000E+00 -0.00000000000E+00 -0.45593999997E+02  0.45594000000E+02  0.51100000000E-03 0.  1.
    9900012    2    1    2    0    0  0.20211887964E+01  0.18543637599E+02  0.16515890296E+01  0.72461562915E+02  0.69999990387E+02 0.  0.
         12    1    1    2    0    0 -0.20211887964E+01 -0.18543637599E+02 -0.16515890296E+01  0.18726437085E+02  0.00000000000E+00 0. -1.
         11    1    3    3    0    0 -0.29854075646E+02  0.18607920763E+02  0.10466443007E+01  0.35193976933E+02  0.51100000000E-03 0. -1.
        -11    1    3    3    0    0  0.49657246535E+01 -0.22084173533E+01  0.76356411231E+01  0.93722219437E+01  0.51100000000E-03 0.  1.
        -12    1    3    3    0    0  0.26909539789E+02  0.21441341901E+01 -0.70306963942E+01  0.27895364039E+02  0.00000000000E+00 0.  1.
</event>
<event>
 7    1  0.2886818E-013  0.7246154E+02  0.7816164E-02  0.1226708E+00
        -11   -1    0    0    0    0  0.00000000000E+00  0.00000000000E+00  0.45593999997E+02  0.45594000000E+02  0.51100000000E-03 0. -1.
         11   -1    0    0    0    0 -0.00000000000E+00 -0.00000000000E+00 -0.45593999997E+02  0.45594000000E+02  0.51100000000E-03 0.  1.
    9900012    2    1    2    0    0 -0.53922217073E+01 -0.15061221007E+02 -0.97346664623E+01  0.72461543733E+02  0.69999965400E+02 0.  0.
         12    1    1    2    0    0  0.53922217073E+01  0.15061221007E+02  0.97346664623E+01  0.18726456267E+02  0.00000000000E+00 0. -1.
         11    1    3    3    0    0  0.95186276227E+01  0.45321661578E+01 -0.11463679783E+02  0.15574362148E+02  0.51100000000E-03 0. -1.
        -11    1    3    3    0    0 -0.93483233318E+01  0.13627531741E+02 -0.12093309471E+02  0.20478010271E+02  0.51100000000E-03 0.  1.
         12    1    3    3    0    0 -0.55625259982E+01 -0.33220918906E+02  0.13822322791E+02  0.36409171314E+02  0.00000000000E+00 0. -1.
</event>
<event>
 7    1  0.2886818E-013  0.7246158E+02  0.7816164E-02  0.1226708E+00
        -11   -1    0    0    0    0  0.00000000000E+00  0.00000000000E+00  0.45593999997E+02  0.45594000000E+02  0.51100000000E-03 0.  1.
         11   -1    0    0    0    0 -0.00000000000E+00 -0.00000000000E+00 -0.45593999997E+02  0.45594000000E+02  0.51100000000E-03 0. -1.
    9900012    2    1    2    0    0  0.92437031471E+01  0.10469055909E+02  0.12475241119E+02  0.72461579614E+02  0.70000012141E+02 0.  0.
         12    1    1    2    0    0 -0.92437031471E+01 -0.10469055909E+02 -0.12475241119E+02  0.18726420386E+02  0.00000000000E+00 0. -1.
         11    1    3    3    0    0 -0.13351640105E+02 -0.72491669734E-01  0.16246646720E+02  0.21029148305E+02  0.51100000000E-03 0. -1.
        -11    1    3    3    0    0 -0.17152857204E+01 -0.78944127314E+01  0.13970728569E+02  0.16138315106E+02  0.51100000000E-03 0.  1.
         12    1    3    3    0    0  0.24310628973E+02  0.18435960310E+02 -0.17742134170E+02  0.35294116203E+02  0.00000000000E+00 0. -1.
</event>
<event>
 7    1  0.2886818E-013  0.7246128E+02  0.7816164E-02  0.1226709E+00
        -11   -1    0    0    0    0  0.00000000000E+00  0.00000000000E+00  0.45593999997E+02  0.45594000000E+02  0.51100000000E-03 0.  1.
         11   -1    0    0    0    0 -0.00000000000E+00 -0.00000000000E+00 -0.45593999997E+02  0.45594000000E+02  0.51100000000E-03 0. -1.
    9900012    2    1    2    0    0 -0.12970279458E+02  0.98160862104E+01  0.92793571780E+01  0.72461276652E+02  0.69999617476E+02 0.  0.
         12    1    1    2    0    0  0.12970279458E+02 -0.98160862104E+01 -0.92793571780E+01  0.18726723348E+02  0.00000000000E+00 0. -1.
         11    1    3    3    0    0  0.30607424643E+01  0.18436312920E+01  0.43361373389E+01  0.56186482410E+01  0.51100000000E-03 0. -1.
        -11    1    3    3    0    0  0.56704121798E+01 -0.14115386105E+02  0.25487818136E+02  0.29682091785E+02  0.51100000000E-03 0.  1.
         12    1    3    3    0    0 -0.21701434102E+02  0.22087841023E+02 -0.20544598296E+02  0.37160536626E+02  0.00000000000E+00 0. -1.
</event>
<event>
 7    1  0.2886818E-013  0.7246156E+02  0.7816164E-02  0.1226708E+00
        -11   -1    0    0    0    0  0.00000000000E+00  0.00000000000E+00  0.45593999997E+02  0.45594000000E+02  0.51100000000E-03 0.  1.
         11   -1    0    0    0    0 -0.00000000000E+00 -0.00000000000E+00 -0.45593999997E+02  0.45594000000E+02  0.51100000000E-03 0. -1.
    9900012    2    1    2    0    0  0.13151491421E+01  0.46428222758E+01  0.18094033043E+02  0.72461562866E+02  0.69999990323E+02 0.  0.
         12    1    1    2    0    0 -0.13151491421E+01 -0.46428222758E+01 -0.18094033043E+02  0.18726437134E+02  0.00000000000E+00 0. -1.
         11    1    3    3    0    0 -0.22088794307E+02  0.96852274583E+00  0.77654010858E+01  0.23434042002E+02  0.51100000000E-03 0. -1.
        -11    1    3    3    0    0 -0.85530419830E+01 -0.10659547934E+01  0.14074949781E+02  0.16504393306E+02  0.51100000000E-03 0.  1.
        -12    1    3    3    0    0  0.31956985432E+02  0.47402543234E+01 -0.37463178234E+01  0.32523127559E+02  0.00000000000E+00 0.  1.
</event>
<event>
 7    1  0.2886818E-013  0.7246144E+02  0.7816164E-02  0.1226708E+00
        -11   -1    0    0    0    0  0.00000000000E+00  0.00000000000E+00  0.45593999997E+02  0.45594000000E+02  0.51100000000E-03 0.  1.
         11   -1    0    0    0    0 -0.00000000000E+00 -0.00000000000E+00 -0.45593999997E+02  0.45594000000E+02  0.51100000000E-03 0. -1.
    9900012    2    1    2    0    0 -0.13210064480E+02  0.12340512674E+02  0.48877357674E+01  0.72461440851E+02  0.69999831375E+02 0.  0.
         12    1    1    2    0    0  0.13210064480E+02 -0.12340512674E+02 -0.48877357674E+01  0.18726559149E+02  0.00000000000E+00 0. -1.
         11    1    3    3    0    0  0.69225237290E+01  0.10420299753E+02 -0.24806964119E+01  0.12753738145E+02  0.51100000000E-03 0. -1.
        -11    1    3    3    0    0 -0.13611682778E+02  0.25744878785E+02 -0.85145325067E+01  0.30340961682E+02  0.51100000000E-03 0.  1.
        -12    1    3    3    0    0 -0.65209054310E+01 -0.23824665864E+02  0.15882964686E+02  0.29366741024E+02  0.00000000000E+00 0.  1.
</event>
<event>
 7    1  0.2886818E-013  0.7246157E+02  0.7816164E-02  0.1226708E+00
        -11   -1    0    0    0    0  0.00000000000E+00  0.00000000000E+00  0.45593999997E+02  0.45594000000E+02  0.51100000000E-03 0.  1.
         11   -1    0    0    0    0 -0.00000000000E+00 -0.00000000000E+00 -0.45593999997E+02  0.45594000000E+02  0.51100000000E-03 0. -1.
    9900012    2    1    2    0    0 -0.64072623231E+01 -0.12637808441E+02  0.12243848784E+02  0.72461573600E+02  0.70000004307E+02 0.  0.
         12    1    1    2    0    0  0.64072623231E+01  0.12637808441E+02 -0.12243848784E+02  0.18726426400E+02  0.00000000000E+00 0. -1.
         11    1    3    3    0    0 -0.63138470182E+01  0.13001017380E+02 -0.12299820087E+02  0.18978321620E+02  0.51100000000E-03 0. -1.
        -11    1    3    3    0    0 -0.10623564507E+02  0.14011246297E+00 -0.59588277778E+01  0.12181436002E+02  0.51100000000E-03 0.  1.
        -12    1    3    3    0    0  0.10530149202E+02 -0.25778938284E+02  0.30502496648E+02  0.41301815978E+02  0.00000000000E+00 0.  1.
</event>
<event>
 7    1  0.2886818E-013  0.7246157E+02  0.7816164E-02  0.1226708E+00
        -11   -1    0    0    0    0  0.00000000000E+00  0.00000000000E+00  0.45593999997E+02  0.45594000000E+02  0.51100000000E-03 0.  1.
         11   -1    0    0    0    0 -0.00000000000E+00 -0.00000000000E+00 -0.45593999997E+02  0.45594000000E+02  0.51100000000E-03 0. -1.
    9900012    2    1    2    0    0  0.11740722096E+02  0.90468574233E+01  0.11445049763E+02  0.72461565511E+02  0.69999993769E+02 0.  0.
         12    1    1    2    0    0 -0.11740722096E+02 -0.90468574233E+01 -0.11445049763E+02  0.18726434489E+02  0.00000000000E+00 0. -1.
         11    1    3    3    0    0 -0.12414821192E+02 -0.48949302183E+01  0.13162463625E+02  0.18744027743E+02  0.51100000000E-03 0. -1.
        -11    1    3    3    0    0  0.23668320334E+02 -0.50548168573E+01  0.14944640531E+02  0.28444381550E+02  0.51100000000E-03 0.  1.
         12    1    3    3    0    0  0.48722295431E+00  0.18996604499E+02 -0.16662054393E+02  0.25273156219E+02  0.00000000000E+00 0. -1.
</event>
<event>
 7    1  0.2886818E-013  0.7246157E+02  0.7816164E-02  0.1226708E+00
        -11   -1    0    0    0    0  0.00000000000E+00  0.00000000000E+00  0.45593999997E+02  0.45594000000E+02  0.51100000000E-03 0. -1.
         11   -1    0    0    0    0 -0.00000000000E+00 -0.00000000000E+00 -0.45593999997E+02  0.45594000000E+02  0.51100000000E-03 0.  1.
    9900012    2    1    2    0    0 -0.13988270017E+02  0.11767103605E+02 -0.40672750952E+01  0.72461570761E+02  0.70000000608E+02 0.  0.
         12    1    1    2    0    0  0.13988270017E+02 -0.11767103605E+02  0.40672750952E+01  0.18726429239E+02  0.00000000000E+00 0. -1.
         11    1    3    3    0    0  0.84949595065E+01  0.19559624984E+02  0.12657034071E+02  0.24798059970E+02  0.51100000000E-03 0. -1.
        -11    1    3    3    0    0 -0.38903093810E+01  0.13153768761E+02 -0.13875354226E+02  0.19511063396E+02  0.51100000000E-03 0.  1.
        -12    1    3    3    0    0 -0.18592920143E+02 -0.20946290140E+02 -0.28489549400E+01  0.28152447395E+02  0.00000000000E+00 0.  1.
</event>
<event>
 7    1  0.2886818E-013  0.7246153E+02  0.7816164E-02  0.1226708E+00
        -11   -1    0    0    0    0  0.00000000000E+00  0.00000000000E+00  0.45593999997E+02  0.45594000000E+02  0.51100000000E-03 0.  1.
         11   -1    0    0    0    0 -0.00000000000E+00 -0.00000000000E+00 -0.45593999997E+02  0.45594000000E+02  0.51100000000E-03 0. -1.
    9900012    2    1    2    0    0 -0.12162375536E+01 -0.10479155073E+02  0.15472191652E+02  0.72461531050E+02  0.69999948877E+02 0.  0.
         12    1    1    2    0    0  0.12162375536E+01  0.10479155073E+02 -0.15472191652E+02  0.18726468950E+02  0.00000000000E+00 0. -1.
         11    1    3    3    0    0 -0.13617148733E+02 -0.25937704457E+02  0.30262443466E+01  0.29450796377E+02  0.51100000000E-03 0. -1.
        -11    1    3    3    0    0 -0.12011667602E+02  0.23962595547E+01 -0.88657098944E+00  0.12280400109E+02  0.51100000000E-03 0.  1.
        -12    1    3    3    0    0  0.24412578782E+02  0.13062289829E+02  0.13332518295E+02  0.30730334564E+02  0.00000000000E+00 0.  1.
</event>
<event>
 7    1  0.2886818E-013  0.7246153E+02  0.7816164E-02  0.1226708E+00
        -11   -1    0    0    0    0  0.00000000000E+00  0.00000000000E+00  0.45593999997E+02  0.45594000000E+02  0.51100000000E-03 0.  1.
         11   -1    0    0    0    0 -0.00000000000E+00 -0.00000000000E+00 -0.45593999997E+02  0.45594000000E+02  0.51100000000E-03 0. -1.
    9900012    2    1    2    0    0  0.10124683341E+02 -0.15393691328E+02  0.33474766179E+01  0.72461533564E+02  0.69999952152E+02 0.  0.
         12    1    1    2    0    0 -0.10124683341E+02  0.15393691328E+02 -0.33474766179E+01  0.18726466436E+02  0.00000000000E+00 0. -1.
         11    1    3    3    0    0 -0.48775466322E+01 -0.22424685643E+02 -0.18830672508E+02  0.29685875677E+02  0.51100000000E-03 0. -1.
        -11    1    3    3    0    0  0.16802755111E+02 -0.86303708129E+01  0.51680837890E+01  0.19583793555E+02  0.51100000000E-03 0.  1.
        -12    1    3    3    0    0 -0.18005251380E+01  0.15661365128E+02  0.17010065337E+02  0.23191864332E+02  0.00000000000E+00 0.  1.
</event>
<event>
 7    1  0.2886818E-013  0.7246158E+02  0.7816164E-02  0.1226708E+00
        -11   -1    0    0    0    0  0.00000000000E+00  0.00000000000E+00  0.45593999997E+02  0.45594000000E+02  0.51100000000E-03 0.  1.
         11   -1    0    0    0    0 -0.00000000000E+00 -0.00000000000E+00 -0.45593999997E+02  0.45594000000E+02  0.51100000000E-03 0. -1.
    9900012    2    1    2    0    0 -0.30939150637E+00  0.12206944335E+02  0.14197663082E+02  0.72461578823E+02  0.70000011110E+02 0.  0.
         12    1    1    2    0    0  0.30939150637E+00 -0.12206944335E+02 -0.14197663082E+02  0.18726421177E+02  0.00000000000E+00 0. -1.
         11    1    3    3    0    0  0.15282812383E+02 -0.17136371951E+02 -0.49821078220E+01  0.23495552699E+02  0.51100000000E-03 0. -1.
        -11    1    3    3    0    0 -0.80485832976E+01 -0.51640009741E+01  0.23923760417E+01  0.98574876385E+01  0.51100000000E-03 0.  1.
        -12    1    3    3    0    0 -0.75436205923E+01  0.34507317261E+02  0.16787394863E+02  0.39108538485E+02  0.00000000000E+00 0.  1.
</event>
<event>
 7    1  0.2886818E-013  0.7246162E+02  0.7816164E-02  0.1226708E+00
        -11   -1    0    0    0    0  0.00000000000E+00  0.00000000000E+00  0.45593999997E+02  0.45594000000E+02  0.51100000000E-03 0.  1.
         11   -1    0    0    0    0 -0.00000000000E+00 -0.00000000000E+00 -0.45593999997E+02  0.45594000000E+02  0.51100000000E-03 0. -1.
    9900012    2    1    2    0    0  0.18480889987E+02  0.24310781538E+01 -0.17955613377E+01  0.72461615506E+02  0.70000058896E+02 0.  0.
         12    1    1    2    0    0 -0.18480889987E+02 -0.24310781538E+01  0.17955613377E+01  0.18726384494E+02  0.00000000000E+00 0. -1.
         11    1    3    3    0    0  0.60465138482E+01  0.30233279883E+02 -0.17019800214E+02  0.35217682231E+02  0.51100000000E-03 0. -1.
        -11    1    3    3    0    0 -0.13511307158E+01  0.10313357952E+01  0.20819687946E+01  0.26877131648E+01  0.51100000000E-03 0.  1.
        -12    1    3    3    0    0  0.13785506855E+02 -0.28833537524E+02  0.13142270081E+02  0.34556220110E+02  0.00000000000E+00 0.  1.
</event>
<event>
 7    1  0.2886818E-013  0.7246176E+02  0.7816164E-02  0.1226707E+00
        -11   -1    0    0    0    0  0.00000000000E+00  0.00000000000E+00  0.45593999997E+02  0.45594000000E+02  0.51100000000E-03 0. -1.
         11   -1    0    0    0    0 -0.00000000000E+00 -0.00000000000E+00 -0.45593999997E+02  0.45594000000E+02  0.51100000000E-03 0.  1.
    9900012    2    1    2    0    0 -0.11108991993E+02 -0.25647769270E+01 -0.14855439942E+02  0.72461764937E+02  0.70000253558E+02 0.  0.
         12    1    1    2    0    0  0.11108991993E+02  0.25647769270E+01  0.14855439942E+02  0.18726235063E+02  0.00000000000E+00 0. -1.
         11    1    3    3    0    0  0.98146175475E+01  0.17991201468E+02 -0.38585349007E+01  0.20854216353E+02  0.51100000000E-03 0. -1.
        -11    1    3    3    0    0 -0.28438659099E+02 -0.36711767063E+01 -0.15485111536E+02  0.32588702786E+02  0.51100000000E-03 0.  1.
         12    1    3    3    0    0  0.75150495586E+01 -0.16884801688E+02  0.44882064956E+01  0.19018845798E+02  0.00000000000E+00 0. -1.
</event>
<event>
 7    1  0.2886818E-013  0.7246156E+02  0.7816164E-02  0.1226708E+00
        -11   -1    0    0    0    0  0.00000000000E+00  0.00000000000E+00  0.45593999997E+02  0.45594000000E+02  0.51100000000E-03 0. -1.
         11   -1    0    0    0    0 -0.00000000000E+00 -0.00000000000E+00 -0.45593999997E+02  0.45594000000E+02  0.51100000000E-03 0.  1.
    9900012    2    1    2    0    0  0.91765358109E+01 -0.15910154544E+02  0.36520995530E+01  0.72461557245E+02  0.69999983001E+02 0.  0.
         12    1    1    2    0    0 -0.91765358109E+01  0.15910154544E+02 -0.36520995530E+01  0.18726442755E+02  0.00000000000E+00 0. -1.
         11    1    3    3    0    0 -0.18958687577E+02 -0.11114114056E+02  0.41794643423E+00  0.21980219411E+02  0.51100000000E-03 0. -1.
        -11    1    3    3    0    0  0.35904630186E+01 -0.14559999568E+02  0.15314947967E+02  0.21434379944E+02  0.51100000000E-03 0.  1.
         12    1    3    3    0    0  0.24544760369E+02  0.97639590803E+01 -0.12080794848E+02  0.29046957890E+02  0.00000000000E+00 0. -1.
</event>
<event>
 7    1  0.2886818E-013  0.7246156E+02  0.7816164E-02  0.1226708E+00
        -11   -1    0    0    0    0  0.00000000000E+00  0.00000000000E+00  0.45593999997E+02  0.45594000000E+02  0.51100000000E-03 0.  1.
         11   -1    0    0    0    0 -0.00000000000E+00 -0.00000000000E+00 -0.45593999997E+02  0.45594000000E+02  0.51100000000E-03 0. -1.
    9900012    2    1    2    0    0  0.63678567385E+01  0.14513578492E+02  0.99742708552E+01  0.72461557755E+02  0.69999983665E+02 0.  0.
         12    1    1    2    0    0 -0.63678567385E+01 -0.14513578492E+02 -0.99742708552E+01  0.18726442245E+02  0.00000000000E+00 0. -1.
         11    1    3    3    0    0  0.21196316276E+02 -0.13575467318E+02  0.74742596076E+01  0.26257221740E+02  0.51100000000E-03 0. -1.
        -11    1    3    3    0    0 -0.31535406827E+00  0.18719524569E+00 -0.11693518042E+02  0.11699267272E+02  0.51100000000E-03 0.  1.
        -12    1    3    3    0    0 -0.14513105469E+02  0.27901850564E+02  0.14193529290E+02  0.34505068743E+02  0.00000000000E+00 0.  1.
</event>
<event>
 7    1  0.2886818E-013  0.7246154E+02  0.7816164E-02  0.1226708E+00
        -11   -1    0    0    0    0  0.00000000000E+00  0.00000000000E+00  0.45593999997E+02  0.45594000000E+02  0.51100000000E-03 0. -1.
         11   -1    0    0    0    0 -0.00000000000E+00 -0.00000000000E+00 -0.45593999997E+02  0.45594000000E+02  0.51100000000E-03 0.  1.
    9900012    2    1    2    0    0 -0.17755002252E+02 -0.89681264051E-01 -0.59524951019E+01  0.72461538892E+02  0.69999959093E+02 0.  0.
         12    1    1    2    0    0  0.17755002252E+02  0.89681264051E-01  0.59524951019E+01  0.18726461108E+02  0.00000000000E+00 0. -1.
         11    1    3    3    0    0 -0.62533543487E+01  0.24657471172E+02 -0.10813571889E+02  0.27641068403E+02  0.51100000000E-03 0. -1.
        -11    1    3    3    0    0  0.61101603993E+01  0.49104849907E+01 -0.45542363562E+01  0.90657593172E+01  0.51100000000E-03 0.  1.
        -12    1    3    3    0    0 -0.17611808302E+02 -0.29657637427E+02  0.94153131431E+01  0.35754711172E+02  0.00000000000E+00 0.  1.
</event>
<event>
 7    1  0.2886818E-013  0.7246154E+02  0.7816164E-02  0.1226708E+00
        -11   -1    0    0    0    0  0.00000000000E+00  0.00000000000E+00  0.45593999997E+02  0.45594000000E+02  0.51100000000E-03 0.  1.
         11   -1    0    0    0    0 -0.00000000000E+00 -0.00000000000E+00 -0.45593999997E+02  0.45594000000E+02  0.51100000000E-03 0. -1.
    9900012    2    1    2    0    0 -0.18307566950E+02 -0.29129027856E+01 -0.26510770651E+01  0.72461542249E+02  0.69999963466E+02 0.  0.
         12    1    1    2    0    0  0.18307566950E+02  0.29129027856E+01  0.26510770651E+01  0.18726457751E+02  0.00000000000E+00 0. -1.
         11    1    3    3    0    0 -0.12365371200E+02 -0.96440256657E+01 -0.12512035220E+02  0.20061422222E+02  0.51100000000E-03 0. -1.
        -11    1    3    3    0    0  0.89587779086E+01 -0.14126578896E+02 -0.10425183807E+02  0.19710514722E+02  0.51100000000E-03 0.  1.
         12    1    3    3    0    0 -0.14900973659E+02  0.20857701776E+02  0.20286141962E+02  0.32689605306E+02  0.00000000000E+00 0. -1.
</event>
<event>
 7    1  0.2886818E-013  0.7246151E+02  0.7816164E-02  0.1226708E+00
        -11   -1    0    0    0    0  0.00000000000E+00  0.00000000000E+00  0.45593999997E+02  0.45594000000E+02  0.51100000000E-03 0.  1.
         11   -1    0    0    0    0 -0.00000000000E+00 -0.00000000000E+00 -0.45593999997E+02  0.45594000000E+02  0.51100000000E-03 0. -1.
    9900012    2    1    2    0    0  0.28977321952E+01 -0.18322512586E+02  0.25631939295E+01  0.72461513878E+02  0.69999926508E+02 0.  0.
         12    1    1    2    0    0 -0.28977321952E+01  0.18322512586E+02 -0.25631939295E+01  0.18726486122E+02  0.00000000000E+00 0. -1.
         11    1    3    3    0    0 -0.88697881808E+01 -0.14562735963E+02 -0.29459086698E+02  0.34037981880E+02  0.51100000000E-03 0. -1.
        -11    1    3    3    0    0 -0.19375219592E+00 -0.82185506337E+01  0.97579981354E+01  0.12759335496E+02  0.51100000000E-03 0.  1.
        -12    1    3    3    0    0  0.11961272572E+02  0.44587740102E+01  0.22264282492E+02  0.25664196502E+02  0.00000000000E+00 0.  1.
</event>
<event>
 7    1  0.2886818E-013  0.7246164E+02  0.7816164E-02  0.1226708E+00
        -11   -1    0    0    0    0  0.00000000000E+00  0.00000000000E+00  0.45593999997E+02  0.45594000000E+02  0.51100000000E-03 0. -1.
         11   -1    0    0    0    0 -0.00000000000E+00 -0.00000000000E+00 -0.45593999997E+02  0.45594000000E+02  0.51100000000E-03 0.  1.
    9900012    2    1    2    0    0 -0.13718194842E+02 -0.10753436187E+02  0.68448102679E+01  0.72461636574E+02  0.70000086341E+02 0.  0.
         12    1    1    2    0    0  0.13718194842E+02  0.10753436187E+02 -0.68448102679E+01  0.18726363426E+02  0.00000000000E+00 0. -1.
         11    1    3    3    0    0  0.15517408626E+01 -0.41434616482E+01  0.23685289026E+01  0.50185758496E+01  0.51100000000E-03 0. -1.
        -11    1    3    3    0    0 -0.13447341094E+02 -0.35531854012E+02  0.58104066350E+01  0.38433116678E+02  0.51100000000E-03 0.  1.
         12    1    3    3    0    0 -0.18225946106E+01  0.28921879473E+02 -0.13341252697E+01  0.29009944047E+02  0.00000000000E+00 0. -1.
</event>
<event>
 7    1  0.2886818E-013  0.7246168E+02  0.7816164E-02  0.1226708E+00
        -11   -1    0    0    0    0  0.00000000000E+00  0.00000000000E+00  0.45593999997E+02  0.45594000000E+02  0.51100000000E-03 0. -1.
         11   -1    0    0    0    0 -0.00000000000E+00 -0.00000000000E+00 -0.45593999997E+02  0.45594000000E+02  0.51100000000E-03 0.  1.
    9900012    2    1    2    0    0  0.11536837230E+02  0.28522466913E+01 -0.14472085445E+02  0.72461676774E+02  0.70000138709E+02 0.  0.
         12    1    1    2    0    0 -0.11536837230E+02 -0.28522466913E+01  0.14472085445E+02  0.18726323226E+02  0.00000000000E+00 0. -1.
         11    1    3    3    0    0  0.18023318842E+02  0.40137802148E+01  0.48837380434E+01  0.19099773591E+02  0.51100000000E-03 0. -1.
        -11    1    3    3    0    0  0.20226697092E+02  0.72496816602E+01 -0.10983116049E+02  0.24131017340E+02  0.51100000000E-03 0.  1.
         12    1    3    3    0    0 -0.26713178704E+02 -0.84112151837E+01 -0.83727074391E+01  0.29230885843E+02  0.00000000000E+00 0. -1.
</event>
<event>
 7    1  0.2886818E-013  0.7246155E+02  0.7816164E-02  0.1226708E+00
        -11   -1    0    0    0    0  0.00000000000E+00  0.00000000000E+00  0.45593999997E+02  0.45594000000E+02  0.51100000000E-03 0.  1.
         11   -1    0    0    0    0 -0.00000000000E+00 -0.00000000000E+00 -0.45593999997E+02  0.45594000000E+02  0.51100000000E-03 0. -1.
    9900012    2    1    2    0    0  0.93847244790E+01 -0.68647875808E+01  0.14679285434E+02  0.72461553916E+02  0.69999978664E+02 0.  0.
         12    1    1    2    0    0 -0.93847244790E+01  0.68647875808E+01 -0.14679285434E+02  0.18726446084E+02  0.00000000000E+00 0. -1.
         11    1    3    3    0    0  0.27956488713E+02 -0.65534808756E+01  0.18082766080E+02  0.33933756086E+02  0.51100000000E-03 0. -1.
        -11    1    3    3    0    0  0.76367271277E+01 -0.61440467942E+01 -0.60974410356E+01  0.11543296742E+02  0.51100000000E-03 0.  1.
         12    1    3    3    0    0 -0.26208491361E+02  0.58327400890E+01  0.26939603902E+01  0.26984501088E+02  0.00000000000E+00 0. -1.
</event>
<event>
 7    1  0.2886818E-013  0.7246146E+02  0.7816164E-02  0.1226708E+00
        -11   -1    0    0    0    0  0.00000000000E+00  0.00000000000E+00  0.45593999997E+02  0.45594000000E+02  0.51100000000E-03 0. -1.
         11   -1    0    0    0    0 -0.00000000000E+00 -0.00000000000E+00 -0.45593999997E+02  0.45594000000E+02  0.51100000000E-03 0.  1.
    9900012    2    1    2    0    0  0.44831792369E+01  0.11200595376E+02 -0.14322401077E+02  0.72461457194E+02  0.69999852665E+02 0.  0.
         12    1    1    2    0    0 -0.44831792369E+01 -0.11200595376E+02  0.14322401077E+02  0.18726542806E+02  0.00000000000E+00 0. -1.
         11    1    3    3    0    0  0.63248475430E+01 -0.59950547595E+01 -0.98854086902E+01  0.13178227621E+02  0.51100000000E-03 0. -1.
        -11    1    3    3    0    0 -0.15430464194E+02 -0.64048808742E+01 -0.21437920169E+02  0.27179149098E+02  0.51100000000E-03 0.  1.
         12    1    3    3    0    0  0.13588795888E+02  0.23600531010E+02  0.17000927782E+02  0.32104080474E+02  0.00000000000E+00 0. -1.
</event>
<event>
 7    1  0.2886818E-013  0.7246161E+02  0.7816164E-02  0.1226708E+00
        -11   -1    0    0    0    0  0.00000000000E+00  0.00000000000E+00  0.45593999997E+02  0.45594000000E+02  0.51100000000E-03 0.  1.
         11   -1    0    0    0    0 -0.00000000000E+00 -0.00000000000E+00 -0.45593999997E+02  0.45594000000E+02  0.51100000000E-03 0. -1.
    9900012    2    1    2    0    0 -0.15534911124E+02  0.97204895312E+01  0.38543983893E+01  0.72461607734E+02  0.70000048772E+02 0.  0.
         12    1    1    2    0    0  0.15534911124E+02 -0.97204895312E+01 -0.38543983893E+01  0.18726392266E+02  0.00000000000E+00 0. -1.
         11    1    3    3    0    0  0.24855335607E+02  0.74777575859E+01 -0.57434164882E+01  0.26583667916E+02  0.51100000000E-03 0. -1.
        -11    1    3    3    0    0 -0.83767688247E+01 -0.34551881129E+01 -0.48709180250E+01  0.10287585893E+02  0.51100000000E-03 0.  1.
        -12    1    3    3    0    0 -0.32013477907E+02  0.56979200582E+01  0.14468732903E+02  0.35590353925E+02  0.00000000000E+00 0.  1.
</event>
<event>
 7    1  0.2886818E-013  0.7246155E+02  0.7816164E-02  0.1226708E+00
        -11   -1    0    0    0    0  0.00000000000E+00  0.00000000000E+00  0.45593999997E+02  0.45594000000E+02  0.51100000000E-03 0.  1.
         11   -1    0    0    0    0 -0.00000000000E+00 -0.00000000000E+00 -0.45593999997E+02  0.45594000000E+02  0.51100000000E-03 0. -1.
    9900012    2    1    2    0    0 -0.37669489914E+01 -0.10964521181E+02 -0.14706100413E+02  0.72461547619E+02  0.69999970461E+02 0.  0.
         12    1    1    2    0    0  0.37669489914E+01  0.10964521181E+02  0.14706100413E+02  0.18726452381E+02  0.00000000000E+00 0. -1.
         11    1    3    3    0    0  0.51134100695E+01  0.19912060769E+02 -0.13362769499E+02  0.24519395089E+02  0.51100000000E-03 0. -1.
        -11    1    3    3    0    0 -0.15498185800E+02 -0.37084022741E+01  0.87911116400E+01  0.18199715785E+02  0.51100000000E-03 0.  1.
        -12    1    3    3    0    0  0.66178267388E+01 -0.27168179676E+02 -0.10134442554E+02  0.29742436745E+02  0.00000000000E+00 0.  1.
</event>
<event>
 7    1  0.2886818E-013  0.7246172E+02  0.7816164E-02  0.1226708E+00
        -11   -1    0    0    0    0  0.00000000000E+00  0.00000000000E+00  0.45593999997E+02  0.45594000000E+02  0.51100000000E-03 0.  1.
         11   -1    0    0    0    0 -0.00000000000E+00 -0.00000000000E+00 -0.45593999997E+02  0.45594000000E+02  0.51100000000E-03 0. -1.
    9900012    2    1    2    0    0 -0.43678563450E-01  0.12218478461E+02  0.14190854113E+02  0.72461722629E+02  0.70000198444E+02 0.  0.
         12    1    1    2    0    0  0.43678563450E-01 -0.12218478461E+02 -0.14190854113E+02  0.18726277371E+02  0.00000000000E+00 0. -1.
         11    1    3    3    0    0 -0.24205288363E+01 -0.33948425916E+01  0.17898219020E+02  0.18377436176E+02  0.51100000000E-03 0. -1.
        -11    1    3    3    0    0 -0.17402985777E+01 -0.18198649099E+02  0.49492626867E+01  0.18939764242E+02  0.51100000000E-03 0.  1.
         12    1    3    3    0    0  0.41171488506E+01  0.33811970151E+02 -0.86566275932E+01  0.35144522211E+02  0.00000000000E+00 0. -1.
</event>
<event>
 7    1  0.2886818E-013  0.7246163E+02  0.7816164E-02  0.1226708E+00
        -11   -1    0    0    0    0  0.00000000000E+00  0.00000000000E+00  0.45593999997E+02  0.45594000000E+02  0.51100000000E-03 0. -1.
         11   -1    0    0    0    0 -0.00000000000E+00 -0.00000000000E+00 -0.45593999997E+02  0.45594000000E+02  0.51100000000E-03 0.  1.
    9900012    2    1    2    0    0 -0.39449006758E+01  0.10926215996E+02 -0.14687831315E+02  0.72461632865E+02  0.70000081510E+02 0.  0.
         12    1    1    2    0    0  0.39449006758E+01 -0.10926215996E+02  0.14687831315E+02  0.18726367135E+02  0.00000000000E+00 0. -1.
         11    1    3    3    0    0 -0.23380909145E+02  0.77349041883E-01  0.95848638351E+01  0.25269398694E+02  0.51100000000E-03 0.  1.
        -11    1    3    3    0    0 -0.68103323595E+01  0.49518424106E+00  0.34383708488E+01  0.76451441213E+01  0.51100000000E-03 0. -1.
        -12    1    3    3    0    0  0.26246340829E+02  0.10353682713E+02 -0.27711065999E+02  0.39547090050E+02  0.00000000000E+00 0.  1.
</event>
<event>
 7    1  0.2886818E-013  0.7246153E+02  0.7816164E-02  0.1226708E+00
        -11   -1    0    0    0    0  0.00000000000E+00  0.00000000000E+00  0.45593999997E+02  0.45594000000E+02  0.51100000000E-03 0.  1.
         11   -1    0    0    0    0 -0.00000000000E+00 -0.00000000000E+00 -0.45593999997E+02  0.45594000000E+02  0.51100000000E-03 0. -1.
    9900012    2    1    2    0    0 -0.12096652752E+02 -0.10183361034E+02 -0.10032490209E+02  0.72461529176E+02  0.69999946435E+02 0.  0.
         12    1    1    2    0    0  0.12096652752E+02  0.10183361034E+02  0.10032490209E+02  0.18726470824E+02  0.00000000000E+00 0. -1.
         11    1    3    3    0    0  0.14367574461E+02  0.57784270571E+01 -0.22484394447E+02  0.27301381083E+02  0.51100000000E-03 0.  1.
        -11    1    3    3    0    0 -0.80073740099E+01  0.65668474669E+01 -0.46876046509E+01  0.11367284716E+02  0.51100000000E-03 0. -1.
        -12    1    3    3    0    0 -0.18456853203E+02 -0.22528635558E+02  0.17139508889E+02  0.33792863377E+02  0.00000000000E+00 0.  1.
</event>
<event>
 7    1  0.2886818E-013  0.7246159E+02  0.7816164E-02  0.1226708E+00
        -11   -1    0    0    0    0  0.00000000000E+00  0.00000000000E+00  0.45593999997E+02  0.45594000000E+02  0.51100000000E-03 0.  1.
         11   -1    0    0    0    0 -0.00000000000E+00 -0.00000000000E+00 -0.45593999997E+02  0.45594000000E+02  0.51100000000E-03 0. -1.
    9900012    2    1    2    0    0  0.77332104192E+01  0.12519969649E+02  0.11581282590E+02  0.72461593782E+02  0.70000030597E+02 0.  0.
         12    1    1    2    0    0 -0.77332104192E+01 -0.12519969649E+02 -0.11581282590E+02  0.18726406218E+02  0.00000000000E+00 0. -1.
         11    1    3    3    0    0  0.18332999765E+02  0.27979467177E+02  0.20145501295E+02  0.39048568304E+02  0.51100000000E-03 0. -1.
        -11    1    3    3    0    0 -0.18871268751E+01  0.53001688334E+01  0.46575688375E+01  0.73038335990E+01  0.51100000000E-03 0.  1.
        -12    1    3    3    0    0 -0.87126624712E+01 -0.20759666361E+02 -0.13221787543E+02  0.26109191879E+02  0.00000000000E+00 0.  1.
</event>
<event>
 7    1  0.2886818E-013  0.7246156E+02  0.7816164E-02  0.1226708E+00
        -11   -1    0    0    0    0  0.00000000000E+00  0.00000000000E+00  0.45593999997E+02  0.45594000000E+02  0.51100000000E-03 0. -1.
         11   -1    0    0    0    0 -0.00000000000E+00 -0.00000000000E+00 -0.45593999997E+02  0.45594000000E+02  0.51100000000E-03 0.  1.
    9900012    2    1    2    0    0  0.12385139902E+02 -0.10780247705E+02 -0.90041117318E+01  0.72461562564E+02  0.69999989930E+02 0.  0.
         12    1    1    2    0    0 -0.12385139902E+02  0.10780247705E+02  0.90041117318E+01  0.18726437436E+02  0.00000000000E+00 0. -1.
         11    1    3    3    0    0  0.95332291213E+00 -0.19346184461E+02  0.31994846792E+00  0.19372300975E+02  0.51100000000E-03 0. -1.
        -11    1    3    3    0    0 -0.52056305356E+01  0.13642209270E+02 -0.25468341176E+02  0.29357194443E+02  0.51100000000E-03 0.  1.
         12    1    3    3    0    0  0.16637447525E+02 -0.50762725143E+01  0.16144280976E+02  0.23732067146E+02  0.00000000000E+00 0. -1.
</event>
<event>
 7    1  0.2886818E-013  0.7246157E+02  0.7816164E-02  0.1226708E+00
        -11   -1    0    0    0    0  0.00000000000E+00  0.00000000000E+00  0.45593999997E+02  0.45594000000E+02  0.51100000000E-03 0. -1.
         11   -1    0    0    0    0 -0.00000000000E+00 -0.00000000000E+00 -0.45593999997E+02  0.45594000000E+02  0.51100000000E-03 0.  1.
    9900012    2    1    2    0    0  0.22885504751E+01  0.82335180819E+00 -0.18567818455E+02  0.72461568048E+02  0.69999997074E+02 0.  0.
         12    1    1    2    0    0 -0.22885504751E+01 -0.82335180819E+00  0.18567818455E+02  0.18726431952E+02  0.00000000000E+00 0. -1.
         11    1    3    3    0    0  0.14941695504E+02 -0.58172537831E+01 -0.12354029590E+02  0.20241461249E+02  0.51100000000E-03 0. -1.
        -11    1    3    3    0    0 -0.34805584836E+01  0.79467198795E+01 -0.27590282363E+02  0.28922107899E+02  0.51100000000E-03 0.  1.
        -12    1    3    3    0    0 -0.91725865456E+01 -0.13061142882E+01  0.21376493498E+02  0.23297998900E+02  0.00000000000E+00 0.  1.
</event>
<event>
 7    1  0.2886818E-013  0.7246155E+02  0.7816164E-02  0.1226708E+00
        -11   -1    0    0    0    0  0.00000000000E+00  0.00000000000E+00  0.45593999997E+02  0.45594000000E+02  0.51100000000E-03 0.  1.
         11   -1    0    0    0    0 -0.00000000000E+00 -0.00000000000E+00 -0.45593999997E+02  0.45594000000E+02  0.51100000000E-03 0. -1.
    9900012    2    1    2    0    0  0.17144140965E+02 -0.55142304125E+01  0.51333738369E+01  0.72461552568E+02  0.69999976908E+02 0.  0.
         12    1    1    2    0    0 -0.17144140965E+02  0.55142304125E+01 -0.51333738369E+01  0.18726447432E+02  0.00000000000E+00 0. -1.
         11    1    3    3    0    0  0.73417578856E+01 -0.99991294730E+01  0.88253105118E+01  0.15223997667E+02  0.51100000000E-03 0. -1.
        -11    1    3    3    0    0 -0.30906415088E+01  0.44244833604E+01  0.25108956371E+02  0.25682441633E+02  0.51100000000E-03 0.  1.
         12    1    3    3    0    0  0.12893024589E+02  0.60415700132E-01 -0.28800893046E+02  0.31555113268E+02  0.00000000000E+00 0. -1.
</event>
<event>
 7    1  0.2886818E-013  0.7246159E+02  0.7816164E-02  0.1226708E+00
        -11   -1    0    0    0    0  0.00000000000E+00  0.00000000000E+00  0.45593999997E+02  0.45594000000E+02  0.51100000000E-03 0. -1.
         11   -1    0    0    0    0 -0.00000000000E+00 -0.00000000000E+00 -0.45593999997E+02  0.45594000000E+02  0.51100000000E-03 0.  1.
    9900012    2    1    2    0    0 -0.86367667188E+01 -0.15897859181E+02 -0.48314199477E+01  0.72461593922E+02  0.70000030779E+02 0.  0.
         12    1    1    2    0    0  0.86367667188E+01  0.15897859181E+02  0.48314199477E+01  0.18726406078E+02  0.00000000000E+00 0. -1.
         11    1    3    3    0    0 -0.68988342804E+01 -0.21282631176E+02  0.11141629271E+02  0.24993603327E+02  0.51100000000E-03 0. -1.
        -11    1    3    3    0    0 -0.62330153957E+01  0.45706605668E+00  0.14755182901E+02  0.16024194613E+02  0.51100000000E-03 0.  1.
        -12    1    3    3    0    0  0.44950829573E+01  0.49277059382E+01 -0.30728232119E+02  0.31443795982E+02  0.00000000000E+00 0.  1.
</event>
<event>
 7    1  0.2886818E-013  0.7246156E+02  0.7816164E-02  0.1226708E+00
        -11   -1    0    0    0    0  0.00000000000E+00  0.00000000000E+00  0.45593999997E+02  0.45594000000E+02  0.51100000000E-03 0.  1.
         11   -1    0    0    0    0 -0.00000000000E+00 -0.00000000000E+00 -0.45593999997E+02  0.45594000000E+02  0.51100000000E-03 0. -1.
    9900012    2    1    2    0    0 -0.10173671137E+02 -0.11937315413E+01  0.15676446300E+02  0.72461560189E+02  0.69999986836E+02 0.  0.
         12    1    1    2    0    0  0.10173671137E+02  0.11937315413E+01 -0.15676446300E+02  0.18726439811E+02  0.00000000000E+00 0. -1.
         11    1    3    3    0    0 -0.11907222299E+02 -0.11710336761E+02 -0.68538059850E+01  0.18052384515E+02  0.51100000000E-03 0. -1.
        -11    1    3    3    0    0 -0.20869948930E+02  0.79039371550E+01 -0.10113509212E+00  0.22316747511E+02  0.51100000000E-03 0.  1.
        -12    1    3    3    0    0  0.22603500092E+02  0.26126680648E+01  0.22631387377E+02  0.32092428164E+02  0.00000000000E+00 0.  1.
</event>
<event>
 7    1  0.2886818E-013  0.7246158E+02  0.7816164E-02  0.1226708E+00
        -11   -1    0    0    0    0  0.00000000000E+00  0.00000000000E+00  0.45593999997E+02  0.45594000000E+02  0.51100000000E-03 0.  1.
         11   -1    0    0    0    0 -0.00000000000E+00 -0.00000000000E+00 -0.45593999997E+02  0.45594000000E+02  0.51100000000E-03 0. -1.
    9900012    2    1    2    0    0  0.35523373972E+01 -0.16248142241E+02  0.86056663905E+01  0.72461582262E+02  0.70000015590E+02 0.  0.
         12    1    1    2    0    0 -0.35523373972E+01  0.16248142241E+02 -0.86056663905E+01  0.18726417738E+02  0.00000000000E+00 0. -1.
         11    1    3    3    0    0  0.13376351391E+02  0.22774853604E+01  0.19812649575E+02  0.24013637782E+02  0.51100000000E-03 0. -1.
        -11    1    3    3    0    0  0.11788797971E+02 -0.75119660072E+01  0.92116186529E+01  0.16740947087E+02  0.51100000000E-03 0.  1.
         12    1    3    3    0    0 -0.21612811964E+02 -0.11013661594E+02 -0.20418601837E+02  0.31706997393E+02  0.00000000000E+00 0. -1.
</event>
<event>
 7    1  0.2886818E-013  0.7246159E+02  0.7816164E-02  0.1226708E+00
        -11   -1    0    0    0    0  0.00000000000E+00  0.00000000000E+00  0.45593999997E+02  0.45594000000E+02  0.51100000000E-03 0.  1.
         11   -1    0    0    0    0 -0.00000000000E+00 -0.00000000000E+00 -0.45593999997E+02  0.45594000000E+02  0.51100000000E-03 0. -1.
    9900012    2    1    2    0    0 -0.55420831528E+00  0.16212215202E+02  0.93560388022E+01  0.72461587352E+02  0.70000022221E+02 0.  0.
         12    1    1    2    0    0  0.55420831528E+00 -0.16212215202E+02 -0.93560388022E+01  0.18726412648E+02  0.00000000000E+00 0. -1.
         11    1    3    3    0    0 -0.93531346426E+01 -0.48625086708E+01 -0.17228306051E+00  0.10542997673E+02  0.51100000000E-03 0. -1.
        -11    1    3    3    0    0 -0.21038778578E+01  0.12049212141E+02 -0.23218842026E+02  0.26243559982E+02  0.51100000000E-03 0.  1.
         12    1    3    3    0    0  0.10902804185E+02  0.90255117318E+01  0.32747163889E+02  0.35675029697E+02  0.00000000000E+00 0. -1.
</event>
<event>
 7    1  0.2886818E-013  0.7246160E+02  0.7816164E-02  0.1226708E+00
        -11   -1    0    0    0    0  0.00000000000E+00  0.00000000000E+00  0.45593999997E+02  0.45594000000E+02  0.51100000000E-03 0.  1.
         11   -1    0    0    0    0 -0.00000000000E+00 -0.00000000000E+00 -0.45593999997E+02  0.45594000000E+02  0.51100000000E-03 0. -1.
    9900012    2    1    2    0    0 -0.70606886006E+01 -0.14068446206E+02  0.10144134303E+02  0.72461602510E+02  0.70000041967E+02 0.  0.
         12    1    1    2    0    0  0.70606886006E+01  0.14068446206E+02 -0.10144134303E+02  0.18726397490E+02  0.00000000000E+00 0. -1.
         11    1    3    3    0    0  0.23244334242E+02 -0.13864829790E+02 -0.65680473084E+01  0.27850885536E+02  0.51100000000E-03 0. -1.
        -11    1    3    3    0    0  0.46728133006E+01 -0.16923242718E+01  0.64216936488E+01  0.81201782716E+01  0.51100000000E-03 0.  1.
        -12    1    3    3    0    0 -0.34977836143E+02  0.14887078553E+01  0.10290487963E+02  0.36490538703E+02  0.00000000000E+00 0.  1.
</event>
<event>
 7    1  0.2886818E-013  0.7246156E+02  0.7816164E-02  0.1226708E+00
        -11   -1    0    0    0    0  0.00000000000E+00  0.00000000000E+00  0.45593999997E+02  0.45594000000E+02  0.51100000000E-03 0.  1.
         11   -1    0    0    0    0 -0.00000000000E+00 -0.00000000000E+00 -0.45593999997E+02  0.45594000000E+02  0.51100000000E-03 0. -1.
    9900012    2    1    2    0    0 -0.13898429341E+02 -0.12542769792E+02  0.43843938908E+00  0.72461557698E+02  0.69999983591E+02 0.  0.
         12    1    1    2    0    0  0.13898429341E+02  0.12542769792E+02 -0.43843938908E+00  0.18726442302E+02  0.00000000000E+00 0. -1.
         11    1    3    3    0    0 -0.53394243566E+01 -0.28909749840E+02 -0.15885677617E+02  0.33416131462E+02  0.51100000000E-03 0. -1.
        -11    1    3    3    0    0 -0.75247918118E+01 -0.70421738451E+01 -0.30805102407E+00  0.10310654682E+02  0.51100000000E-03 0.  1.
        -12    1    3    3    0    0 -0.10342131724E+01  0.23409153894E+02  0.16632168030E+02  0.28734771554E+02  0.00000000000E+00 0.  1.
</event>
<event>
 7    1  0.2886818E-013  0.7246163E+02  0.7816164E-02  0.1226708E+00
        -11   -1    0    0    0    0  0.00000000000E+00  0.00000000000E+00  0.45593999997E+02  0.45594000000E+02  0.51100000000E-03 0.  1.
         11   -1    0    0    0    0 -0.00000000000E+00 -0.00000000000E+00 -0.45593999997E+02  0.45594000000E+02  0.51100000000E-03 0. -1.
    9900012    2    1    2    0    0  0.64554937079E+01 -0.81484691600E+01  0.15575810042E+02  0.72461633371E+02  0.70000082169E+02 0.  0.
         12    1    1    2    0    0 -0.64554937079E+01  0.81484691600E+01 -0.15575810042E+02  0.18726366629E+02  0.00000000000E+00 0. -1.
         11    1    3    3    0    0 -0.82808146374E+01  0.38101770652E+01  0.48481810575E+00  0.91282193874E+01  0.51100000000E-03 0. -1.
        -11    1    3    3    0    0 -0.87646958079E+01  0.19882382364E+02  0.28849371607E+01  0.21919212663E+02  0.51100000000E-03 0.  1.
        -12    1    3    3    0    0  0.23501004153E+02 -0.31841028590E+02  0.12206054775E+02  0.41414201321E+02  0.00000000000E+00 0.  1.
</event>
<event>
 7    1  0.2886818E-013  0.7246172E+02  0.7816164E-02  0.1226708E+00
        -11   -1    0    0    0    0  0.00000000000E+00  0.00000000000E+00  0.45593999997E+02  0.45594000000E+02  0.51100000000E-03 0. -1.
         11   -1    0    0    0    0 -0.00000000000E+00 -0.00000000000E+00 -0.45593999997E+02  0.45594000000E+02  0.51100000000E-03 0.  1.
    9900012    2    1    2    0    0  0.15306558268E+02 -0.10736726613E+02  0.10514006143E+01  0.72461722537E+02  0.70000198324E+02 0.  0.
         12    1    1    2    0    0 -0.15306558268E+02  0.10736726613E+02 -0.10514006143E+01  0.18726277463E+02  0.00000000000E+00 0. -1.
         11    1    3    3    0    0  0.14202033368E+02  0.98052023944E+00  0.19245590970E+02  0.23938503373E+02  0.51100000000E-03 0. -1.
        -11    1    3    3    0    0 -0.38171998965E+01  0.86558203329E+01  0.97547576203E+01  0.13588581132E+02  0.51100000000E-03 0.  1.
        -12    1    3    3    0    0  0.49217247968E+01 -0.20373067185E+02 -0.27948947975E+02  0.34934638032E+02  0.00000000000E+00 0.  1.
</event>
<event>
 7    1  0.2886818E-013  0.7246151E+02  0.7816164E-02  0.1226708E+00
        -11   -1    0    0    0    0  0.00000000000E+00  0.00000000000E+00  0.45593999997E+02  0.45594000000E+02  0.51100000000E-03 0.  1.
         11   -1    0    0    0    0 -0.00000000000E+00 -0.00000000000E+00 -0.45593999997E+02  0.45594000000E+02  0.51100000000E-03 0. -1.
    9900012    2    1    2    0    0 -0.24605393227E+01  0.98471035920E+01  0.15737271422E+02  0.72461510347E+02  0.69999921907E+02 0.  0.
         12    1    1    2    0    0  0.24605393227E+01 -0.98471035920E+01 -0.15737271422E+02  0.18726489653E+02  0.00000000000E+00 0. -1.
         11    1    3    3    0    0  0.81315467980E+01  0.93193103138E+00 -0.24147166016E+02  0.25496591451E+02  0.51100000000E-03 0. -1.
        -11    1    3    3    0    0  0.34518129181E+01  0.51323543370E+01  0.21893462341E+01  0.65611973493E+01  0.51100000000E-03 0.  1.
        -12    1    3    3    0    0 -0.14043899039E+02  0.37828182236E+01  0.37695091204E+02  0.40403721546E+02  0.00000000000E+00 0.  1.
</event>
<event>
 7    1  0.2886818E-013  0.7246161E+02  0.7816164E-02  0.1226708E+00
        -11   -1    0    0    0    0  0.00000000000E+00  0.00000000000E+00  0.45593999997E+02  0.45594000000E+02  0.51100000000E-03 0. -1.
         11   -1    0    0    0    0 -0.00000000000E+00 -0.00000000000E+00 -0.45593999997E+02  0.45594000000E+02  0.51100000000E-03 0.  1.
    9900012    2    1    2    0    0 -0.11745453561E+01 -0.66484668525E+00 -0.18677689681E+02  0.72461610339E+02  0.70000052166E+02 0.  0.
         12    1    1    2    0    0  0.11745453561E+01  0.66484668525E+00  0.18677689681E+02  0.18726389661E+02  0.00000000000E+00 0. -1.
         11    1    3    3    0    0  0.18562098398E+01 -0.13844613860E+02 -0.80693748826E+01  0.16131759332E+02  0.51100000000E-03 0.  1.
        -11    1    3    3    0    0 -0.18754569346E+01  0.87221673651E+01  0.21821462367E+02  0.23574769614E+02  0.51100000000E-03 0. -1.
         12    1    3    3    0    0 -0.11552982613E+01  0.44575998096E+01 -0.32429777165E+02  0.32755081393E+02  0.00000000000E+00 0. -1.
</event>
<event>
 7    1  0.2886818E-013  0.7246161E+02  0.7816164E-02  0.1226708E+00
        -11   -1    0    0    0    0  0.00000000000E+00  0.00000000000E+00  0.45593999997E+02  0.45594000000E+02  0.51100000000E-03 0. -1.
         11   -1    0    0    0    0 -0.00000000000E+00 -0.00000000000E+00 -0.45593999997E+02  0.45594000000E+02  0.51100000000E-03 0.  1.
    9900012    2    1    2    0    0  0.33500998854E+01 -0.16048659951E+02  0.90495800608E+01  0.72461613409E+02  0.70000056165E+02 0.  0.
         12    1    1    2    0    0 -0.33500998854E+01  0.16048659951E+02 -0.90495800608E+01  0.18726386591E+02  0.00000000000E+00 0. -1.
         11    1    3    3    0    0 -0.78636642288E+01  0.67569938558E+01 -0.90390035566E+01  0.13754917907E+02  0.51100000000E-03 0. -1.
        -11    1    3    3    0    0  0.39388448079E+01  0.73258028694E+01 -0.12593457858E+02  0.15092285022E+02  0.51100000000E-03 0.  1.
         12    1    3    3    0    0  0.72749193064E+01 -0.30131456677E+02  0.30682041476E+02  0.43614410480E+02  0.00000000000E+00 0. -1.
</event>
<event>
 7    1  0.2886818E-013  0.7246158E+02  0.7816164E-02  0.1226708E+00
        -11   -1    0    0    0    0  0.00000000000E+00  0.00000000000E+00  0.45593999997E+02  0.45594000000E+02  0.51100000000E-03 0.  1.
         11   -1    0    0    0    0 -0.00000000000E+00 -0.00000000000E+00 -0.45593999997E+02  0.45594000000E+02  0.51100000000E-03 0. -1.
    9900012    2    1    2    0    0 -0.47974327503E+01 -0.17932040964E+02 -0.24708759596E+01  0.72461583308E+02  0.70000016953E+02 0.  0.
         12    1    1    2    0    0  0.47974327503E+01  0.17932040964E+02  0.24708759596E+01  0.18726416692E+02  0.00000000000E+00 0. -1.
         11    1    3    3    0    0 -0.80086306307E+01 -0.15223739955E+00 -0.62237361323E+01  0.10143778020E+02  0.51100000000E-03 0. -1.
        -11    1    3    3    0    0 -0.25118174963E+02 -0.17571425339E+02 -0.79458604454E+01  0.31667244913E+02  0.51100000000E-03 0.  1.
        -12    1    3    3    0    0  0.28329372844E+02 -0.20837822542E+00  0.11698720618E+02  0.30650560375E+02  0.00000000000E+00 0.  1.
</event>
<event>
 7    1  0.2886818E-013  0.7246158E+02  0.7816164E-02  0.1226708E+00
        -11   -1    0    0    0    0  0.00000000000E+00  0.00000000000E+00  0.45593999997E+02  0.45594000000E+02  0.51100000000E-03 0.  1.
         11   -1    0    0    0    0 -0.00000000000E+00 -0.00000000000E+00 -0.45593999997E+02  0.45594000000E+02  0.51100000000E-03 0. -1.
    9900012    2    1    2    0    0  0.13026824666E+02  0.81249317689E+01  0.10722233123E+02  0.72461575881E+02  0.70000007277E+02 0.  0.
         12    1    1    2    0    0 -0.13026824666E+02 -0.81249317689E+01 -0.10722233123E+02  0.18726424119E+02  0.00000000000E+00 0. -1.
         11    1    3    3    0    0 -0.71086049635E+01 -0.21131900172E+02 -0.10494050671E+02  0.24641724152E+02  0.51100000000E-03 0. -1.
        -11    1    3    3    0    0  0.11652085095E+02 -0.54186288494E+00  0.37480189710E+01  0.12252034481E+02  0.51100000000E-03 0.  1.
        -12    1    3    3    0    0  0.84833445349E+01  0.29798694826E+02  0.17468264824E+02  0.35567817248E+02  0.00000000000E+00 0.  1.
</event>
<event>
 7    1  0.2886818E-013  0.7246159E+02  0.7816164E-02  0.1226708E+00
        -11   -1    0    0    0    0  0.00000000000E+00  0.00000000000E+00  0.45593999997E+02  0.45594000000E+02  0.51100000000E-03 0.  1.
         11   -1    0    0    0    0 -0.00000000000E+00 -0.00000000000E+00 -0.45593999997E+02  0.45594000000E+02  0.51100000000E-03 0. -1.
    9900012    2    1    2    0    0  0.48611114200E+01  0.46684173636E+01  0.17471521987E+02  0.72461585355E+02  0.70000019619E+02 0.  0.
         12    1    1    2    0    0 -0.48611114200E+01 -0.46684173636E+01 -0.17471521987E+02  0.18726414645E+02  0.00000000000E+00 0. -1.
         11    1    3    3    0    0  0.18941267865E+02 -0.17485228200E+02  0.77703305181E+00  0.25789699768E+02  0.51100000000E-03 0. -1.
        -11    1    3    3    0    0 -0.10382649491E+02  0.13798305674E+01  0.22473599578E+02  0.24794475617E+02  0.51100000000E-03 0.  1.
         12    1    3    3    0    0 -0.36975069538E+01  0.20773814996E+02 -0.57791106432E+01  0.21877409970E+02  0.00000000000E+00 0. -1.
</event>
<event>
 7    1  0.2886818E-013  0.7246156E+02  0.7816164E-02  0.1226708E+00
        -11   -1    0    0    0    0  0.00000000000E+00  0.00000000000E+00  0.45593999997E+02  0.45594000000E+02  0.51100000000E-03 0. -1.
         11   -1    0    0    0    0 -0.00000000000E+00 -0.00000000000E+00 -0.45593999997E+02  0.45594000000E+02  0.51100000000E-03 0.  1.
    9900012    2    1    2    0    0  0.16791083549E+02  0.46561957958E+01 -0.68599569139E+01  0.72461557335E+02  0.69999983118E+02 0.  0.
         12    1    1    2    0    0 -0.16791083549E+02 -0.46561957958E+01  0.68599569139E+01  0.18726442665E+02  0.00000000000E+00 0. -1.
         11    1    3    3    0    0  0.95708237888E+01  0.23589898038E+02  0.23242354444E+00  0.25458554130E+02  0.51100000000E-03 0.  1.
        -11    1    3    3    0    0  0.29904062876E+00 -0.18128017982E+02  0.15192406675E+02  0.23654252939E+02  0.51100000000E-03 0. -1.
         12    1    3    3    0    0  0.69212191313E+01 -0.80568426044E+00 -0.22284787133E+02  0.23348750266E+02  0.00000000000E+00 0. -1.
</event>
<event>
 7    1  0.2886818E-013  0.7246168E+02  0.7816164E-02  0.1226708E+00
        -11   -1    0    0    0    0  0.00000000000E+00  0.00000000000E+00  0.45593999997E+02  0.45594000000E+02  0.51100000000E-03 0.  1.
         11   -1    0    0    0    0 -0.00000000000E+00 -0.00000000000E+00 -0.45593999997E+02  0.45594000000E+02  0.51100000000E-03 0. -1.
    9900012    2    1    2    0    0 -0.61665378374E+01  0.17677570282E+02  0.39030030752E+00  0.72461681240E+02  0.70000144527E+02 0.  0.
         12    1    1    2    0    0  0.61665378374E+01 -0.17677570282E+02 -0.39030030752E+00  0.18726318760E+02  0.00000000000E+00 0. -1.
         11    1    3    3    0    0 -0.12203992532E+02  0.26062576986E+02 -0.22934586643E+02  0.36799329038E+02  0.51100000000E-03 0. -1.
        -11    1    3    3    0    0 -0.36979923714E+01 -0.48036360503E+00 -0.40782315407E+01  0.55261079914E+01  0.51100000000E-03 0.  1.
        -12    1    3    3    0    0  0.97354470660E+01 -0.79046430989E+01  0.27403118492E+02  0.30136244211E+02  0.00000000000E+00 0.  1.
</event>
<event>
 7    1  0.2886818E-013  0.7246156E+02  0.7816164E-02  0.1226708E+00
        -11   -1    0    0    0    0  0.00000000000E+00  0.00000000000E+00  0.45593999997E+02  0.45594000000E+02  0.51100000000E-03 0. -1.
         11   -1    0    0    0    0 -0.00000000000E+00 -0.00000000000E+00 -0.45593999997E+02  0.45594000000E+02  0.51100000000E-03 0.  1.
    9900012    2    1    2    0    0 -0.95876097485E+01  0.64248034149E+01 -0.14747172532E+02  0.72461562610E+02  0.69999989990E+02 0.  0.
         12    1    1    2    0    0  0.95876097485E+01 -0.64248034149E+01  0.14747172532E+02  0.18726437390E+02  0.00000000000E+00 0. -1.
         11    1    3    3    0    0 -0.86519272732E+01  0.65784966801E+01 -0.32631776755E+01  0.11348162535E+02  0.51100000000E-03 0. -1.
        -11    1    3    3    0    0  0.43200851766E+01  0.91134542009E+01 -0.34396763003E+02  0.35844880928E+02  0.51100000000E-03 0.  1.
         12    1    3    3    0    0 -0.52557676519E+01 -0.92671474660E+01  0.22912768147E+02  0.25268519147E+02  0.00000000000E+00 0. -1.
</event>
<event>
 7    1  0.2886818E-013  0.7246158E+02  0.7816164E-02  0.1226708E+00
        -11   -1    0    0    0    0  0.00000000000E+00  0.00000000000E+00  0.45593999997E+02  0.45594000000E+02  0.51100000000E-03 0. -1.
         11   -1    0    0    0    0 -0.00000000000E+00 -0.00000000000E+00 -0.45593999997E+02  0.45594000000E+02  0.51100000000E-03 0.  1.
    9900012    2    1    2    0    0  0.16132587774E+02  0.93757243615E+01 -0.15856351483E+01  0.72461579241E+02  0.70000011655E+02 0.  0.
         12    1    1    2    0    0 -0.16132587774E+02 -0.93757243615E+01  0.15856351483E+01  0.18726420759E+02  0.00000000000E+00 0. -1.
         11    1    3    3    0    0 -0.12603569710E+01  0.16685346787E+00 -0.19162933122E+02  0.19205060424E+02  0.51100000000E-03 0. -1.
        -11    1    3    3    0    0 -0.89725762105E+01  0.15042590697E+02 -0.48279232727E+01  0.18168530544E+02  0.51100000000E-03 0.  1.
         12    1    3    3    0    0  0.26365520956E+02 -0.58337198031E+01  0.22405221247E+02  0.35087988274E+02  0.00000000000E+00 0. -1.
</event>
<event>
 7    1  0.2886818E-013  0.7246161E+02  0.7816164E-02  0.1226708E+00
        -11   -1    0    0    0    0  0.00000000000E+00  0.00000000000E+00  0.45593999997E+02  0.45594000000E+02  0.51100000000E-03 0.  1.
         11   -1    0    0    0    0 -0.00000000000E+00 -0.00000000000E+00 -0.45593999997E+02  0.45594000000E+02  0.51100000000E-03 0. -1.
    9900012    2    1    2    0    0  0.60885442673E+01 -0.31624278706E+01  0.17424303278E+02  0.72461610437E+02  0.70000052293E+02 0.  0.
         12    1    1    2    0    0 -0.60885442673E+01  0.31624278706E+01 -0.17424303278E+02  0.18726389563E+02  0.00000000000E+00 0. -1.
         11    1    3    3    0    0  0.10236279568E+01  0.17963860197E+02 -0.15214640582E+02  0.23563390580E+02  0.51100000000E-03 0. -1.
        -11    1    3    3    0    0  0.41169079612E+01 -0.14702913569E+01 -0.48676711250E+01  0.65425461616E+01  0.51100000000E-03 0.  1.
        -12    1    3    3    0    0  0.94800834935E+00 -0.19655996710E+02  0.37506614985E+02  0.42355673695E+02  0.00000000000E+00 0.  1.
</event>
<event>
 7    1  0.2886818E-013  0.7246150E+02  0.7816164E-02  0.1226708E+00
        -11   -1    0    0    0    0  0.00000000000E+00  0.00000000000E+00  0.45593999997E+02  0.45594000000E+02  0.51100000000E-03 0. -1.
         11   -1    0    0    0    0 -0.00000000000E+00 -0.00000000000E+00 -0.45593999997E+02  0.45594000000E+02  0.51100000000E-03 0.  1.
    9900012    2    1    2    0    0  0.81792833546E+01 -0.11580391473E+02 -0.12234202842E+02  0.72461498404E+02  0.69999906349E+02 0.  0.
         12    1    1    2    0    0 -0.81792833546E+01  0.11580391473E+02  0.12234202842E+02  0.18726501596E+02  0.00000000000E+00 0. -1.
         11    1    3    3    0    0  0.22542367384E+02  0.17255615561E+02  0.25752653122E+01  0.28505202812E+02  0.51100000000E-03 0. -1.
        -11    1    3    3    0    0  0.62318986735E+01 -0.66452003586E+00 -0.39530745560E+01  0.74097872210E+01  0.51100000000E-03 0.  1.
        -12    1    3    3    0    0 -0.20594982703E+02 -0.28171486998E+02 -0.10856393598E+02  0.36546508371E+02  0.00000000000E+00 0.  1.
</event>
<event>
 7    1  0.2886818E-013  0.7246158E+02  0.7816164E-02  0.1226708E+00
        -11   -1    0    0    0    0  0.00000000000E+00  0.00000000000E+00  0.45593999997E+02  0.45594000000E+02  0.51100000000E-03 0. -1.
         11   -1    0    0    0    0 -0.00000000000E+00 -0.00000000000E+00 -0.45593999997E+02  0.45594000000E+02  0.51100000000E-03 0.  1.
    9900012    2    1    2    0    0 -0.62140081278E+01  0.14927842166E+01 -0.17602176558E+02  0.72461576921E+02  0.70000008633E+02 0.  0.
         12    1    1    2    0    0  0.62140081278E+01 -0.14927842166E+01  0.17602176558E+02  0.18726423079E+02  0.00000000000E+00 0. -1.
         11    1    3    3    0    0 -0.19328846122E+02  0.17077786332E+02  0.14860682594E+02  0.29767347309E+02  0.51100000000E-03 0. -1.
        -11    1    3    3    0    0 -0.30347423468E+00 -0.33816286686E+01  0.18617582633E+01  0.38721638854E+01  0.51100000000E-03 0.  1.
        -12    1    3    3    0    0  0.13418312229E+02 -0.12203373446E+02 -0.34324617416E+02  0.38822065727E+02  0.00000000000E+00 0.  1.
</event>
<event>
 7    1  0.2886818E-013  0.7246158E+02  0.7816164E-02  0.1226708E+00
        -11   -1    0    0    0    0  0.00000000000E+00  0.00000000000E+00  0.45593999997E+02  0.45594000000E+02  0.51100000000E-03 0.  1.
         11   -1    0    0    0    0 -0.00000000000E+00 -0.00000000000E+00 -0.45593999997E+02  0.45594000000E+02  0.51100000000E-03 0. -1.
    9900012    2    1    2    0    0  0.12712649356E+02  0.65521418010E+01 -0.12088700689E+02  0.72461582826E+02  0.70000016325E+02 0.  0.
         12    1    1    2    0    0 -0.12712649356E+02 -0.65521418010E+01  0.12088700689E+02  0.18726417174E+02  0.00000000000E+00 0. -1.
         11    1    3    3    0    0  0.15792516706E+02  0.47560990403E+01 -0.16512777608E+02  0.23338720757E+02  0.51100000000E-03 0. -1.
        -11    1    3    3    0    0 -0.12080686463E+02  0.22801901515E+02 -0.20719185313E+00  0.25805282925E+02  0.51100000000E-03 0.  1.
         12    1    3    3    0    0  0.90008191131E+01 -0.21005858754E+02  0.46312687723E+01  0.23317579144E+02  0.00000000000E+00 0. -1.
</event>
<event>
 7    1  0.2886818E-013  0.7246160E+02  0.7816164E-02  0.1226708E+00
        -11   -1    0    0    0    0  0.00000000000E+00  0.00000000000E+00  0.45593999997E+02  0.45594000000E+02  0.51100000000E-03 0.  1.
         11   -1    0    0    0    0 -0.00000000000E+00 -0.00000000000E+00 -0.45593999997E+02  0.45594000000E+02  0.51100000000E-03 0. -1.
    9900012    2    1    2    0    0 -0.63699941403E+01  0.10402526465E+02  0.14208753345E+02  0.72461600084E+02  0.70000038806E+02 0.  0.
         12    1    1    2    0    0  0.63699941403E+01 -0.10402526465E+02 -0.14208753345E+02  0.18726399916E+02  0.00000000000E+00 0. -1.
         11    1    3    3    0    0 -0.10447431944E+02  0.83904273265E+01 -0.21375662615E+02  0.25228298743E+02  0.51100000000E-03 0. -1.
        -11    1    3    3    0    0  0.12421961432E+02  0.77545377551E+01  0.57602796805E+01  0.15735908105E+02  0.51100000000E-03 0.  1.
        -12    1    3    3    0    0 -0.83445236287E+01 -0.57424386169E+01  0.29824136280E+02  0.31497393237E+02  0.00000000000E+00 0.  1.
</event>
<event>
 7    1  0.2886818E-013  0.7246158E+02  0.7816164E-02  0.1226708E+00
        -11   -1    0    0    0    0  0.00000000000E+00  0.00000000000E+00  0.45593999997E+02  0.45594000000E+02  0.51100000000E-03 0.  1.
         11   -1    0    0    0    0 -0.00000000000E+00 -0.00000000000E+00 -0.45593999997E+02  0.45594000000E+02  0.51100000000E-03 0. -1.
    9900012    2    1    2    0    0  0.15510154565E+02 -0.68924567580E+01  0.79125193509E+01  0.72461579699E+02  0.70000012252E+02 0.  0.
         12    1    1    2    0    0 -0.15510154565E+02  0.68924567580E+01 -0.79125193509E+01  0.18726420301E+02  0.00000000000E+00 0. -1.
         11    1    3    3    0    0  0.81962161451E+00 -0.13483181280E+01  0.17908919030E+02  0.17978295871E+02  0.51100000000E-03 0. -1.
        -11    1    3    3    0    0 -0.42132622206E+01 -0.14942265795E+02  0.15121317763E+02  0.21672035824E+02  0.51100000000E-03 0.  1.
         12    1    3    3    0    0  0.18903795172E+02  0.93981271650E+01 -0.25117717441E+02  0.32811248004E+02  0.00000000000E+00 0. -1.
</event>
<event>
 7    1  0.2886818E-013  0.7246163E+02  0.7816164E-02  0.1226708E+00
        -11   -1    0    0    0    0  0.00000000000E+00  0.00000000000E+00  0.45593999997E+02  0.45594000000E+02  0.51100000000E-03 0.  1.
         11   -1    0    0    0    0 -0.00000000000E+00 -0.00000000000E+00 -0.45593999997E+02  0.45594000000E+02  0.51100000000E-03 0. -1.
    9900012    2    1    2    0    0 -0.10402988928E+02 -0.13677871129E+02 -0.74411362662E+01  0.72461632328E+02  0.70000080810E+02 0.  0.
         12    1    1    2    0    0  0.10402988928E+02  0.13677871129E+02  0.74411362662E+01  0.18726367672E+02  0.00000000000E+00 0. -1.
         11    1    3    3    0    0 -0.89184684009E+01  0.59372197602E+01  0.11006937004E+02  0.15360414043E+02  0.51100000000E-03 0. -1.
        -11    1    3    3    0    0 -0.11410330426E+02  0.14376347205E+02 -0.90513570265E+01  0.20464654008E+02  0.51100000000E-03 0.  1.
         12    1    3    3    0    0  0.99258098991E+01 -0.33991438094E+02 -0.93967162438E+01  0.36636564277E+02  0.00000000000E+00 0. -1.
</event>
<event>
 7    1  0.2886818E-013  0.7246164E+02  0.7816164E-02  0.1226708E+00
        -11   -1    0    0    0    0  0.00000000000E+00  0.00000000000E+00  0.45593999997E+02  0.45594000000E+02  0.51100000000E-03 0. -1.
         11   -1    0    0    0    0 -0.00000000000E+00 -0.00000000000E+00 -0.45593999997E+02  0.45594000000E+02  0.51100000000E-03 0.  1.
    9900012    2    1    2    0    0 -0.58370443480E+01  0.14274671364E+02 -0.10622575789E+02  0.72461643022E+02  0.70000094741E+02 0.  0.
         12    1    1    2    0    0  0.58370443480E+01 -0.14274671364E+02  0.10622575789E+02  0.18726356978E+02  0.00000000000E+00 0. -1.
         11    1    3    3    0    0  0.19834577098E+02  0.14184804943E+02 -0.16194397958E+02  0.29272472827E+02  0.51100000000E-03 0. -1.
        -11    1    3    3    0    0 -0.10484585304E+02  0.10567676862E+02 -0.10904211390E+02  0.18452754525E+02  0.51100000000E-03 0.  1.
         12    1    3    3    0    0 -0.15187036142E+02 -0.10477810441E+02  0.16476033559E+02  0.24736415671E+02  0.00000000000E+00 0. -1.
</event>
<event>
 7    1  0.2886818E-013  0.7246150E+02  0.7816164E-02  0.1226708E+00
        -11   -1    0    0    0    0  0.00000000000E+00  0.00000000000E+00  0.45593999997E+02  0.45594000000E+02  0.51100000000E-03 0. -1.
         11   -1    0    0    0    0 -0.00000000000E+00 -0.00000000000E+00 -0.45593999997E+02  0.45594000000E+02  0.51100000000E-03 0.  1.
    9900012    2    1    2    0    0 -0.10007258437E+02 -0.11563770181E+02  0.10808133250E+02  0.72461501487E+02  0.69999910365E+02 0.  0.
         12    1    1    2    0    0  0.10007258437E+02  0.11563770181E+02 -0.10808133250E+02  0.18726498513E+02  0.00000000000E+00 0. -1.
         11    1    3    3    0    0 -0.11267063557E+02 -0.17319107436E+02  0.23697355020E+02  0.31439828861E+02  0.51100000000E-03 0. -1.
        -11    1    3    3    0    0 -0.31771582212E+01 -0.12737945453E+02  0.58047210625E+01  0.14354245909E+02  0.51100000000E-03 0.  1.
        -12    1    3    3    0    0  0.44369633407E+01  0.18493282709E+02 -0.18693942833E+02  0.26667426717E+02  0.00000000000E+00 0.  1.
</event>
<event>
 7    1  0.2886818E-013  0.7246147E+02  0.7816164E-02  0.1226708E+00
        -11   -1    0    0    0    0  0.00000000000E+00  0.00000000000E+00  0.45593999997E+02  0.45594000000E+02  0.51100000000E-03 0.  1.
         11   -1    0    0    0    0 -0.00000000000E+00 -0.00000000000E+00 -0.45593999997E+02  0.45594000000E+02  0.51100000000E-03 0. -1.
    9900012    2    1    2    0    0 -0.13633249316E+02 -0.12265613256E+02  0.37910511498E+01  0.72461472712E+02  0.69999872881E+02 0.  0.
         12    1    1    2    0    0  0.13633249316E+02  0.12265613256E+02 -0.37910511498E+01  0.18726527288E+02  0.00000000000E+00 0. -1.
         11    1    3    3    0    0  0.20632601409E+02 -0.98798469330E+01  0.97784823025E+01  0.24878390879E+02  0.51100000000E-03 0. -1.
        -11    1    3    3    0    0  0.17833487354E+01  0.85200760609E+01  0.23335966606E+01  0.90120864638E+01  0.51100000000E-03 0.  1.
         12    1    3    3    0    0 -0.36049199461E+02 -0.10905842383E+02 -0.83210278133E+01  0.38570995369E+02  0.00000000000E+00 0. -1.
</event>
<event>
 7    1  0.2886818E-013  0.7246157E+02  0.7816164E-02  0.1226708E+00
        -11   -1    0    0    0    0  0.00000000000E+00  0.00000000000E+00  0.45593999997E+02  0.45594000000E+02  0.51100000000E-03 0.  1.
         11   -1    0    0    0    0 -0.00000000000E+00 -0.00000000000E+00 -0.45593999997E+02  0.45594000000E+02  0.51100000000E-03 0. -1.
    9900012    2    1    2    0    0  0.48288296365E+01  0.92876360759E+01  0.15527444359E+02  0.72461566600E+02  0.69999995188E+02 0.  0.
         12    1    1    2    0    0 -0.48288296365E+01 -0.92876360759E+01 -0.15527444359E+02  0.18726433400E+02  0.00000000000E+00 0. -1.
         11    1    3    3    0    0  0.16540019042E+02 -0.24541859177E+02  0.10893791728E+01  0.29615229680E+02  0.51100000000E-03 0. -1.
        -11    1    3    3    0    0 -0.33693076910E+01 -0.60575575081E+00 -0.18041451195E+01  0.38696400633E+01  0.51100000000E-03 0.  1.
        -12    1    3    3    0    0 -0.83418817145E+01  0.34435251004E+02  0.16242210306E+02  0.38976696857E+02  0.00000000000E+00 0.  1.
</event>
<event>
 7    1  0.2886818E-013  0.7246138E+02  0.7816164E-02  0.1226709E+00
        -11   -1    0    0    0    0  0.00000000000E+00  0.00000000000E+00  0.45593999997E+02  0.45594000000E+02  0.51100000000E-03 0. -1.
         11   -1    0    0    0    0 -0.00000000000E+00 -0.00000000000E+00 -0.45593999997E+02  0.45594000000E+02  0.51100000000E-03 0.  1.
    9900012    2    1    2    0    0 -0.14581222457E+02  0.10572343872E+02  0.51283231752E+01  0.72461382530E+02  0.69999755401E+02 0.  0.
         12    1    1    2    0    0  0.14581222457E+02 -0.10572343872E+02 -0.51283231752E+01  0.18726617470E+02  0.00000000000E+00 0. -1.
         11    1    3    3    0    0  0.43479491590E+01  0.20774450035E+02  0.99467825988E+00  0.21247866276E+02  0.51100000000E-03 0. -1.
        -11    1    3    3    0    0 -0.31320695311E+02  0.45731419955E+01  0.41967139858E+01  0.31929797854E+02  0.51100000000E-03 0.  1.
        -12    1    3    3    0    0  0.12391523695E+02 -0.14775248159E+02 -0.63069070514E-01  0.19283718400E+02  0.00000000000E+00 0.  1.
</event>
<event>
 7    1  0.2886818E-013  0.7246156E+02  0.7816164E-02  0.1226708E+00
        -11   -1    0    0    0    0  0.00000000000E+00  0.00000000000E+00  0.45593999997E+02  0.45594000000E+02  0.51100000000E-03 0.  1.
         11   -1    0    0    0    0 -0.00000000000E+00 -0.00000000000E+00 -0.45593999997E+02  0.45594000000E+02  0.51100000000E-03 0. -1.
    9900012    2    1    2    0    0  0.12766228236E+02 -0.13064497147E+02 -0.41257709115E+01  0.72461557340E+02  0.69999983125E+02 0.  0.
         12    1    1    2    0    0 -0.12766228236E+02  0.13064497147E+02  0.41257709115E+01  0.18726442660E+02  0.00000000000E+00 0. -1.
         11    1    3    3    0    0  0.15820120200E+02 -0.31549733519E+02 -0.15814987259E+02  0.38675259670E+02  0.51100000000E-03 0. -1.
        -11    1    3    3    0    0 -0.53117806411E+00 -0.35065672786E+01 -0.49532138557E+01  0.60920022962E+01  0.51100000000E-03 0.  1.
        -12    1    3    3    0    0 -0.25227139001E+01  0.21991803651E+02  0.16642430203E+02  0.27694295375E+02  0.00000000000E+00 0.  1.
</event>
<event>
 7    1  0.2886818E-013  0.7246161E+02  0.7816164E-02  0.1226708E+00
        -11   -1    0    0    0    0  0.00000000000E+00  0.00000000000E+00  0.45593999997E+02  0.45594000000E+02  0.51100000000E-03 0.  1.
         11   -1    0    0    0    0 -0.00000000000E+00 -0.00000000000E+00 -0.45593999997E+02  0.45594000000E+02  0.51100000000E-03 0. -1.
    9900012    2    1    2    0    0 -0.12288470704E+02  0.47214982067E+00  0.14122613214E+02  0.72461611088E+02  0.70000053141E+02 0.  0.
         12    1    1    2    0    0  0.12288470704E+02 -0.47214982067E+00 -0.14122613214E+02  0.18726388912E+02  0.00000000000E+00 0. -1.
         11    1    3    3    0    0  0.14359104184E+01  0.62524604913E+01 -0.10458495561E+02  0.12269279954E+02  0.51100000000E-03 0. -1.
        -11    1    3    3    0    0 -0.19616236947E+02 -0.26691732669E+02  0.13113733888E+02  0.35626048920E+02  0.51100000000E-03 0.  1.
        -12    1    3    3    0    0  0.58918558244E+01  0.20911421999E+02  0.11467374886E+02  0.24566282215E+02  0.00000000000E+00 0.  1.
</event>
<event>
 7    1  0.2886818E-013  0.7246159E+02  0.7816164E-02  0.1226708E+00
        -11   -1    0    0    0    0  0.00000000000E+00  0.00000000000E+00  0.45593999997E+02  0.45594000000E+02  0.51100000000E-03 0.  1.
         11   -1    0    0    0    0 -0.00000000000E+00 -0.00000000000E+00 -0.45593999997E+02  0.45594000000E+02  0.51100000000E-03 0. -1.
    9900012    2    1    2    0    0  0.16641625073E+02 -0.57129096576E+01  0.64107175797E+01  0.72461592931E+02  0.70000029488E+02 0.  0.
         12    1    1    2    0    0 -0.16641625073E+02  0.57129096576E+01 -0.64107175797E+01  0.18726407069E+02  0.00000000000E+00 0. -1.
         11    1    3    3    0    0  0.75252952911E+01 -0.23198264818E+02 -0.10037051619E+02  0.26372940019E+02  0.51100000000E-03 0. -1.
        -11    1    3    3    0    0  0.38779155361E+01 -0.12138358238E+02  0.70959853617E+01  0.14585300070E+02  0.51100000000E-03 0.  1.
        -12    1    3    3    0    0  0.52384142458E+01  0.29623713398E+02  0.93517838373E+01  0.31503352842E+02  0.00000000000E+00 0.  1.
</event>
<event>
 7    1  0.2886818E-013  0.7246158E+02  0.7816164E-02  0.1226708E+00
        -11   -1    0    0    0    0  0.00000000000E+00  0.00000000000E+00  0.45593999997E+02  0.45594000000E+02  0.51100000000E-03 0.  1.
         11   -1    0    0    0    0 -0.00000000000E+00 -0.00000000000E+00 -0.45593999997E+02  0.45594000000E+02  0.51100000000E-03 0. -1.
    9900012    2    1    2    0    0 -0.15712804091E+02 -0.49817571906E+01 -0.88864251846E+01  0.72461583640E+02  0.70000017386E+02 0.  0.
         12    1    1    2    0    0  0.15712804091E+02  0.49817571906E+01  0.88864251846E+01  0.18726416360E+02  0.00000000000E+00 0. -1.
         11    1    3    3    0    0 -0.80438870504E+01 -0.56493572491E+01  0.11941597346E+02  0.15466774184E+02  0.51100000000E-03 0. -1.
        -11    1    3    3    0    0 -0.27951620256E+02  0.24246531130E+01 -0.23321840892E+02  0.36483972927E+02  0.51100000000E-03 0.  1.
         12    1    3    3    0    0  0.20282703215E+02 -0.17570530545E+01  0.24938183614E+01  0.20510836530E+02  0.00000000000E+00 0. -1.
</event>
<event>
 7    1  0.2886818E-013  0.7246172E+02  0.7816164E-02  0.1226708E+00
        -11   -1    0    0    0    0  0.00000000000E+00  0.00000000000E+00  0.45593999997E+02  0.45594000000E+02  0.51100000000E-03 0.  1.
         11   -1    0    0    0    0 -0.00000000000E+00 -0.00000000000E+00 -0.45593999997E+02  0.45594000000E+02  0.51100000000E-03 0. -1.
    9900012    2    1    2    0    0  0.87771627588E+01 -0.10969984110E+02  0.12381206543E+02  0.72461723998E+02  0.70000200227E+02 0.  0.
         12    1    1    2    0    0 -0.87771627588E+01  0.10969984110E+02 -0.12381206543E+02  0.18726276002E+02  0.00000000000E+00 0. -1.
         11    1    3    3    0    0  0.16368451211E+01  0.45386740254E+01  0.15762405039E+02  0.16484302737E+02  0.51100000000E-03 0. -1.
        -11    1    3    3    0    0  0.36957087436E+01 -0.35426013374E+02 -0.32228912886E+01  0.35763776579E+02  0.51100000000E-03 0.  1.
         12    1    3    3    0    0  0.34446088941E+01  0.19917355239E+02 -0.15830720708E+00  0.20213644682E+02  0.00000000000E+00 0. -1.
</event>
<event>
 7    1  0.2886818E-013  0.7246150E+02  0.7816164E-02  0.1226708E+00
        -11   -1    0    0    0    0  0.00000000000E+00  0.00000000000E+00  0.45593999997E+02  0.45594000000E+02  0.51100000000E-03 0.  1.
         11   -1    0    0    0    0 -0.00000000000E+00 -0.00000000000E+00 -0.45593999997E+02  0.45594000000E+02  0.51100000000E-03 0. -1.
    9900012    2    1    2    0    0 -0.11534632130E+02  0.13293501035E+02  0.63966447287E+01  0.72461495470E+02  0.69999902527E+02 0.  0.
         12    1    1    2    0    0  0.11534632130E+02 -0.13293501035E+02 -0.63966447287E+01  0.18726504530E+02  0.00000000000E+00 0. -1.
         11    1    3    3    0    0  0.59670052952E+01  0.14954736006E+02 -0.34337254356E+01  0.16463284965E+02  0.51100000000E-03 0. -1.
        -11    1    3    3    0    0 -0.50490307281E+01  0.24225731831E+02  0.11364237906E+02  0.27230951094E+02  0.51100000000E-03 0.  1.
         12    1    3    3    0    0 -0.12452606697E+02 -0.25886966802E+02 -0.15338677414E+01  0.28767259411E+02  0.00000000000E+00 0. -1.
</event>
<event>
 7    1  0.2886818E-013  0.7246163E+02  0.7816164E-02  0.1226708E+00
        -11   -1    0    0    0    0  0.00000000000E+00  0.00000000000E+00  0.45593999997E+02  0.45594000000E+02  0.51100000000E-03 0.  1.
         11   -1    0    0    0    0 -0.00000000000E+00 -0.00000000000E+00 -0.45593999997E+02  0.45594000000E+02  0.51100000000E-03 0. -1.
    9900012    2    1    2    0    0 -0.22489859312E+01 -0.11682155862E+02  0.14461887629E+02  0.72461630969E+02  0.70000079040E+02 0.  0.
         12    1    1    2    0    0  0.22489859312E+01  0.11682155862E+02 -0.14461887629E+02  0.18726369031E+02  0.00000000000E+00 0. -1.
         11    1    3    3    0    0 -0.16966289219E+02  0.12536748440E+02  0.20791319196E+02  0.29619317775E+02  0.51100000000E-03 0. -1.
        -11    1    3    3    0    0 -0.21572178989E+01  0.37471021537E+01 -0.90872981682E+01  0.10063466196E+02  0.51100000000E-03 0.  1.
        -12    1    3    3    0    0  0.16874521186E+02 -0.27966006455E+02  0.27578666010E+01  0.32778846998E+02  0.00000000000E+00 0.  1.
</event>
<event>
 7    1  0.2886818E-013  0.7246158E+02  0.7816164E-02  0.1226708E+00
        -11   -1    0    0    0    0  0.00000000000E+00  0.00000000000E+00  0.45593999997E+02  0.45594000000E+02  0.51100000000E-03 0.  1.
         11   -1    0    0    0    0 -0.00000000000E+00 -0.00000000000E+00 -0.45593999997E+02  0.45594000000E+02  0.51100000000E-03 0. -1.
    9900012    2    1    2    0    0  0.13073605736E+01  0.17629902009E+02  0.61770765769E+01  0.72461577182E+02  0.70000008972E+02 0.  0.
         12    1    1    2    0    0 -0.13073605736E+01 -0.17629902009E+02 -0.61770765769E+01  0.18726422818E+02  0.00000000000E+00 0. -1.
         11    1    3    3    0    0  0.19883786314E+02  0.74870772612E+01  0.38541143438E+01  0.21593412924E+02  0.51100000000E-03 0. -1.
        -11    1    3    3    0    0  0.52928551332E+01  0.21398102951E+02  0.87348263048E+01  0.23710552844E+02  0.51100000000E-03 0.  1.
         12    1    3    3    0    0 -0.23869280873E+02 -0.11255278203E+02 -0.64118640716E+01  0.27157611414E+02  0.00000000000E+00 0. -1.
</event>
<event>
 7    1  0.2886818E-013  0.7246158E+02  0.7816164E-02  0.1226708E+00
        -11   -1    0    0    0    0  0.00000000000E+00  0.00000000000E+00  0.45593999997E+02  0.45594000000E+02  0.51100000000E-03 0. -1.
         11   -1    0    0    0    0 -0.00000000000E+00 -0.00000000000E+00 -0.45593999997E+02  0.45594000000E+02  0.51100000000E-03 0.  1.
    9900012    2    1    2    0    0 -0.15273191593E+02 -0.47517779472E+01 -0.97380188247E+01  0.72461580542E+02  0.70000013350E+02 0.  0.
         12    1    1    2    0    0  0.15273191593E+02  0.47517779472E+01  0.97380188247E+01  0.18726419458E+02  0.00000000000E+00 0. -1.
         11    1    3    3    0    0  0.52840981280E+01  0.12924158353E+02  0.16050085274E+01  0.14054594081E+02  0.51100000000E-03 0. -1.
        -11    1    3    3    0    0 -0.33301956732E+02  0.17986540870E+01 -0.11041903152E+02  0.35130885332E+02  0.51100000000E-03 0.  1.
         12    1    3    3    0    0  0.12744667011E+02 -0.19474590387E+02 -0.30112420025E+00  0.23276101129E+02  0.00000000000E+00 0. -1.
</event>
<event>
 7    1  0.2886818E-013  0.7246160E+02  0.7816164E-02  0.1226708E+00
        -11   -1    0    0    0    0  0.00000000000E+00  0.00000000000E+00  0.45593999997E+02  0.45594000000E+02  0.51100000000E-03 0.  1.
         11   -1    0    0    0    0 -0.00000000000E+00 -0.00000000000E+00 -0.45593999997E+02  0.45594000000E+02  0.51100000000E-03 0. -1.
    9900012    2    1    2    0    0 -0.20534427140E+00 -0.17394516519E+02 -0.69330234803E+01  0.72461596560E+02  0.70000034216E+02 0.  0.
         12    1    1    2    0    0  0.20534427140E+00  0.17394516519E+02  0.69330234803E+01  0.18726403440E+02  0.00000000000E+00 0. -1.
         11    1    3    3    0    0  0.18342369890E+02 -0.59877072392E+01 -0.78767782988E+01  0.20840796717E+02  0.51100000000E-03 0. -1.
        -11    1    3    3    0    0 -0.62699353167E+01  0.16636673680E+02 -0.83298893653E+01  0.19633595114E+02  0.51100000000E-03 0.  1.
        -12    1    3    3    0    0 -0.12277778845E+02 -0.28043482960E+02  0.92736441839E+01  0.31987204729E+02  0.00000000000E+00 0.  1.
</event>
<event>
 7    1  0.2886818E-013  0.7246156E+02  0.7816164E-02  0.1226708E+00
        -11   -1    0    0    0    0  0.00000000000E+00  0.00000000000E+00  0.45593999997E+02  0.45594000000E+02  0.51100000000E-03 0.  1.
         11   -1    0    0    0    0 -0.00000000000E+00 -0.00000000000E+00 -0.45593999997E+02  0.45594000000E+02  0.51100000000E-03 0. -1.
    9900012    2    1    2    0    0  0.12723540812E+02  0.10924446586E+02  0.83335157637E+01  0.72461561231E+02  0.69999988193E+02 0.  0.
         12    1    1    2    0    0 -0.12723540812E+02 -0.10924446586E+02 -0.83335157637E+01  0.18726438769E+02  0.00000000000E+00 0. -1.
         11    1    3    3    0    0 -0.18043243482E+01 -0.11056843008E+02 -0.12001241518E+02  0.16417647879E+02  0.51100000000E-03 0. -1.
        -11    1    3    3    0    0 -0.16384855347E+02  0.67556138021E+01  0.79867824988E+01  0.19439405791E+02  0.51100000000E-03 0.  1.
         12    1    3    3    0    0  0.30912720507E+02  0.15225675791E+02  0.12347974783E+02  0.36604507560E+02  0.00000000000E+00 0. -1.
</event>
<event>
 7    1  0.2886818E-013  0.7246157E+02  0.7816164E-02  0.1226708E+00
        -11   -1    0    0    0    0  0.00000000000E+00  0.00000000000E+00  0.45593999997E+02  0.45594000000E+02  0.51100000000E-03 0.  1.
         11   -1    0    0    0    0 -0.00000000000E+00 -0.00000000000E+00 -0.45593999997E+02  0.45594000000E+02  0.51100000000E-03 0. -1.
    9900012    2    1    2    0    0  0.14723379018E+01 -0.18606638051E+02  0.15180796634E+01  0.72461566161E+02  0.69999994616E+02 0.  0.
         12    1    1    2    0    0 -0.14723379018E+01  0.18606638051E+02 -0.15180796634E+01  0.18726433839E+02  0.00000000000E+00 0. -1.
         11    1    3    3    0    0  0.42681557037E+01 -0.80868594322E+01  0.28065082532E+02  0.29517169688E+02  0.51100000000E-03 0. -1.
        -11    1    3    3    0    0  0.26669930034E+01 -0.17998620514E+02 -0.40851558944E+01  0.18648101540E+02  0.51100000000E-03 0.  1.
         12    1    3    3    0    0 -0.54628108053E+01  0.74788418955E+01 -0.22461846974E+02  0.24296294933E+02  0.00000000000E+00 0. -1.
</event>
<event>
 7    1  0.2886818E-013  0.7246138E+02  0.7816164E-02  0.1226709E+00
        -11   -1    0    0    0    0  0.00000000000E+00  0.00000000000E+00  0.45593999997E+02  0.45594000000E+02  0.51100000000E-03 0.  1.
         11   -1    0    0    0    0 -0.00000000000E+00 -0.00000000000E+00 -0.45593999997E+02  0.45594000000E+02  0.51100000000E-03 0. -1.
    9900012    2    1    2    0    0 -0.11602077218E+02  0.63075365626E+01  0.13277536684E+02  0.72461382749E+02  0.69999755688E+02 0.  0.
         12    1    1    2    0    0  0.11602077218E+02 -0.63075365626E+01 -0.13277536684E+02  0.18726617251E+02  0.00000000000E+00 0. -1.
         11    1    3    3    0    0  0.17357106443E+02  0.21587581398E+02 -0.31395218422E+01  0.27877399670E+02  0.51100000000E-03 0. -1.
        -11    1    3    3    0    0 -0.13209053695E+02 -0.10146128703E+02 -0.51086655436E+01  0.17421868185E+02  0.51100000000E-03 0.  1.
        -12    1    3    3    0    0 -0.15750129967E+02 -0.51339161317E+01  0.21525724070E+02  0.27162114894E+02  0.00000000000E+00 0.  1.
</event>
<event>
 7    1  0.2886818E-013  0.7246157E+02  0.7816164E-02  0.1226708E+00
        -11   -1    0    0    0    0  0.00000000000E+00  0.00000000000E+00  0.45593999997E+02  0.45594000000E+02  0.51100000000E-03 0. -1.
         11   -1    0    0    0    0 -0.00000000000E+00 -0.00000000000E+00 -0.45593999997E+02  0.45594000000E+02  0.51100000000E-03 0.  1.
    9900012    2    1    2    0    0 -0.23526248733E+00  0.13816886409E+02 -0.12637937017E+02  0.72461570801E+02  0.70000000661E+02 0.  0.
         12    1    1    2    0    0  0.23526248733E+00 -0.13816886409E+02  0.12637937017E+02  0.18726429199E+02  0.00000000000E+00 0. -1.
         11    1    3    3    0    0  0.13571428329E+02 -0.86922524094E+01  0.15165807467E+02  0.22130084392E+02  0.51100000000E-03 0. -1.
        -11    1    3    3    0    0 -0.18732317919E+02  0.10493356136E+02 -0.21504974984E+01  0.21578574961E+02  0.51100000000E-03 0.  1.
         12    1    3    3    0    0  0.49256271033E+01  0.12015782683E+02 -0.25653246985E+02  0.28752911448E+02  0.00000000000E+00 0. -1.
</event>
<event>
 7    1  0.2886818E-013  0.7246161E+02  0.7816164E-02  0.1226708E+00
        -11   -1    0    0    0    0  0.00000000000E+00  0.00000000000E+00  0.45593999997E+02  0.45594000000E+02  0.51100000000E-03 0.  1.
         11   -1    0    0    0    0 -0.00000000000E+00 -0.00000000000E+00 -0.45593999997E+02  0.45594000000E+02  0.51100000000E-03 0. -1.
    9900012    2    1    2    0    0  0.52071865329E+01  0.50134043726E-01  0.17987779985E+02  0.72461613968E+02  0.70000056893E+02 0.  0.
         12    1    1    2    0    0 -0.52071865329E+01 -0.50134043726E-01 -0.17987779985E+02  0.18726386032E+02  0.00000000000E+00 0. -1.
         11    1    3    3    0    0  0.17353752140E+02  0.14780054002E+02 -0.15540573084E+02  0.27588260577E+02  0.51100000000E-03 0. -1.
        -11    1    3    3    0    0  0.59729989093E+01 -0.32751857958E+01  0.15248777302E+02  0.16701160661E+02  0.51100000000E-03 0.  1.
        -12    1    3    3    0    0 -0.18119564516E+02 -0.11454734163E+02  0.18279575767E+02  0.28172192730E+02  0.00000000000E+00 0.  1.
</event>
<event>
 7    1  0.2886818E-013  0.7246158E+02  0.7816164E-02  0.1226708E+00
        -11   -1    0    0    0    0  0.00000000000E+00  0.00000000000E+00  0.45593999997E+02  0.45594000000E+02  0.51100000000E-03 0.  1.
         11   -1    0    0    0    0 -0.00000000000E+00 -0.00000000000E+00 -0.45593999997E+02  0.45594000000E+02  0.51100000000E-03 0. -1.
    9900012    2    1    2    0    0 -0.96903317423E+01 -0.14776792659E+02  0.61986078383E+01  0.72461578300E+02  0.70000010428E+02 0.  0.
         12    1    1    2    0    0  0.96903317423E+01  0.14776792659E+02 -0.61986078383E+01  0.18726421700E+02  0.00000000000E+00 0. -1.
         11    1    3    3    0    0 -0.47534519565E+01 -0.20913293473E+02  0.94499443298E+01  0.23436352051E+02  0.51100000000E-03 0. -1.
        -11    1    3    3    0    0 -0.15771880631E+01  0.49369288714E+01  0.22468838483E+02  0.23058826767E+02  0.51100000000E-03 0.  1.
         12    1    3    3    0    0 -0.33596917227E+01  0.11995719422E+01 -0.25720174974E+02  0.25966399481E+02  0.00000000000E+00 0. -1.
</event>
<event>
 7    1  0.2886818E-013  0.7246153E+02  0.7816164E-02  0.1226708E+00
        -11   -1    0    0    0    0  0.00000000000E+00  0.00000000000E+00  0.45593999997E+02  0.45594000000E+02  0.51100000000E-03 0. -1.
         11   -1    0    0    0    0 -0.00000000000E+00 -0.00000000000E+00 -0.45593999997E+02  0.45594000000E+02  0.51100000000E-03 0.  1.
    9900012    2    1    2    0    0 -0.10747659868E+01  0.58358763617E+01 -0.17761421886E+02  0.72461529904E+02  0.69999947384E+02 0.  0.
         12    1    1    2    0    0  0.10747659868E+01 -0.58358763617E+01  0.17761421886E+02  0.18726470096E+02  0.00000000000E+00 0. -1.
         11    1    3    3    0    0 -0.20220643714E+02 -0.44226695364E+01 -0.15670212456E+02  0.25961317315E+02  0.51100000000E-03 0.  1.
        -11    1    3    3    0    0  0.25822306004E+02  0.20836954328E+02  0.22554691578E+01  0.33257439685E+02  0.51100000000E-03 0. -1.
         12    1    3    3    0    0 -0.66764282766E+01 -0.10578408430E+02 -0.43466785884E+01  0.13242772904E+02  0.00000000000E+00 0. -1.
</event>
<event>
 7    1  0.2886818E-013  0.7246150E+02  0.7816164E-02  0.1226708E+00
        -11   -1    0    0    0    0  0.00000000000E+00  0.00000000000E+00  0.45593999997E+02  0.45594000000E+02  0.51100000000E-03 0. -1.
         11   -1    0    0    0    0 -0.00000000000E+00 -0.00000000000E+00 -0.45593999997E+02  0.45594000000E+02  0.51100000000E-03 0.  1.
    9900012    2    1    2    0    0 -0.87847268742E+01  0.12936311917E+02 -0.10303503363E+02  0.72461500759E+02  0.69999909417E+02 0.  0.
         12    1    1    2    0    0  0.87847268742E+01 -0.12936311917E+02  0.10303503363E+02  0.18726499241E+02  0.00000000000E+00 0. -1.
         11    1    3    3    0    0 -0.50683835392E+01 -0.21266301571E+01 -0.30770280077E+01  0.62991403498E+01  0.51100000000E-03 0. -1.
        -11    1    3    3    0    0  0.32468084825E+01 -0.11147267400E+02 -0.29093843028E+02  0.31324990634E+02  0.51100000000E-03 0.  1.
         12    1    3    3    0    0 -0.69631518175E+01  0.26210209474E+02  0.21867367673E+02  0.34837369775E+02  0.00000000000E+00 0. -1.
</event>
<event>
 7    1  0.2886818E-013  0.7246159E+02  0.7816164E-02  0.1226708E+00
        -11   -1    0    0    0    0  0.00000000000E+00  0.00000000000E+00  0.45593999997E+02  0.45594000000E+02  0.51100000000E-03 0. -1.
         11   -1    0    0    0    0 -0.00000000000E+00 -0.00000000000E+00 -0.45593999997E+02  0.45594000000E+02  0.51100000000E-03 0.  1.
    9900012    2    1    2    0    0  0.59516471431E+01  0.35017076690E+01 -0.17406729189E+02  0.72461594009E+02  0.70000030892E+02 0.  0.
         12    1    1    2    0    0 -0.59516471431E+01 -0.35017076690E+01  0.17406729189E+02  0.18726405991E+02  0.00000000000E+00 0. -1.
         11    1    3    3    0    0 -0.91219727780E+01 -0.42684762995E+01 -0.59101817866E+01  0.11677350996E+02  0.51100000000E-03 0. -1.
        -11    1    3    3    0    0 -0.21459502322E+02  0.86275569678E+01 -0.37912287473E+01  0.23437542423E+02  0.51100000000E-03 0.  1.
        -12    1    3    3    0    0  0.36533122243E+02 -0.85737299933E+00 -0.77053186546E+01  0.37346700589E+02  0.00000000000E+00 0.  1.
</event>
<event>
 7    1  0.2886818E-013  0.7246158E+02  0.7816164E-02  0.1226708E+00
        -11   -1    0    0    0    0  0.00000000000E+00  0.00000000000E+00  0.45593999997E+02  0.45594000000E+02  0.51100000000E-03 0.  1.
         11   -1    0    0    0    0 -0.00000000000E+00 -0.00000000000E+00 -0.45593999997E+02  0.45594000000E+02  0.51100000000E-03 0. -1.
    9900012    2    1    2    0    0 -0.18175453186E+02  0.43212838446E+01 -0.12876758567E+01  0.72461582785E+02  0.70000016272E+02 0.  0.
         12    1    1    2    0    0  0.18175453186E+02 -0.43212838446E+01  0.12876758567E+01  0.18726417215E+02  0.00000000000E+00 0. -1.
         11    1    3    3    0    0 -0.15533453593E+01 -0.96423233398E+01 -0.16261123347E+01  0.99010869494E+01  0.51100000000E-03 0. -1.
        -11    1    3    3    0    0  0.20327552791E+02  0.57365042196E+01  0.10181256954E+02  0.23447278660E+02  0.51100000000E-03 0.  1.
         12    1    3    3    0    0 -0.36949660618E+02  0.82271029647E+01 -0.98428204758E+01  0.39113217176E+02  0.00000000000E+00 0. -1.
</event>
<event>
 7    1  0.2886818E-013  0.7246145E+02  0.7816164E-02  0.1226708E+00
        -11   -1    0    0    0    0  0.00000000000E+00  0.00000000000E+00  0.45593999997E+02  0.45594000000E+02  0.51100000000E-03 0.  1.
         11   -1    0    0    0    0 -0.00000000000E+00 -0.00000000000E+00 -0.45593999997E+02  0.45594000000E+02  0.51100000000E-03 0. -1.
    9900012    2    1    2    0    0 -0.72322734617E+01  0.51576948044E+01  0.16485635506E+02  0.72461447376E+02  0.69999839876E+02 0.  0.
         12    1    1    2    0    0  0.72322734617E+01 -0.51576948044E+01 -0.16485635506E+02  0.18726552624E+02  0.00000000000E+00 0. -1.
         11    1    3    3    0    0 -0.71823196046E+01  0.18838528450E+01  0.67073502211E+01  0.10006156290E+02  0.51100000000E-03 0. -1.
        -11    1    3    3    0    0  0.36882408273E+01 -0.78199540390E+01  0.34251682812E+02  0.35326089188E+02  0.51100000000E-03 0.  1.
        -12    1    3    3    0    0 -0.37381946844E+01  0.11093795998E+02 -0.24473397527E+02  0.27129201899E+02  0.00000000000E+00 0.  1.
</event>
<event>
 7    1  0.2886818E-013  0.7246156E+02  0.7816164E-02  0.1226708E+00
        -11   -1    0    0    0    0  0.00000000000E+00  0.00000000000E+00  0.45593999997E+02  0.45594000000E+02  0.51100000000E-03 0.  1.
         11   -1    0    0    0    0 -0.00000000000E+00 -0.00000000000E+00 -0.45593999997E+02  0.45594000000E+02  0.51100000000E-03 0. -1.
    9900012    2    1    2    0    0 -0.62435797360E+01 -0.10901675410E+02  0.13887066889E+02  0.72461563034E+02  0.69999990542E+02 0.  0.
         12    1    1    2    0    0  0.62435797360E+01  0.10901675410E+02 -0.13887066889E+02  0.18726436966E+02  0.00000000000E+00 0. -1.
         11    1    3    3    0    0 -0.61087626721E+01 -0.14179720172E+02 -0.20811296162E+01  0.15579234458E+02  0.51100000000E-03 0. -1.
        -11    1    3    3    0    0 -0.11540223926E+02 -0.19931537711E+02  0.20252475427E+02  0.30669296128E+02  0.51100000000E-03 0.  1.
         12    1    3    3    0    0  0.11405406862E+02  0.23209582473E+02 -0.42842789214E+01  0.26213032448E+02  0.00000000000E+00 0. -1.
</event>
<event>
 7    1  0.2886818E-013  0.7246130E+02  0.7816164E-02  0.1226709E+00
        -11   -1    0    0    0    0  0.00000000000E+00  0.00000000000E+00  0.45593999997E+02  0.45594000000E+02  0.51100000000E-03 0. -1.
         11   -1    0    0    0    0 -0.00000000000E+00 -0.00000000000E+00 -0.45593999997E+02  0.45594000000E+02  0.51100000000E-03 0.  1.
    9900012    2    1    2    0    0 -0.12137266591E+02  0.29398072821E+01 -0.13954700352E+02  0.72461297966E+02  0.69999645240E+02 0.  0.
         12    1    1    2    0    0  0.12137266591E+02 -0.29398072821E+01  0.13954700352E+02  0.18726702034E+02  0.00000000000E+00 0. -1.
         11    1    3    3    0    0 -0.53883706569E+01 -0.13977785232E+01 -0.33908099544E+01  0.65181220872E+01  0.51100000000E-03 0. -1.
        -11    1    3    3    0    0  0.10089650018E+02  0.21011210048E+02 -0.28066766595E+02  0.36483083375E+02  0.51100000000E-03 0.  1.
         12    1    3    3    0    0 -0.16838545952E+02 -0.16673624242E+02  0.17502876197E+02  0.29460092504E+02  0.00000000000E+00 0. -1.
</event>
<event>
 7    1  0.2886818E-013  0.7246157E+02  0.7816164E-02  0.1226708E+00
        -11   -1    0    0    0    0  0.00000000000E+00  0.00000000000E+00  0.45593999997E+02  0.45594000000E+02  0.51100000000E-03 0.  1.
         11   -1    0    0    0    0 -0.00000000000E+00 -0.00000000000E+00 -0.45593999997E+02  0.45594000000E+02  0.51100000000E-03 0. -1.
    9900012    2    1    2    0    0  0.34931844954E+01  0.17351964171E+02  0.61144259433E+01  0.72461569397E+02  0.69999998831E+02 0.  0.
         12    1    1    2    0    0 -0.34931844954E+01 -0.17351964171E+02 -0.61144259433E+01  0.18726430603E+02  0.00000000000E+00 0. -1.
         11    1    3    3    0    0 -0.55652396070E+01 -0.56670177031E+01 -0.13078675847E+02  0.15301592849E+02  0.51100000000E-03 0. -1.
        -11    1    3    3    0    0  0.20358980502E+02 -0.71837432097E+01  0.80596685484E+01  0.23044576606E+02  0.51100000000E-03 0.  1.
        -12    1    3    3    0    0 -0.11300556400E+02  0.30202725084E+02  0.11133433242E+02  0.34115399942E+02  0.00000000000E+00 0.  1.
</event>
<event>
 7    1  0.2886818E-013  0.7246160E+02  0.7816164E-02  0.1226708E+00
        -11   -1    0    0    0    0  0.00000000000E+00  0.00000000000E+00  0.45593999997E+02  0.45594000000E+02  0.51100000000E-03 0.  1.
         11   -1    0    0    0    0 -0.00000000000E+00 -0.00000000000E+00 -0.45593999997E+02  0.45594000000E+02  0.51100000000E-03 0. -1.
    9900012    2    1    2    0    0  0.12746361071E+02 -0.70081566372E+01  0.11793816613E+02  0.72461599110E+02  0.70000037537E+02 0.  0.
         12    1    1    2    0    0 -0.12746361071E+02  0.70081566372E+01 -0.11793816613E+02  0.18726400890E+02  0.00000000000E+00 0. -1.
         11    1    3    3    0    0 -0.60143770421E-01 -0.68853595905E+01 -0.17289430664E+02  0.18610110341E+02  0.51100000000E-03 0. -1.
        -11    1    3    3    0    0 -0.35121167234E+01 -0.17532158902E+02  0.23766715890E+01  0.18037741758E+02  0.51100000000E-03 0.  1.
         12    1    3    3    0    0  0.16318621565E+02  0.17409361855E+02  0.26706575687E+02  0.35813747011E+02  0.00000000000E+00 0. -1.
</event>
<event>
 7    1  0.2886818E-013  0.7246160E+02  0.7816164E-02  0.1226708E+00
        -11   -1    0    0    0    0  0.00000000000E+00  0.00000000000E+00  0.45593999997E+02  0.45594000000E+02  0.51100000000E-03 0.  1.
         11   -1    0    0    0    0 -0.00000000000E+00 -0.00000000000E+00 -0.45593999997E+02  0.45594000000E+02  0.51100000000E-03 0. -1.
    9900012    2    1    2    0    0  0.95853657124E+01  0.10298651069E+02  0.12358672729E+02  0.72461595078E+02  0.70000032285E+02 0.  0.
         12    1    1    2    0    0 -0.95853657124E+01 -0.10298651069E+02 -0.12358672729E+02  0.18726404922E+02  0.00000000000E+00 0. -1.
         11    1    3    3    0    0 -0.12037578944E+02  0.27417691575E+02 -0.13688994015E+01  0.29975106405E+02  0.51100000000E-03 0. -1.
        -11    1    3    3    0    0  0.57959015433E+01  0.59595984414E+01  0.11802150736E+02  0.14436067696E+02  0.51100000000E-03 0.  1.
         12    1    3    3    0    0  0.15827043114E+02 -0.23078638948E+02  0.19254213949E+01  0.28050420976E+02  0.00000000000E+00 0. -1.
</event>
<event>
 7    1  0.2886818E-013  0.7246159E+02  0.7816164E-02  0.1226708E+00
        -11   -1    0    0    0    0  0.00000000000E+00  0.00000000000E+00  0.45593999997E+02  0.45594000000E+02  0.51100000000E-03 0.  1.
         11   -1    0    0    0    0 -0.00000000000E+00 -0.00000000000E+00 -0.45593999997E+02  0.45594000000E+02  0.51100000000E-03 0. -1.
    9900012    2    1    2    0    0  0.77062233300E+01  0.82905318558E+01  0.14918434480E+02  0.72461588604E+02  0.70000023851E+02 0.  0.
         12    1    1    2    0    0 -0.77062233300E+01 -0.82905318558E+01 -0.14918434480E+02  0.18726411396E+02  0.00000000000E+00 0. -1.
         11    1    3    3    0    0  0.52162953880E+01  0.35501376519E+02  0.64931665766E+01  0.36465307962E+02  0.51100000000E-03 0. -1.
        -11    1    3    3    0    0 -0.24731987486E+01 -0.63957700686E+00 -0.51495028471E+01  0.57483172000E+01  0.51100000000E-03 0.  1.
        -12    1    3    3    0    0  0.49631266906E+01 -0.26571267657E+02  0.13574770750E+02  0.30247963441E+02  0.00000000000E+00 0.  1.
</event>
<event>
 7    1  0.2886818E-013  0.7246152E+02  0.7816164E-02  0.1226708E+00
        -11   -1    0    0    0    0  0.00000000000E+00  0.00000000000E+00  0.45593999997E+02  0.45594000000E+02  0.51100000000E-03 0. -1.
         11   -1    0    0    0    0 -0.00000000000E+00 -0.00000000000E+00 -0.45593999997E+02  0.45594000000E+02  0.51100000000E-03 0.  1.
    9900012    2    1    2    0    0  0.80052287187E+01  0.35269768325E+01 -0.16557715765E+02  0.72461515979E+02  0.69999929245E+02 0.  0.
         12    1    1    2    0    0 -0.80052287187E+01 -0.35269768325E+01  0.16557715765E+02  0.18726484021E+02  0.00000000000E+00 0. -1.
         11    1    3    3    0    0 -0.70369400302E+00 -0.11213735127E+02 -0.20680912695E+01  0.11424536861E+02  0.51100000000E-03 0. -1.
        -11    1    3    3    0    0 -0.17810312499E+02  0.96100232834E+01 -0.24902080390E+02  0.32088524224E+02  0.51100000000E-03 0.  1.
         12    1    3    3    0    0  0.26519235221E+02  0.51306886757E+01  0.10412455895E+02  0.28948454894E+02  0.00000000000E+00 0. -1.
</event>
<event>
 7    1  0.2886818E-013  0.7246179E+02  0.7816164E-02  0.1226707E+00
        -11   -1    0    0    0    0  0.00000000000E+00  0.00000000000E+00  0.45593999997E+02  0.45594000000E+02  0.51100000000E-03 0. -1.
         11   -1    0    0    0    0 -0.00000000000E+00 -0.00000000000E+00 -0.45593999997E+02  0.45594000000E+02  0.51100000000E-03 0.  1.
    9900012    2    1    2    0    0 -0.10964166128E+02 -0.86208770481E+01 -0.12495538195E+02  0.72461790166E+02  0.70000286423E+02 0.  0.
         12    1    1    2    0    0  0.10964166128E+02  0.86208770481E+01  0.12495538195E+02  0.18726209834E+02  0.00000000000E+00 0. -1.
         11    1    3    3    0    0 -0.15704381766E+02 -0.16707761867E+02  0.40660951582E+01  0.23287551253E+02  0.51100000000E-03 0. -1.
        -11    1    3    3    0    0  0.51721789495E+01 -0.16962350315E+02 -0.16349930072E+02  0.24120385090E+02  0.51100000000E-03 0.  1.
         12    1    3    3    0    0 -0.43196331185E+00  0.25049235134E+02 -0.21170328101E+00  0.25053853823E+02  0.00000000000E+00 0. -1.
</event>
<event>
 7    1  0.2886818E-013  0.7246177E+02  0.7816164E-02  0.1226707E+00
        -11   -1    0    0    0    0  0.00000000000E+00  0.00000000000E+00  0.45593999997E+02  0.45594000000E+02  0.51100000000E-03 0.  1.
         11   -1    0    0    0    0 -0.00000000000E+00 -0.00000000000E+00 -0.45593999997E+02  0.45594000000E+02  0.51100000000E-03 0. -1.
    9900012    2    1    2    0    0 -0.18277250517E+02 -0.39742053021E+01 -0.90519494323E+00  0.72461773148E+02  0.70000264254E+02 0.  0.
         12    1    1    2    0    0  0.18277250517E+02  0.39742053021E+01  0.90519494323E+00  0.18726226852E+02  0.00000000000E+00 0. -1.
         11    1    3    3    0    0 -0.47414384120E+01 -0.20125884667E+02  0.54166668072E+01  0.21374581901E+02  0.51100000000E-03 0. -1.
        -11    1    3    3    0    0 -0.22038473144E+02 -0.79971077435E+01  0.34234546662E+01  0.23693207316E+02  0.51100000000E-03 0.  1.
         12    1    3    3    0    0  0.85026610392E+01  0.24148787109E+02 -0.97453164166E+01  0.27393983931E+02  0.00000000000E+00 0. -1.
</event>
<event>
 7    1  0.2886818E-013  0.7246154E+02  0.7816164E-02  0.1226708E+00
        -11   -1    0    0    0    0  0.00000000000E+00  0.00000000000E+00  0.45593999997E+02  0.45594000000E+02  0.51100000000E-03 0. -1.
         11   -1    0    0    0    0 -0.00000000000E+00 -0.00000000000E+00 -0.45593999997E+02  0.45594000000E+02  0.51100000000E-03 0.  1.
    9900012    2    1    2    0    0 -0.14621392390E+02 -0.11685084487E+02 -0.59503401766E+00  0.72461537964E+02  0.69999957884E+02 0.  0.
         12    1    1    2    0    0  0.14621392390E+02  0.11685084487E+02  0.59503401766E+00  0.18726462036E+02  0.00000000000E+00 0. -1.
         11    1    3    3    0    0 -0.23596666763E+01 -0.69432316715E+00 -0.56899487618E+01  0.61988409124E+01  0.51100000000E-03 0. -1.
        -11    1    3    3    0    0 -0.67857247227E+01  0.24039926585E+01 -0.28652784447E+02  0.29543312230E+02  0.51100000000E-03 0.  1.
         12    1    3    3    0    0 -0.54760009912E+01 -0.13394753979E+02  0.33747699191E+02  0.36719384822E+02  0.00000000000E+00 0. -1.
</event>
<event>
 7    1  0.2886818E-013  0.7246157E+02  0.7816164E-02  0.1226708E+00
        -11   -1    0    0    0    0  0.00000000000E+00  0.00000000000E+00  0.45593999997E+02  0.45594000000E+02  0.51100000000E-03 0. -1.
         11   -1    0    0    0    0 -0.00000000000E+00 -0.00000000000E+00 -0.45593999997E+02  0.45594000000E+02  0.51100000000E-03 0.  1.
    9900012    2    1    2    0    0  0.12607981627E+02  0.12851103678E+02 -0.51543268926E+01  0.72461570757E+02  0.70000000603E+02 0.  0.
         12    1    1    2    0    0 -0.12607981627E+02 -0.12851103678E+02  0.51543268926E+01  0.18726429243E+02  0.00000000000E+00 0. -1.
         11    1    3    3    0    0 -0.47807254085E+01 -0.17160374722E+02 -0.23863723780E+01  0.17972995561E+02  0.51100000000E-03 0. -1.
        -11    1    3    3    0    0  0.11320289615E+02 -0.90783368190E+01  0.19850344350E+01  0.14646006908E+02  0.51100000000E-03 0.  1.
         12    1    3    3    0    0  0.60684174206E+01  0.39089815220E+02 -0.47529889496E+01  0.39842568289E+02  0.00000000000E+00 0. -1.
</event>
<event>
 7    1  0.2886818E-013  0.7246155E+02  0.7816164E-02  0.1226708E+00
        -11   -1    0    0    0    0  0.00000000000E+00  0.00000000000E+00  0.45593999997E+02  0.45594000000E+02  0.51100000000E-03 0. -1.
         11   -1    0    0    0    0 -0.00000000000E+00 -0.00000000000E+00 -0.45593999997E+02  0.45594000000E+02  0.51100000000E-03 0.  1.
    9900012    2    1    2    0    0 -0.91374202511E+00 -0.52681271042E+01 -0.17946912211E+02  0.72461554913E+02  0.69999979964E+02 0.  0.
         12    1    1    2    0    0  0.91374202511E+00  0.52681271042E+01  0.17946912211E+02  0.18726445087E+02  0.00000000000E+00 0. -1.
         11    1    3    3    0    0 -0.25662739120E+02 -0.18823333136E+02 -0.19485781697E+02  0.37317418695E+02  0.51100000000E-03 0. -1.
        -11    1    3    3    0    0  0.13479000168E+02  0.92738353286E+01 -0.93966147775E+01  0.18867533934E+02  0.51100000000E-03 0.  1.
        -12    1    3    3    0    0  0.11269996927E+02  0.42813707035E+01  0.10935484263E+02  0.16276602284E+02  0.00000000000E+00 0.  1.
</event>
<event>
 7    1  0.2886818E-013  0.7246158E+02  0.7816164E-02  0.1226708E+00
        -11   -1    0    0    0    0  0.00000000000E+00  0.00000000000E+00  0.45593999997E+02  0.45594000000E+02  0.51100000000E-03 0. -1.
         11   -1    0    0    0    0 -0.00000000000E+00 -0.00000000000E+00 -0.45593999997E+02  0.45594000000E+02  0.51100000000E-03 0.  1.
    9900012    2    1    2    0    0  0.15429401483E+02  0.10180395794E+02 -0.29953210214E+01  0.72461579181E+02  0.70000011577E+02 0.  0.
         12    1    1    2    0    0 -0.15429401483E+02 -0.10180395794E+02  0.29953210214E+01  0.18726420819E+02  0.00000000000E+00 0. -1.
         11    1    3    3    0    0  0.88976607258E+01 -0.14365239579E+02 -0.54558146042E+01  0.17756530849E+02  0.51100000000E-03 0. -1.
        -11    1    3    3    0    0  0.11562150882E+02  0.56224737006E+01 -0.20705663265E+02  0.24372526234E+02  0.51100000000E-03 0.  1.
         12    1    3    3    0    0 -0.50304101251E+01  0.18923161673E+02  0.23166156848E+02  0.30332522098E+02  0.00000000000E+00 0. -1.
</event>
<event>
 7    1  0.2886818E-013  0.7246157E+02  0.7816164E-02  0.1226708E+00
        -11   -1    0    0    0    0  0.00000000000E+00  0.00000000000E+00  0.45593999997E+02  0.45594000000E+02  0.51100000000E-03 0.  1.
         11   -1    0    0    0    0 -0.00000000000E+00 -0.00000000000E+00 -0.45593999997E+02  0.45594000000E+02  0.51100000000E-03 0. -1.
    9900012    2    1    2    0    0 -0.19581860374E+01 -0.14070102305E+02  0.12201514735E+02  0.72461568593E+02  0.69999997783E+02 0.  0.
         12    1    1    2    0    0  0.19581860374E+01  0.14070102305E+02 -0.12201514735E+02  0.18726431407E+02  0.00000000000E+00 0. -1.
         11    1    3    3    0    0 -0.17443626458E+01  0.61107828834E+00 -0.19332391409E+02  0.19420545192E+02  0.51100000000E-03 0. -1.
        -11    1    3    3    0    0  0.41094763427E+01 -0.16988044929E+02 -0.33656429387E+01  0.17799129725E+02  0.51100000000E-03 0.  1.
        -12    1    3    3    0    0 -0.43232997343E+01  0.23068643361E+01  0.34899549083E+02  0.35241893675E+02  0.00000000000E+00 0.  1.
</event>
<event>
 7    1  0.2886818E-013  0.7246158E+02  0.7816164E-02  0.1226708E+00
        -11   -1    0    0    0    0  0.00000000000E+00  0.00000000000E+00  0.45593999997E+02  0.45594000000E+02  0.51100000000E-03 0. -1.
         11   -1    0    0    0    0 -0.00000000000E+00 -0.00000000000E+00 -0.45593999997E+02  0.45594000000E+02  0.51100000000E-03 0.  1.
    9900012    2    1    2    0    0  0.18536616069E+02 -0.15705365768E+01  0.21462054866E+01  0.72461576999E+02  0.70000008734E+02 0.  0.
         12    1    1    2    0    0 -0.18536616069E+02  0.15705365768E+01 -0.21462054866E+01  0.18726423001E+02  0.00000000000E+00 0. -1.
         11    1    3    3    0    0  0.92229413859E+01  0.10289611561E+02  0.17048325487E+02  0.21945025770E+02  0.51100000000E-03 0. -1.
        -11    1    3    3    0    0  0.34188570199E+01 -0.49124668234E+00  0.16366554295E+02  0.16727044162E+02  0.51100000000E-03 0.  1.
        -12    1    3    3    0    0  0.58948176631E+01 -0.11368901455E+02 -0.31268674296E+02  0.33789507067E+02  0.00000000000E+00 0.  1.
</event>
<event>
 7    1  0.2886818E-013  0.7246157E+02  0.7816164E-02  0.1226708E+00
        -11   -1    0    0    0    0  0.00000000000E+00  0.00000000000E+00  0.45593999997E+02  0.45594000000E+02  0.51100000000E-03 0.  1.
         11   -1    0    0    0    0 -0.00000000000E+00 -0.00000000000E+00 -0.45593999997E+02  0.45594000000E+02  0.51100000000E-03 0. -1.
    9900012    2    1    2    0    0  0.15433673679E+02  0.79719797253E+01  0.69948812144E+01  0.72461571959E+02  0.70000002168E+02 0.  0.
         12    1    1    2    0    0 -0.15433673679E+02 -0.79719797253E+01 -0.69948812144E+01  0.18726428041E+02  0.00000000000E+00 0. -1.
         11    1    3    3    0    0 -0.12008096912E+02 -0.74686463040E+01  0.84888161088E+00  0.14166709897E+02  0.51100000000E-03 0. -1.
        -11    1    3    3    0    0 -0.21498854872E+00 -0.12420745484E+02 -0.98997118218E+01  0.15884754731E+02  0.51100000000E-03 0.  1.
        -12    1    3    3    0    0  0.27656759139E+02  0.27861371513E+02  0.16045711425E+02  0.42410107331E+02  0.00000000000E+00 0.  1.
</event>
<event>
 7    1  0.2886818E-013  0.7246156E+02  0.7816164E-02  0.1226708E+00
        -11   -1    0    0    0    0  0.00000000000E+00  0.00000000000E+00  0.45593999997E+02  0.45594000000E+02  0.51100000000E-03 0.  1.
         11   -1    0    0    0    0 -0.00000000000E+00 -0.00000000000E+00 -0.45593999997E+02  0.45594000000E+02  0.51100000000E-03 0. -1.
    9900012    2    1    2    0    0  0.33227205678E+01 -0.18190648427E+02  0.29562343238E+01  0.72461561910E+02  0.69999989078E+02 0.  0.
         12    1    1    2    0    0 -0.33227205678E+01  0.18190648427E+02 -0.29562343238E+01  0.18726438090E+02  0.00000000000E+00 0. -1.
         11    1    3    3    0    0  0.17413091853E+02 -0.41745580700E+01 -0.13328088931E+02  0.22322201007E+02  0.51100000000E-03 0. -1.
        -11    1    3    3    0    0 -0.11902284637E+02 -0.21245491433E+02 -0.72613294818E+01  0.25411851407E+02  0.51100000000E-03 0.  1.
         12    1    3    3    0    0 -0.21880866479E+01  0.72294010757E+01  0.23545652737E+02  0.24727509497E+02  0.00000000000E+00 0. -1.
</event>
<event>
 7    1  0.2886818E-013  0.7246174E+02  0.7816164E-02  0.1226708E+00
        -11   -1    0    0    0    0  0.00000000000E+00  0.00000000000E+00  0.45593999997E+02  0.45594000000E+02  0.51100000000E-03 0.  1.
         11   -1    0    0    0    0 -0.00000000000E+00 -0.00000000000E+00 -0.45593999997E+02  0.45594000000E+02  0.51100000000E-03 0. -1.
    9900012    2    1    2    0    0 -0.99732316920E+01 -0.48754627063E+01  0.15081023189E+02  0.72461741767E+02  0.70000223375E+02 0.  0.
         12    1    1    2    0    0  0.99732316920E+01  0.48754627063E+01 -0.15081023189E+02  0.18726258233E+02  0.00000000000E+00 0. -1.
         11    1    3    3    0    0 -0.71070631168E+01  0.15639284614E+02 -0.39575009165E+01  0.17628368704E+02  0.51100000000E-03 0. -1.
        -11    1    3    3    0    0 -0.45279830966E+00  0.43988536509E+01 -0.13256204770E+02  0.13974330214E+02  0.51100000000E-03 0.  1.
        -12    1    3    3    0    0 -0.24133702656E+01 -0.24913600971E+02  0.32294728876E+02  0.40859042849E+02  0.00000000000E+00 0.  1.
</event>
<event>
 7    1  0.2886818E-013  0.7246157E+02  0.7816164E-02  0.1226708E+00
        -11   -1    0    0    0    0  0.00000000000E+00  0.00000000000E+00  0.45593999997E+02  0.45594000000E+02  0.51100000000E-03 0.  1.
         11   -1    0    0    0    0 -0.00000000000E+00 -0.00000000000E+00 -0.45593999997E+02  0.45594000000E+02  0.51100000000E-03 0. -1.
    9900012    2    1    2    0    0 -0.19162283538E+01  0.14956852199E+02  0.11104043653E+02  0.72461570968E+02  0.70000000878E+02 0.  0.
         12    1    1    2    0    0  0.19162283538E+01 -0.14956852199E+02 -0.11104043653E+02  0.18726429032E+02  0.00000000000E+00 0. -1.
         11    1    3    3    0    0 -0.15981078868E+00 -0.13213856972E+02  0.22715791586E+02  0.26280006530E+02  0.51100000000E-03 0. -1.
        -11    1    3    3    0    0 -0.12660057774E+02  0.71487159247E+00 -0.10755659795E+02  0.16627456875E+02  0.51100000000E-03 0.  1.
         12    1    3    3    0    0  0.10903640209E+02  0.27455837579E+02 -0.85608813750E+00  0.29554107563E+02  0.00000000000E+00 0. -1.
</event>
<event>
 7    1  0.2886818E-013  0.7246162E+02  0.7816164E-02  0.1226708E+00
        -11   -1    0    0    0    0  0.00000000000E+00  0.00000000000E+00  0.45593999997E+02  0.45594000000E+02  0.51100000000E-03 0. -1.
         11   -1    0    0    0    0 -0.00000000000E+00 -0.00000000000E+00 -0.45593999997E+02  0.45594000000E+02  0.51100000000E-03 0.  1.
    9900012    2    1    2    0    0  0.12338625881E+02 -0.12162200195E+02 -0.71075077355E+01  0.72461615714E+02  0.70000059168E+02 0.  0.
         12    1    1    2    0    0 -0.12338625881E+02  0.12162200195E+02  0.71075077355E+01  0.18726384286E+02  0.00000000000E+00 0. -1.
         11    1    3    3    0    0 -0.96944995015E+01  0.10913516413E+01  0.99784297323E+01  0.13955050311E+02  0.51100000000E-03 0. -1.
        -11    1    3    3    0    0  0.22068920765E+02 -0.12220568455E+02  0.13016236662E+02  0.28386651338E+02  0.51100000000E-03 0.  1.
         12    1    3    3    0    0 -0.35795382857E-01 -0.10329833815E+01 -0.30102174130E+02  0.30119914066E+02  0.00000000000E+00 0. -1.
</event>
<event>
 7    1  0.2886818E-013  0.7246158E+02  0.7816164E-02  0.1226708E+00
        -11   -1    0    0    0    0  0.00000000000E+00  0.00000000000E+00  0.45593999997E+02  0.45594000000E+02  0.51100000000E-03 0.  1.
         11   -1    0    0    0    0 -0.00000000000E+00 -0.00000000000E+00 -0.45593999997E+02  0.45594000000E+02  0.51100000000E-03 0. -1.
    9900012    2    1    2    0    0  0.65918474311E+01  0.16969091195E+02  0.43904631714E+01  0.72461583487E+02  0.70000017186E+02 0.  0.
         12    1    1    2    0    0 -0.65918474311E+01 -0.16969091195E+02 -0.43904631714E+01  0.18726416513E+02  0.00000000000E+00 0. -1.
         11    1    3    3    0    0 -0.27043728497E+00 -0.12866460324E+02 -0.77477220298E+01  0.15021522376E+02  0.51100000000E-03 0. -1.
        -11    1    3    3    0    0 -0.13689083309E+02  0.20889379107E+02 -0.90812484994E+01  0.26574917420E+02  0.51100000000E-03 0.  1.
         12    1    3    3    0    0  0.20551368025E+02  0.89461724121E+01  0.21219433701E+02  0.30865143691E+02  0.00000000000E+00 0. -1.
</event>
<event>
 7    1  0.2886818E-013  0.7246153E+02  0.7816164E-02  0.1226708E+00
        -11   -1    0    0    0    0  0.00000000000E+00  0.00000000000E+00  0.45593999997E+02  0.45594000000E+02  0.51100000000E-03 0. -1.
         11   -1    0    0    0    0 -0.00000000000E+00 -0.00000000000E+00 -0.45593999997E+02  0.45594000000E+02  0.51100000000E-03 0.  1.
    9900012    2    1    2    0    0 -0.57220479074E+01 -0.14886768384E+02 -0.98144245154E+01  0.72461531199E+02  0.69999949071E+02 0.  0.
         12    1    1    2    0    0  0.57220479074E+01  0.14886768384E+02  0.98144245154E+01  0.18726468801E+02  0.00000000000E+00 0. -1.
         11    1    3    3    0    0 -0.54861317225E+01 -0.16453623487E+02  0.11952555718E+02  0.21063783031E+02  0.51100000000E-03 0. -1.
        -11    1    3    3    0    0 -0.14135810744E+02  0.88437710160E+00  0.95808934526E+01  0.17099613676E+02  0.51100000000E-03 0.  1.
        -12    1    3    3    0    0  0.13899894560E+02  0.68247800138E+00 -0.31347873686E+02  0.34298134492E+02  0.00000000000E+00 0.  1.
</event>
<event>
 7    1  0.2886818E-013  0.7246093E+02  0.7816164E-02  0.1226710E+00
        -11   -1    0    0    0    0  0.00000000000E+00  0.00000000000E+00  0.45593999997E+02  0.45594000000E+02  0.51100000000E-03 0.  1.
         11   -1    0    0    0    0 -0.00000000000E+00 -0.00000000000E+00 -0.45593999997E+02  0.45594000000E+02  0.51100000000E-03 0. -1.
    9900012    2    1    2    0    0 -0.14926056332E+02 -0.10618333055E+02 -0.38944794379E+01  0.72460930699E+02  0.69999166804E+02 0.  0.
         12    1    1    2    0    0  0.14926056332E+02  0.10618333055E+02  0.38944794379E+01  0.18727069301E+02  0.00000000000E+00 0. -1.
         11    1    3    3    0    0 -0.23042802112E+02 -0.11865301089E+02 -0.18999185451E+01  0.25987800789E+02  0.51100000000E-03 0.  1.
        -11    1    3    3    0    0  0.20106613161E+02 -0.13313598755E+02  0.76359708106E+01  0.25294976875E+02  0.51100000000E-03 0. -1.
         12    1    3    3    0    0 -0.11989867382E+02  0.14560566790E+02 -0.96305317034E+01  0.21178153035E+02  0.00000000000E+00 0. -1.
</event>
<event>
 7    1  0.2886818E-013  0.7246155E+02  0.7816164E-02  0.1226708E+00
        -11   -1    0    0    0    0  0.00000000000E+00  0.00000000000E+00  0.45593999997E+02  0.45594000000E+02  0.51100000000E-03 0.  1.
         11   -1    0    0    0    0 -0.00000000000E+00 -0.00000000000E+00 -0.45593999997E+02  0.45594000000E+02  0.51100000000E-03 0. -1.
    9900012    2    1    2    0    0  0.12679719019E+01 -0.11796458121E+02  0.14488464928E+02  0.72461553650E+02  0.69999978317E+02 0.  0.
         12    1    1    2    0    0 -0.12679719019E+01  0.11796458121E+02 -0.14488464928E+02  0.18726446350E+02  0.00000000000E+00 0. -1.
         11    1    3    3    0    0 -0.11622608918E+02 -0.17136205128E+02 -0.11715276993E+01  0.20739022196E+02  0.51100000000E-03 0. -1.
        -11    1    3    3    0    0 -0.32929935319E+01  0.23115770875E+01  0.29769075550E+02  0.30039724606E+02  0.51100000000E-03 0.  1.
        -12    1    3    3    0    0  0.16183574351E+02  0.30281699195E+01 -0.14109082923E+02  0.21682806847E+02  0.00000000000E+00 0.  1.
</event>
<event>
 7    1  0.2886818E-013  0.7246156E+02  0.7816164E-02  0.1226708E+00
        -11   -1    0    0    0    0  0.00000000000E+00  0.00000000000E+00  0.45593999997E+02  0.45594000000E+02  0.51100000000E-03 0.  1.
         11   -1    0    0    0    0 -0.00000000000E+00 -0.00000000000E+00 -0.45593999997E+02  0.45594000000E+02  0.51100000000E-03 0. -1.
    9900012    2    1    2    0    0 -0.15488862374E+02  0.79024588863E+01 -0.69516734231E+01  0.72461562072E+02  0.69999989289E+02 0.  0.
         12    1    1    2    0    0  0.15488862374E+02 -0.79024588863E+01  0.69516734231E+01  0.18726437928E+02  0.00000000000E+00 0. -1.
         11    1    3    3    0    0 -0.61137219446E+01 -0.11342390986E+02 -0.22427761690E+02  0.25865651431E+02  0.51100000000E-03 0. -1.
        -11    1    3    3    0    0 -0.23950015928E+02  0.86954486470E+01  0.12421916512E+02  0.28346394836E+02  0.51100000000E-03 0.  1.
        -12    1    3    3    0    0  0.14574875498E+02  0.10549401225E+02  0.30541717553E+01  0.18249515805E+02  0.00000000000E+00 0.  1.
</event>
<event>
 7    1  0.2886818E-013  0.7246157E+02  0.7816164E-02  0.1226708E+00
        -11   -1    0    0    0    0  0.00000000000E+00  0.00000000000E+00  0.45593999997E+02  0.45594000000E+02  0.51100000000E-03 0. -1.
         11   -1    0    0    0    0 -0.00000000000E+00 -0.00000000000E+00 -0.45593999997E+02  0.45594000000E+02  0.51100000000E-03 0.  1.
    9900012    2    1    2    0    0 -0.10334316194E+02 -0.72775958650E+01 -0.13817289968E+02  0.72461574958E+02  0.70000006076E+02 0.  0.
         12    1    1    2    0    0  0.10334316194E+02  0.72775958650E+01  0.13817289968E+02  0.18726425042E+02  0.00000000000E+00 0. -1.
         11    1    3    3    0    0  0.14726580079E+02  0.98887488537E+01  0.29658982453E+01  0.17984884414E+02  0.51100000000E-03 0. -1.
        -11    1    3    3    0    0  0.10503822453E+02 -0.10264255946E+02 -0.95932850611E+01  0.17541845820E+02  0.51100000000E-03 0.  1.
        -12    1    3    3    0    0 -0.35564718726E+02 -0.69020887725E+01 -0.71899031525E+01  0.36934844724E+02  0.00000000000E+00 0.  1.
</event>
<event>
 7    1  0.2886818E-013  0.7246161E+02  0.7816164E-02  0.1226708E+00
        -11   -1    0    0    0    0  0.00000000000E+00  0.00000000000E+00  0.45593999997E+02  0.45594000000E+02  0.51100000000E-03 0. -1.
         11   -1    0    0    0    0 -0.00000000000E+00 -0.00000000000E+00 -0.45593999997E+02  0.45594000000E+02  0.51100000000E-03 0.  1.
    9900012    2    1    2    0    0 -0.24512903334E+01  0.16636709650E+02 -0.82394618028E+01  0.72461610516E+02  0.70000052397E+02 0.  0.
         12    1    1    2    0    0  0.24512903334E+01 -0.16636709650E+02  0.82394618028E+01  0.18726389484E+02  0.00000000000E+00 0. -1.
         11    1    3    3    0    0 -0.10803775069E+02  0.11022892283E+02  0.14329891775E+02  0.21061137400E+02  0.51100000000E-03 0. -1.
        -11    1    3    3    0    0 -0.13604563186E+02 -0.11556751105E+02 -0.12377329294E+02  0.21721899464E+02  0.51100000000E-03 0.  1.
         12    1    3    3    0    0  0.21957047921E+02  0.17170568472E+02 -0.10192024284E+02  0.29678573653E+02  0.00000000000E+00 0. -1.
</event>
<event>
 7    1  0.2886818E-013  0.7246165E+02  0.7816164E-02  0.1226708E+00
        -11   -1    0    0    0    0  0.00000000000E+00  0.00000000000E+00  0.45593999997E+02  0.45594000000E+02  0.51100000000E-03 0.  1.
         11   -1    0    0    0    0 -0.00000000000E+00 -0.00000000000E+00 -0.45593999997E+02  0.45594000000E+02  0.51100000000E-03 0. -1.
    9900012    2    1    2    0    0 -0.51608662281E+01 -0.11142983347E+02  0.14137731429E+02  0.72461653104E+02  0.70000107875E+02 0.  0.
         12    1    1    2    0    0  0.51608662281E+01  0.11142983347E+02 -0.14137731429E+02  0.18726346896E+02  0.00000000000E+00 0. -1.
         11    1    3    3    0    0 -0.13253621836E+01  0.17597254453E+01 -0.10136173885E+02  0.10372812533E+02  0.51100000000E-03 0. -1.
        -11    1    3    3    0    0 -0.25075285216E+02 -0.27705371342E+01  0.28626953773E+02  0.38156890429E+02  0.51100000000E-03 0.  1.
         12    1    3    3    0    0  0.21239781171E+02 -0.10132171659E+02 -0.43530484596E+01  0.23931950142E+02  0.00000000000E+00 0. -1.
</event>
<event>
 7    1  0.2886818E-013  0.7246169E+02  0.7816164E-02  0.1226708E+00
        -11   -1    0    0    0    0  0.00000000000E+00  0.00000000000E+00  0.45593999997E+02  0.45594000000E+02  0.51100000000E-03 0. -1.
         11   -1    0    0    0    0 -0.00000000000E+00 -0.00000000000E+00 -0.45593999997E+02  0.45594000000E+02  0.51100000000E-03 0.  1.
    9900012    2    1    2    0    0 -0.13818927224E+02  0.12329856947E+02 -0.27724378188E+01  0.72461694079E+02  0.70000161253E+02 0.  0.
         12    1    1    2    0    0  0.13818927224E+02 -0.12329856947E+02  0.27724378188E+01  0.18726305921E+02  0.00000000000E+00 0. -1.
         11    1    3    3    0    0 -0.10200591896E+02  0.87305355559E+01 -0.90337445065E+01  0.16182795376E+02  0.51100000000E-03 0. -1.
        -11    1    3    3    0    0  0.46438053484E+00  0.22020475963E+02 -0.15906364055E+02  0.27168537477E+02  0.51100000000E-03 0.  1.
         12    1    3    3    0    0 -0.40827158637E+01 -0.18421154572E+02  0.22167670743E+02  0.29110361226E+02  0.00000000000E+00 0. -1.
</event>
<event>
 7    1  0.2886818E-013  0.7246152E+02  0.7816164E-02  0.1226708E+00
        -11   -1    0    0    0    0  0.00000000000E+00  0.00000000000E+00  0.45593999997E+02  0.45594000000E+02  0.51100000000E-03 0. -1.
         11   -1    0    0    0    0 -0.00000000000E+00 -0.00000000000E+00 -0.45593999997E+02  0.45594000000E+02  0.51100000000E-03 0.  1.
    9900012    2    1    2    0    0  0.14730188254E+02 -0.10707606217E+02 -0.43646058763E+01  0.72461519782E+02  0.69999934198E+02 0.  0.
         12    1    1    2    0    0 -0.14730188254E+02  0.10707606217E+02  0.43646058763E+01  0.18726480218E+02  0.00000000000E+00 0. -1.
         11    1    3    3    0    0 -0.76641298521E+01 -0.21810157120E+02  0.19878010283E+02  0.30488639410E+02  0.51100000000E-03 0. -1.
        -11    1    3    3    0    0  0.62665410187E+01  0.87633572566E+00 -0.21825126459E+02  0.22723856316E+02  0.51100000000E-03 0.  1.
        -12    1    3    3    0    0  0.16127777088E+02  0.10226215178E+02 -0.24174897004E+01  0.19249024056E+02  0.00000000000E+00 0.  1.
</event>
<event>
 7    1  0.2886818E-013  0.7246156E+02  0.7816164E-02  0.1226708E+00
        -11   -1    0    0    0    0  0.00000000000E+00  0.00000000000E+00  0.45593999997E+02  0.45594000000E+02  0.51100000000E-03 0.  1.
         11   -1    0    0    0    0 -0.00000000000E+00 -0.00000000000E+00 -0.45593999997E+02  0.45594000000E+02  0.51100000000E-03 0. -1.
    9900012    2    1    2    0    0 -0.79933155276E+00  0.11179207532E+02  0.15002194290E+02  0.72461562926E+02  0.69999990401E+02 0.  0.
         12    1    1    2    0    0  0.79933155276E+00 -0.11179207532E+02 -0.15002194290E+02  0.18726437074E+02  0.00000000000E+00 0. -1.
         11    1    3    3    0    0  0.11590998521E+01  0.57090526718E+01 -0.10316311342E+01  0.59161691942E+01  0.51100000000E-03 0. -1.
        -11    1    3    3    0    0  0.11306675107E+02 -0.80192000730E+01  0.36278577246E+02  0.38836627545E+02  0.51100000000E-03 0.  1.
         12    1    3    3    0    0 -0.13265106512E+02  0.13489354933E+02 -0.20244751821E+02  0.27708766187E+02  0.00000000000E+00 0. -1.
</event>
<event>
 7    1  0.2886818E-013  0.7246154E+02  0.7816164E-02  0.1226708E+00
        -11   -1    0    0    0    0  0.00000000000E+00  0.00000000000E+00  0.45593999997E+02  0.45594000000E+02  0.51100000000E-03 0. -1.
         11   -1    0    0    0    0 -0.00000000000E+00 -0.00000000000E+00 -0.45593999997E+02  0.45594000000E+02  0.51100000000E-03 0.  1.
    9900012    2    1    2    0    0  0.14813732120E+02 -0.11183518021E+02 -0.24824895436E+01  0.72461535064E+02  0.69999954106E+02 0.  0.
         12    1    1    2    0    0 -0.14813732120E+02  0.11183518021E+02  0.24824895436E+01  0.18726464936E+02  0.00000000000E+00 0. -1.
         11    1    3    3    0    0  0.56936293389E+01  0.43736650970E+01  0.41954578538E+01  0.83155413710E+01  0.51100000000E-03 0. -1.
        -11    1    3    3    0    0  0.18312760203E+02 -0.12014153734E+02  0.23664363258E+02  0.32244366405E+02  0.51100000000E-03 0.  1.
        -12    1    3    3    0    0 -0.91926574215E+01 -0.35430293846E+01 -0.30342310656E+02  0.31901627288E+02  0.00000000000E+00 0.  1.
</event>
<event>
 7    1  0.2886818E-013  0.7246156E+02  0.7816164E-02  0.1226708E+00
        -11   -1    0    0    0    0  0.00000000000E+00  0.00000000000E+00  0.45593999997E+02  0.45594000000E+02  0.51100000000E-03 0. -1.
         11   -1    0    0    0    0 -0.00000000000E+00 -0.00000000000E+00 -0.45593999997E+02  0.45594000000E+02  0.51100000000E-03 0.  1.
    9900012    2    1    2    0    0  0.18547238235E+01  0.62878782826E+01 -0.17541442512E+02  0.72461558289E+02  0.69999984361E+02 0.  0.
         12    1    1    2    0    0 -0.18547238235E+01 -0.62878782826E+01  0.17541442512E+02  0.18726441711E+02  0.00000000000E+00 0. -1.
         11    1    3    3    0    0  0.18912735731E+02  0.86550260039E+01 -0.23693054757E+02  0.31527161178E+02  0.51100000000E-03 0. -1.
        -11    1    3    3    0    0 -0.12802333030E+01  0.12240997855E+02 -0.84623176590E+01  0.14936259445E+02  0.51100000000E-03 0.  1.
        -12    1    3    3    0    0 -0.15777778605E+02 -0.14608145576E+02  0.14613929904E+02  0.25998137666E+02  0.00000000000E+00 0.  1.
</event>
<event>
 7    1  0.2886818E-013  0.7246156E+02  0.7816164E-02  0.1226708E+00
        -11   -1    0    0    0    0  0.00000000000E+00  0.00000000000E+00  0.45593999997E+02  0.45594000000E+02  0.51100000000E-03 0.  1.
         11   -1    0    0    0    0 -0.00000000000E+00 -0.00000000000E+00 -0.45593999997E+02  0.45594000000E+02  0.51100000000E-03 0. -1.
    9900012    2    1    2    0    0  0.18531555724E+02  0.11563301523E+01  0.24339418491E+01  0.72461555332E+02  0.69999980509E+02 0.  0.
         12    1    1    2    0    0 -0.18531555724E+02 -0.11563301523E+01 -0.24339418491E+01  0.18726444668E+02  0.00000000000E+00 0. -1.
         11    1    3    3    0    0 -0.16642894645E+01 -0.13786795552E+02 -0.21304865911E+02  0.25431140414E+02  0.51100000000E-03 0. -1.
        -11    1    3    3    0    0  0.13967869928E+02 -0.37711741160E+01 -0.19978559828E+01  0.14605292648E+02  0.51100000000E-03 0.  1.
        -12    1    3    3    0    0  0.62279752600E+01  0.18714299820E+02  0.25736663743E+02  0.32425122270E+02  0.00000000000E+00 0.  1.
</event>
<event>
 7    1  0.2886818E-013  0.7246146E+02  0.7816164E-02  0.1226708E+00
        -11   -1    0    0    0    0  0.00000000000E+00  0.00000000000E+00  0.45593999997E+02  0.45594000000E+02  0.51100000000E-03 0.  1.
         11   -1    0    0    0    0 -0.00000000000E+00 -0.00000000000E+00 -0.45593999997E+02  0.45594000000E+02  0.51100000000E-03 0. -1.
    9900012    2    1    2    0    0  0.18060038110E+02  0.37809271199E+01 -0.31973046365E+01  0.72461464193E+02  0.69999861783E+02 0.  0.
         12    1    1    2    0    0 -0.18060038110E+02 -0.37809271199E+01  0.31973046365E+01  0.18726535807E+02  0.00000000000E+00 0. -1.
         11    1    3    3    0    0  0.10838439535E+02  0.66787254121E+01  0.14489137221E+02  0.19287618888E+02  0.51100000000E-03 0. -1.
        -11    1    3    3    0    0  0.12091411752E+01 -0.23718031360E+02  0.20832575212E+01  0.23840029281E+02  0.51100000000E-03 0.  1.
         12    1    3    3    0    0  0.60124573996E+01  0.20820233068E+02 -0.19769699379E+02  0.29333816024E+02  0.00000000000E+00 0. -1.
</event>
<event>
 7    1  0.2886818E-013  0.7246155E+02  0.7816164E-02  0.1226708E+00
        -11   -1    0    0    0    0  0.00000000000E+00  0.00000000000E+00  0.45593999997E+02  0.45594000000E+02  0.51100000000E-03 0.  1.
         11   -1    0    0    0    0 -0.00000000000E+00 -0.00000000000E+00 -0.45593999997E+02  0.45594000000E+02  0.51100000000E-03 0. -1.
    9900012    2    1    2    0    0 -0.56687582399E+01 -0.16725041790E+01  0.17769293077E+02  0.72461551680E+02  0.69999975752E+02 0.  0.
         12    1    1    2    0    0  0.56687582399E+01  0.16725041790E+01 -0.17769293077E+02  0.18726448320E+02  0.00000000000E+00 0. -1.
         11    1    3    3    0    0 -0.16055194134E+01 -0.31132868544E+01 -0.10933932896E+02  0.11481338618E+02  0.51100000000E-03 0. -1.
        -11    1    3    3    0    0  0.15744971520E+02 -0.15355527605E+02 -0.37031595738E+00  0.21996215364E+02  0.51100000000E-03 0.  1.
        -12    1    3    3    0    0 -0.19808210347E+02  0.16796310280E+02  0.29073541930E+02  0.38983997698E+02  0.00000000000E+00 0.  1.
</event>
<event>
 7    1  0.2886818E-013  0.7246212E+02  0.7816164E-02  0.1226707E+00
        -11   -1    0    0    0    0  0.00000000000E+00  0.00000000000E+00  0.45593999997E+02  0.45594000000E+02  0.51100000000E-03 0. -1.
         11   -1    0    0    0    0 -0.00000000000E+00 -0.00000000000E+00 -0.45593999997E+02  0.45594000000E+02  0.51100000000E-03 0.  1.
    9900012    2    1    2    0    0  0.11334938157E+02  0.14682687131E+02  0.25683908145E+01  0.72462115353E+02  0.70000710037E+02 0.  0.
         12    1    1    2    0    0 -0.11334938157E+02 -0.14682687131E+02 -0.25683908145E+01  0.18725884647E+02  0.00000000000E+00 0. -1.
         11    1    3    3    0    0  0.25024187955E+02 -0.10362869617E+02  0.75583424615E+00  0.27095577779E+02  0.51100000000E-03 0.  1.
        -11    1    3    3    0    0 -0.14234578633E+02 -0.32869548385E+01  0.75637394730E+01  0.16451062459E+02  0.51100000000E-03 0. -1.
        -12    1    3    3    0    0  0.54532883509E+00  0.28332511587E+02 -0.57511829046E+01  0.28915475115E+02  0.00000000000E+00 0.  1.
</event>
<event>
 7    1  0.2886818E-013  0.7246151E+02  0.7816164E-02  0.1226708E+00
        -11   -1    0    0    0    0  0.00000000000E+00  0.00000000000E+00  0.45593999997E+02  0.45594000000E+02  0.51100000000E-03 0.  1.
         11   -1    0    0    0    0 -0.00000000000E+00 -0.00000000000E+00 -0.45593999997E+02  0.45594000000E+02  0.51100000000E-03 0. -1.
    9900012    2    1    2    0    0 -0.43006243034E+01  0.79779594393E+01  0.16387130688E+02  0.72461514521E+02  0.69999927345E+02 0.  0.
         12    1    1    2    0    0  0.43006243034E+01 -0.79779594393E+01 -0.16387130688E+02  0.18726485479E+02  0.00000000000E+00 0. -1.
         11    1    3    3    0    0  0.39644597234E+01  0.21281603464E+02 -0.15058249190E+02  0.26369953656E+02  0.51100000000E-03 0. -1.
        -11    1    3    3    0    0 -0.48790242517E+01 -0.11146345646E+02 -0.20651090867E+01  0.12341417047E+02  0.51100000000E-03 0.  1.
        -12    1    3    3    0    0 -0.33860597751E+01 -0.21572983788E+01  0.33510488964E+02  0.33750143818E+02  0.00000000000E+00 0.  1.
</event>
<event>
 7    1  0.2886818E-013  0.7246158E+02  0.7816164E-02  0.1226708E+00
        -11   -1    0    0    0    0  0.00000000000E+00  0.00000000000E+00  0.45593999997E+02  0.45594000000E+02  0.51100000000E-03 0.  1.
         11   -1    0    0    0    0 -0.00000000000E+00 -0.00000000000E+00 -0.45593999997E+02  0.45594000000E+02  0.51100000000E-03 0. -1.
    9900012    2    1    2    0    0  0.61869087657E+01 -0.13120961427E+02  0.11842353789E+02  0.72461579838E+02  0.70000012432E+02 0.  0.
         12    1    1    2    0    0 -0.61869087657E+01  0.13120961427E+02 -0.11842353789E+02  0.18726420162E+02  0.00000000000E+00 0. -1.
         11    1    3    3    0    0 -0.90912240633E+01 -0.28711430429E+02 -0.14507221971E+00  0.30116733529E+02  0.51100000000E-03 0. -1.
        -11    1    3    3    0    0 -0.38522301167E+01 -0.13904911995E+01  0.15943382606E+02  0.16461002151E+02  0.51100000000E-03 0.  1.
        -12    1    3    3    0    0  0.19130362946E+02  0.16980960201E+02 -0.39559565970E+01  0.25883844158E+02  0.00000000000E+00 0.  1.
</event>
<event>
 7    1  0.2886818E-013  0.7246163E+02  0.7816164E-02  0.1226708E+00
        -11   -1    0    0    0    0  0.00000000000E+00  0.00000000000E+00  0.45593999997E+02  0.45594000000E+02  0.51100000000E-03 0. -1.
         11   -1    0    0    0    0 -0.00000000000E+00 -0.00000000000E+00 -0.45593999997E+02  0.45594000000E+02  0.51100000000E-03 0.  1.
    9900012    2    1    2    0    0 -0.79724042574E+01  0.75202588762E+01 -0.15184317562E+02  0.72461627606E+02  0.70000074659E+02 0.  0.
         12    1    1    2    0    0  0.79724042574E+01 -0.75202588762E+01  0.15184317562E+02  0.18726372394E+02  0.00000000000E+00 0. -1.
         11    1    3    3    0    0 -0.16514033960E+02 -0.20735271840E+01  0.13300660697E+02  0.21305407948E+02  0.51100000000E-03 0. -1.
        -11    1    3    3    0    0  0.64575723903E+01  0.13872830322E+02  0.59319884412E+01  0.16411707695E+02  0.51100000000E-03 0.  1.
        -12    1    3    3    0    0  0.20840573124E+01 -0.42790442620E+01 -0.34416966700E+02  0.34744511963E+02  0.00000000000E+00 0.  1.
</event>
<event>
 7    1  0.2886818E-013  0.7246157E+02  0.7816164E-02  0.1226708E+00
        -11   -1    0    0    0    0  0.00000000000E+00  0.00000000000E+00  0.45593999997E+02  0.45594000000E+02  0.51100000000E-03 0. -1.
         11   -1    0    0    0    0 -0.00000000000E+00 -0.00000000000E+00 -0.45593999997E+02  0.45594000000E+02  0.51100000000E-03 0.  1.
    9900012    2    1    2    0    0  0.11188950302E+02  0.36283935849E+01 -0.14571246352E+02  0.72461572975E+02  0.70000003492E+02 0.  0.
         12    1    1    2    0    0 -0.11188950302E+02 -0.36283935849E+01  0.14571246352E+02  0.18726427025E+02  0.00000000000E+00 0. -1.
         11    1    3    3    0    0  0.27019264496E+02 -0.20037089035E+01 -0.19002695295E+02  0.33093170474E+02  0.51100000000E-03 0. -1.
        -11    1    3    3    0    0 -0.29457877640E+01  0.13478607844E+01 -0.15176331178E+02  0.15518228717E+02  0.51100000000E-03 0.  1.
         12    1    3    3    0    0 -0.12884526430E+02  0.42842417041E+01  0.19607780120E+02  0.23850173785E+02  0.00000000000E+00 0. -1.
</event>
<event>
 7    1  0.3376058E-013  0.7246159E+02  0.7816164E-02  0.1226708E+00
        -11   -1    0    0    0    0  0.00000000000E+00  0.00000000000E+00  0.45593999997E+02  0.45594000000E+02  0.51100000000E-03 0. -1.
         11   -1    0    0    0    0 -0.00000000000E+00 -0.00000000000E+00 -0.45593999997E+02  0.45594000000E+02  0.51100000000E-03 0.  1.
    9900012    2    1    2    0    0  0.52661981707E+00 -0.51108177740E+01 -0.18007793376E+02  0.72461590600E+02  0.70000026452E+02 0.  0.
         12    1    1    2    0    0 -0.52661981707E+00  0.51108177740E+01  0.18007793376E+02  0.18726409400E+02  0.00000000000E+00 0. -1.
         11    1    3    3    0    0  0.48393949663E+01 -0.81835215332E+01  0.23093044655E+02  0.24973555614E+02  0.51100000000E-03 0. -1.
        -11    1    3    3    0    0 -0.19503814585E+01  0.70375663569E+01 -0.12965064018E+01  0.74170248195E+01  0.51100000000E-03 0.  1.
        -12    1    3    3    0    0 -0.23623936906E+01 -0.39648625977E+01 -0.39804331629E+02  0.40071010167E+02  0.00000000000E+00 0.  1.
</event>
<event>
 7    1  0.2886818E-013  0.7246143E+02  0.7816164E-02  0.1226708E+00
        -11   -1    0    0    0    0  0.00000000000E+00  0.00000000000E+00  0.45593999997E+02  0.45594000000E+02  0.51100000000E-03 0.  1.
         11   -1    0    0    0    0 -0.00000000000E+00 -0.00000000000E+00 -0.45593999997E+02  0.45594000000E+02  0.51100000000E-03 0. -1.
    9900012    2    1    2    0    0 -0.14668815146E+02 -0.10928471560E+02 -0.40098458228E+01  0.72461428185E+02  0.69999814876E+02 0.  0.
         12    1    1    2    0    0  0.14668815146E+02  0.10928471560E+02  0.40098458228E+01  0.18726571815E+02  0.00000000000E+00 0. -1.
         11    1    3    3    0    0  0.13888619549E+02  0.79107543312E+00 -0.25922134020E+02  0.29418983425E+02  0.51100000000E-03 0. -1.
        -11    1    3    3    0    0  0.18729519936E+01  0.26976566158E+01  0.11320332349E+01  0.34737299683E+01  0.51100000000E-03 0.  1.
        -12    1    3    3    0    0 -0.30430386689E+02 -0.14417203609E+02  0.20780254963E+02  0.39568714792E+02  0.00000000000E+00 0.  1.
</event>
<event>
 7    1  0.2886818E-013  0.7246180E+02  0.7816164E-02  0.1226707E+00
        -11   -1    0    0    0    0  0.00000000000E+00  0.00000000000E+00  0.45593999997E+02  0.45594000000E+02  0.51100000000E-03 0.  1.
         11   -1    0    0    0    0 -0.00000000000E+00 -0.00000000000E+00 -0.45593999997E+02  0.45594000000E+02  0.51100000000E-03 0. -1.
    9900012    2    1    2    0    0  0.26177874331E+01 -0.13512654177E+02  0.12697481888E+02  0.72461796961E+02  0.70000295275E+02 0.  0.
         12    1    1    2    0    0 -0.26177874331E+01  0.13512654177E+02 -0.12697481888E+02  0.18726203039E+02  0.00000000000E+00 0. -1.
         11    1    3    3    0    0  0.97994377498E+01  0.82575182466E+01 -0.55119592172E+00  0.12826511802E+02  0.51100000000E-03 0. -1.
        -11    1    3    3    0    0  0.27367035579E+01 -0.13338708416E+02  0.33159592167E+02  0.35846467630E+02  0.51100000000E-03 0.  1.
         12    1    3    3    0    0 -0.99183538747E+01 -0.84314640076E+01 -0.19910914358E+02  0.23788817530E+02  0.00000000000E+00 0. -1.
</event>
<event>
 7    1  0.2886818E-013  0.7246156E+02  0.7816164E-02  0.1226708E+00
        -11   -1    0    0    0    0  0.00000000000E+00  0.00000000000E+00  0.45593999997E+02  0.45594000000E+02  0.51100000000E-03 0.  1.
         11   -1    0    0    0    0 -0.00000000000E+00 -0.00000000000E+00 -0.45593999997E+02  0.45594000000E+02  0.51100000000E-03 0. -1.
    9900012    2    1    2    0    0  0.12368950230E+02  0.47555491410E+01 -0.13231534039E+02  0.72461556919E+02  0.69999982576E+02 0.  0.
         12    1    1    2    0    0 -0.12368950230E+02 -0.47555491410E+01  0.13231534039E+02  0.18726443081E+02  0.00000000000E+00 0. -1.
         11    1    3    3    0    0  0.41204171221E+01 -0.73156758121E+01 -0.17902751358E+02  0.19773857901E+02  0.51100000000E-03 0. -1.
        -11    1    3    3    0    0  0.17994033134E+01 -0.19769644206E+02  0.36506958650E+01  0.20184257848E+02  0.51100000000E-03 0.  1.
        -12    1    3    3    0    0  0.64491297949E+01  0.31840869159E+02  0.10205214536E+01  0.32503441171E+02  0.00000000000E+00 0.  1.
</event>
<event>
 7    1  0.2886818E-013  0.7246159E+02  0.7816164E-02  0.1226708E+00
        -11   -1    0    0    0    0  0.00000000000E+00  0.00000000000E+00  0.45593999997E+02  0.45594000000E+02  0.51100000000E-03 0.  1.
         11   -1    0    0    0    0 -0.00000000000E+00 -0.00000000000E+00 -0.45593999997E+02  0.45594000000E+02  0.51100000000E-03 0. -1.
    9900012    2    1    2    0    0  0.62474760393E+01  0.11206194490E+02  0.13640699973E+02  0.72461589571E+02  0.70000025111E+02 0.  0.
         12    1    1    2    0    0 -0.62474760393E+01 -0.11206194490E+02 -0.13640699973E+02  0.18726410429E+02  0.00000000000E+00 0. -1.
         11    1    3    3    0    0  0.57873530890E+01 -0.36984550339E+01 -0.40315068558E+01  0.79639860123E+01  0.51100000000E-03 0. -1.
        -11    1    3    3    0    0 -0.42814416837E+00 -0.23142771473E+02  0.16525147090E+01  0.23205645520E+02  0.51100000000E-03 0.  1.
        -12    1    3    3    0    0  0.88826711865E+00  0.38047420997E+02  0.16019692120E+02  0.41291958038E+02  0.00000000000E+00 0.  1.
</event>
<event>
 7    1  0.2886818E-013  0.7246155E+02  0.7816164E-02  0.1226708E+00
        -11   -1    0    0    0    0  0.00000000000E+00  0.00000000000E+00  0.45593999997E+02  0.45594000000E+02  0.51100000000E-03 0. -1.
         11   -1    0    0    0    0 -0.00000000000E+00 -0.00000000000E+00 -0.45593999997E+02  0.45594000000E+02  0.51100000000E-03 0.  1.
    9900012    2    1    2    0    0 -0.63030001164E+01 -0.15171283338E+02 -0.89879993756E+01  0.72461553958E+02  0.69999978719E+02 0.  0.
         12    1    1    2    0    0  0.63030001164E+01  0.15171283338E+02  0.89879993756E+01  0.18726446042E+02  0.00000000000E+00 0. -1.
         11    1    3    3    0    0 -0.16640327588E+01 -0.56964812162E+01 -0.11192956751E+02  0.12668906202E+02  0.51100000000E-03 0. -1.
        -11    1    3    3    0    0 -0.96960592719E+01  0.29768094636E+01 -0.26349160323E+02  0.28233901785E+02  0.51100000000E-03 0.  1.
         12    1    3    3    0    0  0.50570919142E+01 -0.12451611586E+02  0.28554117699E+02  0.31558745971E+02  0.00000000000E+00 0. -1.
</event>
<event>
 7    1  0.2886818E-013  0.7246158E+02  0.7816164E-02  0.1226708E+00
        -11   -1    0    0    0    0  0.00000000000E+00  0.00000000000E+00  0.45593999997E+02  0.45594000000E+02  0.51100000000E-03 0.  1.
         11   -1    0    0    0    0 -0.00000000000E+00 -0.00000000000E+00 -0.45593999997E+02  0.45594000000E+02  0.51100000000E-03 0. -1.
    9900012    2    1    2    0    0 -0.28942291887E+01  0.65878598941E+01  0.17288796778E+02  0.72461576032E+02  0.70000007474E+02 0.  0.
         12    1    1    2    0    0  0.28942291887E+01 -0.65878598941E+01 -0.17288796778E+02  0.18726423968E+02  0.00000000000E+00 0. -1.
         11    1    3    3    0    0 -0.63846022495E+01  0.23707527336E+02 -0.30851666449E+01  0.24745267260E+02  0.51100000000E-03 0. -1.
        -11    1    3    3    0    0 -0.48104849065E+01  0.11966992262E+02  0.63199150418E+01  0.14362833816E+02  0.51100000000E-03 0.  1.
        -12    1    3    3    0    0  0.83008579673E+01 -0.29086659704E+02  0.14054048382E+02  0.33353474956E+02  0.00000000000E+00 0.  1.
</event>
<event>
 7    1  0.2886818E-013  0.7246157E+02  0.7816164E-02  0.1226708E+00
        -11   -1    0    0    0    0  0.00000000000E+00  0.00000000000E+00  0.45593999997E+02  0.45594000000E+02  0.51100000000E-03 0.  1.
         11   -1    0    0    0    0 -0.00000000000E+00 -0.00000000000E+00 -0.45593999997E+02  0.45594000000E+02  0.51100000000E-03 0. -1.
    9900012    2    1    2    0    0 -0.80380388508E+01  0.16319733067E+02  0.44424465068E+01  0.72461572500E+02  0.70000002873E+02 0.  0.
         12    1    1    2    0    0  0.80380388508E+01 -0.16319733067E+02 -0.44424465068E+01  0.18726427500E+02  0.00000000000E+00 0. -1.
         11    1    3    3    0    0 -0.14597646379E+02  0.18069220322E+01 -0.14200029023E+02  0.20444976682E+02  0.51100000000E-03 0. -1.
        -11    1    3    3    0    0  0.40028367917E+00  0.14993325348E+02 -0.12956117827E+02  0.19819712950E+02  0.51100000000E-03 0.  1.
        -12    1    3    3    0    0  0.61593238486E+01 -0.48051431328E+00  0.31598593356E+02  0.32196882867E+02  0.00000000000E+00 0.  1.
</event>
<event>
 7    1  0.2886818E-013  0.7246159E+02  0.7816164E-02  0.1226708E+00
        -11   -1    0    0    0    0  0.00000000000E+00  0.00000000000E+00  0.45593999997E+02  0.45594000000E+02  0.51100000000E-03 0. -1.
         11   -1    0    0    0    0 -0.00000000000E+00 -0.00000000000E+00 -0.45593999997E+02  0.45594000000E+02  0.51100000000E-03 0.  1.
    9900012    2    1    2    0    0  0.78786654379E+01 -0.73119799905E+01 -0.15334280432E+02  0.72461586119E+02  0.70000020615E+02 0.  0.
         12    1    1    2    0    0 -0.78786654379E+01  0.73119799905E+01  0.15334280432E+02  0.18726413881E+02  0.00000000000E+00 0. -1.
         11    1    3    3    0    0  0.69819678009E+01 -0.45540059486E+01 -0.72945892063E+01  0.11076907353E+02  0.51100000000E-03 0. -1.
        -11    1    3    3    0    0 -0.13713472213E+02  0.10579882741E+02 -0.28228815094E+02  0.33118865331E+02  0.51100000000E-03 0.  1.
         12    1    3    3    0    0  0.14610169850E+02 -0.13337856783E+02  0.20189123868E+02  0.28265813435E+02  0.00000000000E+00 0. -1.
</event>
<event>
 7    1  0.2886818E-013  0.7246151E+02  0.7816164E-02  0.1226708E+00
        -11   -1    0    0    0    0  0.00000000000E+00  0.00000000000E+00  0.45593999997E+02  0.45594000000E+02  0.51100000000E-03 0.  1.
         11   -1    0    0    0    0 -0.00000000000E+00 -0.00000000000E+00 -0.45593999997E+02  0.45594000000E+02  0.51100000000E-03 0. -1.
    9900012    2    1    2    0    0  0.16698238884E+02  0.49116295382E+01  0.69084164056E+01  0.72461507969E+02  0.69999918810E+02 0.  0.
         12    1    1    2    0    0 -0.16698238884E+02 -0.49116295382E+01 -0.69084164056E+01  0.18726492031E+02  0.00000000000E+00 0. -1.
         11    1    3    3    0    0  0.65019710377E+01 -0.20013437928E+02  0.33819549976E+01  0.21313163654E+02  0.51100000000E-03 0. -1.
        -11    1    3    3    0    0 -0.46170409992E+01  0.70211792848E+01 -0.17751907003E+02  0.19640372416E+02  0.51100000000E-03 0.  1.
        -12    1    3    3    0    0  0.14813308846E+02  0.17903888182E+02  0.21278368411E+02  0.31507971899E+02  0.00000000000E+00 0.  1.
</event>
<event>
 7    1  0.2886818E-013  0.7246170E+02  0.7816164E-02  0.1226708E+00
        -11   -1    0    0    0    0  0.00000000000E+00  0.00000000000E+00  0.45593999997E+02  0.45594000000E+02  0.51100000000E-03 0.  1.
         11   -1    0    0    0    0 -0.00000000000E+00 -0.00000000000E+00 -0.45593999997E+02  0.45594000000E+02  0.51100000000E-03 0. -1.
    9900012    2    1    2    0    0 -0.78336599104E+01 -0.10414792192E+02  0.13447689662E+02  0.72461695473E+02  0.70000163069E+02 0.  0.
         12    1    1    2    0    0  0.78336599104E+01  0.10414792192E+02 -0.13447689662E+02  0.18726304527E+02  0.00000000000E+00 0. -1.
         11    1    3    3    0    0 -0.24496651485E+02 -0.30202365520E+01  0.11789550860E+02  0.27353268042E+02  0.51100000000E-03 0. -1.
        -11    1    3    3    0    0 -0.52490976758E+01  0.71944968676E+01  0.13556261703E+02  0.16219927349E+02  0.51100000000E-03 0.  1.
        -12    1    3    3    0    0  0.21912089251E+02 -0.14589052507E+02 -0.11898122902E+02  0.28888500082E+02  0.00000000000E+00 0.  1.
</event>
<event>
 7    1  0.2886818E-013  0.7246159E+02  0.7816164E-02  0.1226708E+00
        -11   -1    0    0    0    0  0.00000000000E+00  0.00000000000E+00  0.45593999997E+02  0.45594000000E+02  0.51100000000E-03 0. -1.
         11   -1    0    0    0    0 -0.00000000000E+00 -0.00000000000E+00 -0.45593999997E+02  0.45594000000E+02  0.51100000000E-03 0.  1.
    9900012    2    1    2    0    0 -0.36144932747E+01  0.56229146992E+01 -0.17492759247E+02  0.72461591978E+02  0.70000028247E+02 0.  0.
         12    1    1    2    0    0  0.36144932747E+01 -0.56229146992E+01  0.17492759247E+02  0.18726408022E+02  0.00000000000E+00 0. -1.
         11    1    3    3    0    0  0.55822057282E+01  0.10524741889E+02 -0.15234001182E+00  0.11914462655E+02  0.51100000000E-03 0.  1.
        -11    1    3    3    0    0  0.96656394811E+01 -0.19854468015E+01  0.17917301055E+02  0.20454736931E+02  0.51100000000E-03 0. -1.
        -12    1    3    3    0    0 -0.18862338484E+02 -0.29163803881E+01 -0.35257720290E+02  0.40092392392E+02  0.00000000000E+00 0.  1.
</event>
<event>
 7    1  0.2886818E-013  0.7246157E+02  0.7816164E-02  0.1226708E+00
        -11   -1    0    0    0    0  0.00000000000E+00  0.00000000000E+00  0.45593999997E+02  0.45594000000E+02  0.51100000000E-03 0.  1.
         11   -1    0    0    0    0 -0.00000000000E+00 -0.00000000000E+00 -0.45593999997E+02  0.45594000000E+02  0.51100000000E-03 0. -1.
    9900012    2    1    2    0    0  0.14491828496E+01  0.10618467575E+02  0.15356667331E+02  0.72461569051E+02  0.69999998380E+02 0.  0.
         12    1    1    2    0    0 -0.14491828496E+01 -0.10618467575E+02 -0.15356667331E+02  0.18726430949E+02  0.00000000000E+00 0. -1.
         11    1    3    3    0    0 -0.45475761517E+01 -0.19853773693E+02 -0.14878190956E+02  0.25223269913E+02  0.51100000000E-03 0. -1.
        -11    1    3    3    0    0 -0.22075381999E+01  0.49061637837E+01 -0.15803792099E+01  0.56072512593E+01  0.51100000000E-03 0.  1.
        -12    1    3    3    0    0  0.82042972012E+01  0.25566077485E+02  0.31815237497E+02  0.41631047879E+02  0.00000000000E+00 0.  1.
</event>
<event>
 7    1  0.2886818E-013  0.7246194E+02  0.7816164E-02  0.1226707E+00
        -11   -1    0    0    0    0  0.00000000000E+00  0.00000000000E+00  0.45593999997E+02  0.45594000000E+02  0.51100000000E-03 0.  1.
         11   -1    0    0    0    0 -0.00000000000E+00 -0.00000000000E+00 -0.45593999997E+02  0.45594000000E+02  0.51100000000E-03 0. -1.
    9900012    2    1    2    0    0  0.76420255727E+01 -0.16510661006E+02  0.44342612935E+01  0.72461944491E+02  0.70000487459E+02 0.  0.
         12    1    1    2    0    0 -0.76420255727E+01  0.16510661006E+02 -0.44342612935E+01  0.18726055509E+02  0.00000000000E+00 0. -1.
         11    1    3    3    0    0  0.40540339041E+00  0.24401832482E+02  0.51083636487E+01  0.24934096330E+02  0.51100000000E-03 0. -1.
        -11    1    3    3    0    0 -0.76166455176E+01 -0.91757137370E+01  0.29958095237E+01  0.12295604356E+02  0.51100000000E-03 0.  1.
        -12    1    3    3    0    0  0.14853267700E+02 -0.31736779751E+02 -0.36699118790E+01  0.35232243804E+02  0.00000000000E+00 0.  1.
</event>
<event>
 7    1  0.3177627E-013  0.7246169E+02  0.7816164E-02  0.1226708E+00
        -11   -1    0    0    0    0  0.00000000000E+00  0.00000000000E+00  0.45593999997E+02  0.45594000000E+02  0.51100000000E-03 0. -1.
         11   -1    0    0    0    0 -0.00000000000E+00 -0.00000000000E+00 -0.45593999997E+02  0.45594000000E+02  0.51100000000E-03 0.  1.
    9900012    2    1    2    0    0  0.11531816368E+02  0.74301409557E+00 -0.14735662812E+02  0.72461691843E+02  0.70000158339E+02 0.  0.
         12    1    1    2    0    0 -0.11531816368E+02 -0.74301409557E+00  0.14735662812E+02  0.18726308157E+02  0.00000000000E+00 0. -1.
         11    1    3    3    0    0  0.15210563431E+01 -0.39130700046E+01  0.72531372909E+01  0.83805566689E+01  0.51100000000E-03 0. -1.
        -11    1    3    3    0    0  0.27648182227E+02 -0.16846452299E+02 -0.11491136541E+02  0.34355074658E+02  0.51100000000E-03 0.  1.
         12    1    3    3    0    0 -0.17637422202E+02  0.21502536399E+02 -0.10497663562E+02  0.29726060516E+02  0.00000000000E+00 0. -1.
</event>
<event>
 7    1  0.2886818E-013  0.7246163E+02  0.7816164E-02  0.1226708E+00
        -11   -1    0    0    0    0  0.00000000000E+00  0.00000000000E+00  0.45593999997E+02  0.45594000000E+02  0.51100000000E-03 0. -1.
         11   -1    0    0    0    0 -0.00000000000E+00 -0.00000000000E+00 -0.45593999997E+02  0.45594000000E+02  0.51100000000E-03 0.  1.
    9900012    2    1    2    0    0  0.18624147298E+02 -0.11720856847E+01 -0.15634473781E+01  0.72461627817E+02  0.70000074934E+02 0.  0.
         12    1    1    2    0    0 -0.18624147298E+02  0.11720856847E+01  0.15634473781E+01  0.18726372183E+02  0.00000000000E+00 0. -1.
         11    1    3    3    0    0 -0.59629622951E+01  0.17424638339E+02  0.39347350848E+01  0.18832341358E+02  0.51100000000E-03 0. -1.
        -11    1    3    3    0    0  0.15924548311E+02 -0.17852237044E+02  0.17106856753E+02  0.29409830917E+02  0.51100000000E-03 0.  1.
        -12    1    3    3    0    0  0.86625612821E+01 -0.74448697930E+00 -0.22605039215E+02  0.24219455542E+02  0.00000000000E+00 0.  1.
</event>
<event>
 7    1  0.2886818E-013  0.7246159E+02  0.7816164E-02  0.1226708E+00
        -11   -1    0    0    0    0  0.00000000000E+00  0.00000000000E+00  0.45593999997E+02  0.45594000000E+02  0.51100000000E-03 0.  1.
         11   -1    0    0    0    0 -0.00000000000E+00 -0.00000000000E+00 -0.45593999997E+02  0.45594000000E+02  0.51100000000E-03 0. -1.
    9900012    2    1    2    0    0  0.11844302770E+02 -0.36357204142E+00  0.14500307322E+02  0.72461585363E+02  0.70000019630E+02 0.  0.
         12    1    1    2    0    0 -0.11844302770E+02  0.36357204142E+00 -0.14500307322E+02  0.18726414637E+02  0.00000000000E+00 0. -1.
         11    1    3    3    0    0  0.16621014287E+02 -0.12864292653E+02 -0.23691471061E+01  0.21150910137E+02  0.51100000000E-03 0. -1.
        -11    1    3    3    0    0 -0.12092172912E+02  0.84826779886E+01 -0.13380613680E+02  0.19930310943E+02  0.51100000000E-03 0.  1.
        -12    1    3    3    0    0  0.73154613946E+01  0.40180426225E+01  0.30250068108E+02  0.31380364282E+02  0.00000000000E+00 0.  1.
</event>
<event>
 7    1  0.2886818E-013  0.7246156E+02  0.7816164E-02  0.1226708E+00
        -11   -1    0    0    0    0  0.00000000000E+00  0.00000000000E+00  0.45593999997E+02  0.45594000000E+02  0.51100000000E-03 0.  1.
         11   -1    0    0    0    0 -0.00000000000E+00 -0.00000000000E+00 -0.45593999997E+02  0.45594000000E+02  0.51100000000E-03 0. -1.
    9900012    2    1    2    0    0 -0.55660051748E+01  0.23582054104E+01  0.17723943821E+02  0.72461555304E+02  0.69999980473E+02 0.  0.
         12    1    1    2    0    0  0.55660051748E+01 -0.23582054104E+01 -0.17723943821E+02  0.18726444696E+02  0.00000000000E+00 0. -1.
         11    1    3    3    0    0 -0.22814300735E+01 -0.60938334645E+01 -0.14250002110E+02  0.15665321250E+02  0.51100000000E-03 0.  1.
        -11    1    3    3    0    0  0.12040031636E+02 -0.14600327395E+02  0.16355801369E+02  0.25012879892E+02  0.51100000000E-03 0. -1.
        -12    1    3    3    0    0 -0.15324606737E+02  0.23052366269E+02  0.15618144562E+02  0.31783354163E+02  0.00000000000E+00 0.  1.
</event>
<event>
 7    1  0.2886818E-013  0.7246153E+02  0.7816164E-02  0.1226708E+00
        -11   -1    0    0    0    0  0.00000000000E+00  0.00000000000E+00  0.45593999997E+02  0.45594000000E+02  0.51100000000E-03 0. -1.
         11   -1    0    0    0    0 -0.00000000000E+00 -0.00000000000E+00 -0.45593999997E+02  0.45594000000E+02  0.51100000000E-03 0.  1.
    9900012    2    1    2    0    0 -0.61993192565E+01 -0.11168347279E+02 -0.13693686052E+02  0.72461532691E+02  0.69999951014E+02 0.  0.
         12    1    1    2    0    0  0.61993192565E+01  0.11168347279E+02  0.13693686052E+02  0.18726467309E+02  0.00000000000E+00 0. -1.
         11    1    3    3    0    0 -0.88843917199E+01 -0.16177800998E+02  0.73601669980E+01  0.19870221938E+02  0.51100000000E-03 0. -1.
        -11    1    3    3    0    0 -0.64415087899E+01 -0.14567100869E+02 -0.25945937298E+02  0.30444788154E+02  0.51100000000E-03 0.  1.
         12    1    3    3    0    0  0.91265812533E+01  0.19576554588E+02  0.48920842475E+01  0.22146522599E+02  0.00000000000E+00 0. -1.
</event>
<event>
 7    1  0.2886818E-013  0.7246157E+02  0.7816164E-02  0.1226708E+00
        -11   -1    0    0    0    0  0.00000000000E+00  0.00000000000E+00  0.45593999997E+02  0.45594000000E+02  0.51100000000E-03 0. -1.
         11   -1    0    0    0    0 -0.00000000000E+00 -0.00000000000E+00 -0.45593999997E+02  0.45594000000E+02  0.51100000000E-03 0.  1.
    9900012    2    1    2    0    0 -0.17750120697E+02 -0.93732233132E+00  0.58935338605E+01  0.72461572170E+02  0.70000002443E+02 0.  0.
         12    1    1    2    0    0  0.17750120697E+02  0.93732233132E+00 -0.58935338605E+01  0.18726427830E+02  0.00000000000E+00 0. -1.
         11    1    3    3    0    0 -0.46072601763E+01  0.21465634389E+02  0.24791728194E+02  0.33115405678E+02  0.51100000000E-03 0. -1.
        -11    1    3    3    0    0 -0.10149108060E+02  0.13056023365E+01 -0.30721620945E+01  0.10683967993E+02  0.51100000000E-03 0.  1.
        -12    1    3    3    0    0 -0.29937524605E+01 -0.23708559057E+02 -0.15826032239E+02  0.28662198499E+02  0.00000000000E+00 0.  1.
</event>
<event>
 7    1  0.2886818E-013  0.7246157E+02  0.7816164E-02  0.1226708E+00
        -11   -1    0    0    0    0  0.00000000000E+00  0.00000000000E+00  0.45593999997E+02  0.45594000000E+02  0.51100000000E-03 0.  1.
         11   -1    0    0    0    0 -0.00000000000E+00 -0.00000000000E+00 -0.45593999997E+02  0.45594000000E+02  0.51100000000E-03 0. -1.
    9900012    2    1    2    0    0 -0.16634146035E+02 -0.60154668844E+01  0.61480390379E+01  0.72461573748E+02  0.70000004499E+02 0.  0.
         12    1    1    2    0    0  0.16634146035E+02  0.60154668844E+01 -0.61480390379E+01  0.18726426252E+02  0.00000000000E+00 0. -1.
         11    1    3    3    0    0  0.93477190576E+01 -0.36978271915E+00  0.51694985214E+00  0.93693024420E+01  0.51100000000E-03 0. -1.
        -11    1    3    3    0    0  0.17102018918E+02 -0.94770891841E+01  0.79013055383E+00  0.19568305421E+02  0.51100000000E-03 0.  1.
         12    1    3    3    0    0 -0.43083884011E+02  0.38314050189E+01  0.48409586320E+01  0.43523965885E+02  0.00000000000E+00 0. -1.
</event>
<event>
 7    1  0.2886818E-013  0.7246158E+02  0.7816164E-02  0.1226708E+00
        -11   -1    0    0    0    0  0.00000000000E+00  0.00000000000E+00  0.45593999997E+02  0.45594000000E+02  0.51100000000E-03 0.  1.
         11   -1    0    0    0    0 -0.00000000000E+00 -0.00000000000E+00 -0.45593999997E+02  0.45594000000E+02  0.51100000000E-03 0. -1.
    9900012    2    1    2    0    0 -0.87273645669E+01  0.11533288974E+02  0.11895178243E+02  0.72461577163E+02  0.70000008948E+02 0.  0.
         12    1    1    2    0    0  0.87273645669E+01 -0.11533288974E+02 -0.11895178243E+02  0.18726422837E+02  0.00000000000E+00 0. -1.
         11    1    3    3    0    0 -0.24619235599E+02  0.47618502863E+01  0.73188047101E+01  0.26121770274E+02  0.51100000000E-03 0. -1.
        -11    1    3    3    0    0  0.17791215964E+01 -0.14708734839E+02 -0.89365957511E+01  0.17302453528E+02  0.51100000000E-03 0.  1.
        -12    1    3    3    0    0  0.14112749435E+02  0.21480173526E+02  0.13512969284E+02  0.29037353361E+02  0.00000000000E+00 0.  1.
</event>
<event>
 7    1  0.2886818E-013  0.7246160E+02  0.7816164E-02  0.1226708E+00
        -11   -1    0    0    0    0  0.00000000000E+00  0.00000000000E+00  0.45593999997E+02  0.45594000000E+02  0.51100000000E-03 0.  1.
         11   -1    0    0    0    0 -0.00000000000E+00 -0.00000000000E+00 -0.45593999997E+02  0.45594000000E+02  0.51100000000E-03 0. -1.
    9900012    2    1    2    0    0 -0.10207040398E+02 -0.84064682130E+01  0.13259922061E+02  0.72461603802E+02  0.70000043650E+02 0.  0.
         12    1    1    2    0    0  0.10207040398E+02  0.84064682130E+01 -0.13259922061E+02  0.18726396198E+02  0.00000000000E+00 0. -1.
         11    1    3    3    0    0 -0.12476631062E+02 -0.76690248865E+01  0.28959826253E+01  0.14928730053E+02  0.51100000000E-03 0. -1.
        -11    1    3    3    0    0  0.11305136612E+01 -0.14670178652E+02  0.30008826016E+02  0.33421876697E+02  0.51100000000E-03 0.  1.
         12    1    3    3    0    0  0.11390770036E+01  0.13932735326E+02 -0.19644886581E+02  0.24110997052E+02  0.00000000000E+00 0. -1.
</event>
<event>
 7    1  0.2886818E-013  0.7246154E+02  0.7816164E-02  0.1226708E+00
        -11   -1    0    0    0    0  0.00000000000E+00  0.00000000000E+00  0.45593999997E+02  0.45594000000E+02  0.51100000000E-03 0.  1.
         11   -1    0    0    0    0 -0.00000000000E+00 -0.00000000000E+00 -0.45593999997E+02  0.45594000000E+02  0.51100000000E-03 0. -1.
    9900012    2    1    2    0    0 -0.55913461345E+01 -0.96723942638E+01  0.15028709396E+02  0.72461535611E+02  0.69999954819E+02 0.  0.
         12    1    1    2    0    0  0.55913461345E+01  0.96723942638E+01 -0.15028709396E+02  0.18726464389E+02  0.00000000000E+00 0. -1.
         11    1    3    3    0    0 -0.12321484261E+02  0.14942431505E+02  0.36689899530E+01  0.19711842157E+02  0.51100000000E-03 0. -1.
        -11    1    3    3    0    0  0.62246717952E+01  0.10986479432E+02  0.11596034329E+02  0.17144015915E+02  0.51100000000E-03 0.  1.
        -12    1    3    3    0    0  0.50546633161E+00 -0.35601305202E+02 -0.23631488531E+00  0.35605677539E+02  0.00000000000E+00 0.  1.
</event>
<event>
 7    1  0.2886818E-013  0.7246140E+02  0.7816164E-02  0.1226708E+00
        -11   -1    0    0    0    0  0.00000000000E+00  0.00000000000E+00  0.45593999997E+02  0.45594000000E+02  0.51100000000E-03 0.  1.
         11   -1    0    0    0    0 -0.00000000000E+00 -0.00000000000E+00 -0.45593999997E+02  0.45594000000E+02  0.51100000000E-03 0. -1.
    9900012    2    1    2    0    0 -0.50766451761E+01 -0.71510747056E+01  0.16546153921E+02  0.72461403799E+02  0.69999783109E+02 0.  0.
         12    1    1    2    0    0  0.50766451761E+01  0.71510747056E+01 -0.16546153921E+02  0.18726596201E+02  0.00000000000E+00 0. -1.
         11    1    3    3    0    0  0.28078951714E+02 -0.37469802512E+01  0.63950925123E+01  0.29040740329E+02  0.51100000000E-03 0. -1.
        -11    1    3    3    0    0  0.29872692322E+01  0.15328382394E+01 -0.31392427470E+01  0.45965438994E+01  0.51100000000E-03 0.  1.
         12    1    3    3    0    0 -0.36142866122E+02 -0.49369326938E+01  0.13290304156E+02  0.38824119571E+02  0.00000000000E+00 0. -1.
</event>
<event>
 7    1  0.2886818E-013  0.7246150E+02  0.7816164E-02  0.1226708E+00
        -11   -1    0    0    0    0  0.00000000000E+00  0.00000000000E+00  0.45593999997E+02  0.45594000000E+02  0.51100000000E-03 0.  1.
         11   -1    0    0    0    0 -0.00000000000E+00 -0.00000000000E+00 -0.45593999997E+02  0.45594000000E+02  0.51100000000E-03 0. -1.
    9900012    2    1    2    0    0  0.85614683601E+01  0.14714279459E+02 -0.78021205812E+01  0.72461498830E+02  0.69999906905E+02 0.  0.
         12    1    1    2    0    0 -0.85614683601E+01 -0.14714279459E+02  0.78021205812E+01  0.18726501170E+02  0.00000000000E+00 0. -1.
         11    1    3    3    0    0 -0.13504571540E+02 -0.48299752759E+01 -0.22994993258E+02  0.27101140729E+02  0.51100000000E-03 0. -1.
        -11    1    3    3    0    0  0.13196438533E+01 -0.52137252242E+01 -0.49366182444E+01  0.73003144154E+01  0.51100000000E-03 0.  1.
        -12    1    3    3    0    0  0.20746396047E+02  0.24757979959E+02  0.20129490921E+02  0.38060043686E+02  0.00000000000E+00 0.  1.
</event>
<event>
 7    1  0.2886818E-013  0.7246149E+02  0.7816164E-02  0.1226708E+00
        -11   -1    0    0    0    0  0.00000000000E+00  0.00000000000E+00  0.45593999997E+02  0.45594000000E+02  0.51100000000E-03 0. -1.
         11   -1    0    0    0    0 -0.00000000000E+00 -0.00000000000E+00 -0.45593999997E+02  0.45594000000E+02  0.51100000000E-03 0.  1.
    9900012    2    1    2    0    0  0.16914007092E+02 -0.79922461003E+01  0.84999292951E+00  0.72461491472E+02  0.69999897320E+02 0.  0.
         12    1    1    2    0    0 -0.16914007092E+02  0.79922461003E+01 -0.84999292951E+00  0.18726508528E+02  0.00000000000E+00 0. -1.
         11    1    3    3    0    0  0.15387668257E+02  0.99304304542E-01  0.18010572359E+02  0.23689046259E+02  0.51100000000E-03 0.  1.
        -11    1    3    3    0    0  0.21212909449E+02 -0.12010580685E+01  0.77906272430E+00  0.21261161933E+02  0.51100000000E-03 0. -1.
         12    1    3    3    0    0 -0.19686570613E+02 -0.68904923363E+01 -0.17939642153E+02  0.27511283280E+02  0.00000000000E+00 0. -1.
</event>
<event>
 7    1  0.2886818E-013  0.7246160E+02  0.7816164E-02  0.1226708E+00
        -11   -1    0    0    0    0  0.00000000000E+00  0.00000000000E+00  0.45593999997E+02  0.45594000000E+02  0.51100000000E-03 0.  1.
         11   -1    0    0    0    0 -0.00000000000E+00 -0.00000000000E+00 -0.45593999997E+02  0.45594000000E+02  0.51100000000E-03 0. -1.
    9900012    2    1    2    0    0  0.14514078843E+02  0.72346823800E+01  0.93636953647E+01  0.72461604066E+02  0.70000043994E+02 0.  0.
         12    1    1    2    0    0 -0.14514078843E+02 -0.72346823800E+01 -0.93636953647E+01  0.18726395934E+02  0.00000000000E+00 0. -1.
         11    1    3    3    0    0  0.20691634116E+02  0.32854950795E+02 -0.30590206683E+01  0.38948031040E+02  0.51100000000E-03 0. -1.
        -11    1    3    3    0    0  0.50919265478E+00  0.20725830782E+01  0.26339098881E+01  0.33900382498E+01  0.51100000000E-03 0.  1.
         12    1    3    3    0    0 -0.66867479276E+01 -0.27692851494E+02  0.97888061450E+01  0.30123534777E+02  0.00000000000E+00 0. -1.
</event>
<event>
 7    1  0.2886818E-013  0.7246157E+02  0.7816164E-02  0.1226708E+00
        -11   -1    0    0    0    0  0.00000000000E+00  0.00000000000E+00  0.45593999997E+02  0.45594000000E+02  0.51100000000E-03 0. -1.
         11   -1    0    0    0    0 -0.00000000000E+00 -0.00000000000E+00 -0.45593999997E+02  0.45594000000E+02  0.51100000000E-03 0.  1.
    9900012    2    1    2    0    0 -0.65724439610E+01  0.12086930573E+02 -0.12703871075E+02  0.72461568130E+02  0.69999997180E+02 0.  0.
         12    1    1    2    0    0  0.65724439610E+01 -0.12086930573E+02  0.12703871075E+02  0.18726431870E+02  0.00000000000E+00 0. -1.
         11    1    3    3    0    0  0.21525027407E+02 -0.99818329427E+00  0.51230002772E+01  0.22148776645E+02  0.51100000000E-03 0. -1.
        -11    1    3    3    0    0  0.20822695222E+01  0.84845999032E+01  0.68150118297E+01  0.11080102363E+02  0.51100000000E-03 0.  1.
        -12    1    3    3    0    0 -0.30179740890E+02  0.46005139641E+01 -0.24641883182E+02  0.39232689121E+02  0.00000000000E+00 0.  1.
</event>
<event>
 7    1  0.2886818E-013  0.7246161E+02  0.7816164E-02  0.1226708E+00
        -11   -1    0    0    0    0  0.00000000000E+00  0.00000000000E+00  0.45593999997E+02  0.45594000000E+02  0.51100000000E-03 0.  1.
         11   -1    0    0    0    0 -0.00000000000E+00 -0.00000000000E+00 -0.45593999997E+02  0.45594000000E+02  0.51100000000E-03 0. -1.
    9900012    2    1    2    0    0  0.18822731957E+01  0.18588139512E+02  0.12711325228E+01  0.72461610578E+02  0.70000052477E+02 0.  0.
         12    1    1    2    0    0 -0.18822731957E+01 -0.18588139512E+02 -0.12711325228E+01  0.18726389422E+02  0.00000000000E+00 0. -1.
         11    1    3    3    0    0 -0.10394234484E+01 -0.10148537242E+02  0.14253538902E+02  0.17528165356E+02  0.51100000000E-03 0. -1.
        -11    1    3    3    0    0  0.27019870009E+00  0.21299683577E+02  0.14873498554E+02  0.25980194135E+02  0.51100000000E-03 0.  1.
         12    1    3    3    0    0  0.26514979441E+01  0.74369931776E+01 -0.27855904933E+02  0.28953251087E+02  0.00000000000E+00 0. -1.
</event>
<event>
 7    1  0.2886818E-013  0.7246179E+02  0.7816164E-02  0.1226707E+00
        -11   -1    0    0    0    0  0.00000000000E+00  0.00000000000E+00  0.45593999997E+02  0.45594000000E+02  0.51100000000E-03 0.  1.
         11   -1    0    0    0    0 -0.00000000000E+00 -0.00000000000E+00 -0.45593999997E+02  0.45594000000E+02  0.51100000000E-03 0. -1.
    9900012    2    1    2    0    0 -0.32549730100E+00 -0.67136380262E+01  0.17478328829E+02  0.72461792089E+02  0.70000288929E+02 0.  0.
         12    1    1    2    0    0  0.32549730100E+00  0.67136380262E+01 -0.17478328829E+02  0.18726207911E+02  0.00000000000E+00 0. -1.
         11    1    3    3    0    0  0.38861712262E+01  0.11364760814E+02  0.17012690612E+02  0.20825267280E+02  0.51100000000E-03 0. -1.
        -11    1    3    3    0    0  0.21773964988E+02 -0.47930578997E+01 -0.17750756960E+01  0.22365818772E+02  0.51100000000E-03 0.  1.
         12    1    3    3    0    0 -0.25985633515E+02 -0.13285340941E+02  0.22407139136E+01  0.29270706038E+02  0.00000000000E+00 0. -1.
</event>
<event>
 7    1  0.2886818E-013  0.7246160E+02  0.7816164E-02  0.1226708E+00
        -11   -1    0    0    0    0  0.00000000000E+00  0.00000000000E+00  0.45593999997E+02  0.45594000000E+02  0.51100000000E-03 0.  1.
         11   -1    0    0    0    0 -0.00000000000E+00 -0.00000000000E+00 -0.45593999997E+02  0.45594000000E+02  0.51100000000E-03 0. -1.
    9900012    2    1    2    0    0 -0.10325185141E+02 -0.29522650864E+01  0.15341215133E+02  0.72461596205E+02  0.70000033753E+02 0.  0.
         12    1    1    2    0    0  0.10325185141E+02  0.29522650864E+01 -0.15341215133E+02  0.18726403795E+02  0.00000000000E+00 0. -1.
         11    1    3    3    0    0  0.11529271291E+02  0.22348549684E+01 -0.22551527441E+02  0.25426168870E+02  0.51100000000E-03 0. -1.
        -11    1    3    3    0    0  0.23028767437E+01  0.63250057190E+00  0.69595009757E+01  0.73578497105E+01  0.51100000000E-03 0.  1.
        -12    1    3    3    0    0 -0.24157333176E+02 -0.58196206266E+01  0.30933241598E+02  0.39677577625E+02  0.00000000000E+00 0.  1.
</event>
<event>
 7    1  0.2886818E-013  0.7246158E+02  0.7816164E-02  0.1226708E+00
        -11   -1    0    0    0    0  0.00000000000E+00  0.00000000000E+00  0.45593999997E+02  0.45594000000E+02  0.51100000000E-03 0.  1.
         11   -1    0    0    0    0 -0.00000000000E+00 -0.00000000000E+00 -0.45593999997E+02  0.45594000000E+02  0.51100000000E-03 0. -1.
    9900012    2    1    2    0    0 -0.14422004608E+02 -0.97916000507E+01 -0.68417182896E+01  0.72461581292E+02  0.70000014327E+02 0.  0.
         12    1    1    2    0    0  0.14422004608E+02  0.97916000507E+01  0.68417182896E+01  0.18726418708E+02  0.00000000000E+00 0. -1.
         11    1    3    3    0    0 -0.13489474338E+02  0.12333768610E+02  0.11912423824E+02  0.21817277733E+02  0.51100000000E-03 0. -1.
        -11    1    3    3    0    0 -0.17235907122E+02  0.16112791980E+01 -0.22580236831E+01  0.17457702775E+02  0.51100000000E-03 0.  1.
         12    1    3    3    0    0  0.16303376852E+02 -0.23736647859E+02 -0.16496118431E+02  0.33186600784E+02  0.00000000000E+00 0. -1.
</event>
<event>
 7    1  0.2886818E-013  0.7246155E+02  0.7816164E-02  0.1226708E+00
        -11   -1    0    0    0    0  0.00000000000E+00  0.00000000000E+00  0.45593999997E+02  0.45594000000E+02  0.51100000000E-03 0. -1.
         11   -1    0    0    0    0 -0.00000000000E+00 -0.00000000000E+00 -0.45593999997E+02  0.45594000000E+02  0.51100000000E-03 0.  1.
    9900012    2    1    2    0    0 -0.78056220163E+01  0.14758970410E+02 -0.84808643803E+01  0.72461548033E+02  0.69999971001E+02 0.  0.
         12    1    1    2    0    0  0.78056220163E+01 -0.14758970410E+02  0.84808643803E+01  0.18726451967E+02  0.00000000000E+00 0. -1.
         11    1    3    3    0    0 -0.56334774299E+01 -0.12202612196E+02  0.90718300447E+01  0.16215360402E+02  0.51100000000E-03 0. -1.
        -11    1    3    3    0    0 -0.16650887435E+02  0.33573992165E+02 -0.13355952332E+02  0.39785003019E+02  0.51100000000E-03 0.  1.
         12    1    3    3    0    0  0.14478742848E+02 -0.66124095587E+01 -0.41967420929E+01  0.16461184612E+02  0.00000000000E+00 0. -1.
</event>
<event>
 7    1  0.2886818E-013  0.7246154E+02  0.7816164E-02  0.1226708E+00
        -11   -1    0    0    0    0  0.00000000000E+00  0.00000000000E+00  0.45593999997E+02  0.45594000000E+02  0.51100000000E-03 0.  1.
         11   -1    0    0    0    0 -0.00000000000E+00 -0.00000000000E+00 -0.45593999997E+02  0.45594000000E+02  0.51100000000E-03 0. -1.
    9900012    2    1    2    0    0  0.17206198415E+02 -0.49303480394E+00  0.73745514888E+01  0.72461538592E+02  0.69999958702E+02 0.  0.
         12    1    1    2    0    0 -0.17206198415E+02  0.49303480394E+00 -0.73745514888E+01  0.18726461408E+02  0.00000000000E+00 0. -1.
         11    1    3    3    0    0 -0.34492580366E+01 -0.87582868694E+00  0.80495261035E+01  0.88010980931E+01  0.51100000000E-03 0. -1.
        -11    1    3    3    0    0  0.28174685137E+02  0.23310535497E+02  0.90079900999E+01  0.37660826247E+02  0.51100000000E-03 0.  1.
         12    1    3    3    0    0 -0.75192286853E+01 -0.22927741614E+02 -0.96829647146E+01  0.25999614252E+02  0.00000000000E+00 0. -1.
</event>
<event>
 7    1  0.2886818E-013  0.7246175E+02  0.7816164E-02  0.1226708E+00
        -11   -1    0    0    0    0  0.00000000000E+00  0.00000000000E+00  0.45593999997E+02  0.45594000000E+02  0.51100000000E-03 0.  1.
         11   -1    0    0    0    0 -0.00000000000E+00 -0.00000000000E+00 -0.45593999997E+02  0.45594000000E+02  0.51100000000E-03 0. -1.
    9900012    2    1    2    0    0  0.13854370317E+02  0.86872103963E+01  0.91247586267E+01  0.72461750473E+02  0.70000234716E+02 0.  0.
         12    1    1    2    0    0 -0.13854370317E+02 -0.86872103963E+01 -0.91247586267E+01  0.18726249527E+02  0.00000000000E+00 0. -1.
         11    1    3    3    0    0 -0.93713506904E+01 -0.96805997945E+01 -0.21820766596E+02  0.25645313046E+02  0.51100000000E-03 0. -1.
        -11    1    3    3    0    0 -0.26306679713E+01 -0.80813900283E+00  0.38933473227E+01  0.47677726728E+01  0.51100000000E-03 0.  1.
        -12    1    3    3    0    0  0.25856388979E+02  0.19175949194E+02  0.27052177900E+02  0.42048664754E+02  0.00000000000E+00 0.  1.
</event>
<event>
 7    1  0.2886818E-013  0.7246151E+02  0.7816164E-02  0.1226708E+00
        -11   -1    0    0    0    0  0.00000000000E+00  0.00000000000E+00  0.45593999997E+02  0.45594000000E+02  0.51100000000E-03 0. -1.
         11   -1    0    0    0    0 -0.00000000000E+00 -0.00000000000E+00 -0.45593999997E+02  0.45594000000E+02  0.51100000000E-03 0.  1.
    9900012    2    1    2    0    0  0.10968512833E+02 -0.85498127748E+00 -0.15153947593E+02  0.72461510889E+02  0.69999922614E+02 0.  0.
         12    1    1    2    0    0 -0.10968512833E+02  0.85498127748E+00  0.15153947593E+02  0.18726489111E+02  0.00000000000E+00 0. -1.
         11    1    3    3    0    0 -0.11261638196E+02 -0.87220163561E+01 -0.30468891270E+02  0.33634080925E+02  0.51100000000E-03 0. -1.
        -11    1    3    3    0    0  0.20134212684E+01 -0.71803322669E+01 -0.26102037232E+01  0.79008987087E+01  0.51100000000E-03 0.  1.
         12    1    3    3    0    0  0.20216729760E+02  0.15047367345E+02  0.17925147400E+02  0.30926531256E+02  0.00000000000E+00 0. -1.
</event>
<event>
 7    1  0.2886818E-013  0.7246157E+02  0.7816164E-02  0.1226708E+00
        -11   -1    0    0    0    0  0.00000000000E+00  0.00000000000E+00  0.45593999997E+02  0.45594000000E+02  0.51100000000E-03 0.  1.
         11   -1    0    0    0    0 -0.00000000000E+00 -0.00000000000E+00 -0.45593999997E+02  0.45594000000E+02  0.51100000000E-03 0. -1.
    9900012    2    1    2    0    0 -0.11684689877E+02 -0.13956953944E+02  0.43989153794E+01  0.72461574889E+02  0.70000005985E+02 0.  0.
         12    1    1    2    0    0  0.11684689877E+02  0.13956953944E+02 -0.43989153794E+01  0.18726425111E+02  0.00000000000E+00 0. -1.
         11    1    3    3    0    0 -0.23331989430E+02 -0.16037034640E+01  0.13281037778E+02  0.26894972770E+02  0.51100000000E-03 0.  1.
        -11    1    3    3    0    0  0.40108642806E+01  0.97599347148E+01 -0.17665896877E+02  0.20577348484E+02  0.51100000000E-03 0. -1.
         12    1    3    3    0    0  0.76364352729E+01 -0.22113185195E+02  0.87837744780E+01  0.24989253635E+02  0.00000000000E+00 0. -1.
</event>
<event>
 7    1  0.2886818E-013  0.7246146E+02  0.7816164E-02  0.1226708E+00
        -11   -1    0    0    0    0  0.00000000000E+00  0.00000000000E+00  0.45593999997E+02  0.45594000000E+02  0.51100000000E-03 0. -1.
         11   -1    0    0    0    0 -0.00000000000E+00 -0.00000000000E+00 -0.45593999997E+02  0.45594000000E+02  0.51100000000E-03 0.  1.
    9900012    2    1    2    0    0 -0.82481008543E+01 -0.58014788071E+01 -0.15779571947E+02  0.72461462282E+02  0.69999859294E+02 0.  0.
         12    1    1    2    0    0  0.82481008543E+01  0.58014788071E+01  0.15779571947E+02  0.18726537718E+02  0.00000000000E+00 0. -1.
         11    1    3    3    0    0  0.83877771937E+01 -0.20937916325E+02 -0.54490905638E+01  0.23204390415E+02  0.51100000000E-03 0. -1.
        -11    1    3    3    0    0 -0.11487514744E+02  0.11734171407E+02 -0.26933300434E+02  0.31544515310E+02  0.51100000000E-03 0.  1.
         12    1    3    3    0    0 -0.51483633043E+01  0.34022661110E+01  0.16602819050E+02  0.17712556558E+02  0.00000000000E+00 0. -1.
</event>
<event>
 7    1  0.2886818E-013  0.7246155E+02  0.7816164E-02  0.1226708E+00
        -11   -1    0    0    0    0  0.00000000000E+00  0.00000000000E+00  0.45593999997E+02  0.45594000000E+02  0.51100000000E-03 0. -1.
         11   -1    0    0    0    0 -0.00000000000E+00 -0.00000000000E+00 -0.45593999997E+02  0.45594000000E+02  0.51100000000E-03 0.  1.
    9900012    2    1    2    0    0 -0.18391030030E+02  0.23228412426E+01  0.26559756295E+01  0.72461553900E+02  0.69999978643E+02 0.  0.
         12    1    1    2    0    0  0.18391030030E+02 -0.23228412426E+01 -0.26559756295E+01  0.18726446100E+02  0.00000000000E+00 0. -1.
         11    1    3    3    0    0 -0.10598052569E+02  0.11881538766E+02  0.29569739440E+01  0.16193621487E+02  0.51100000000E-03 0. -1.
        -11    1    3    3    0    0 -0.28130748291E+02  0.69569035967E+01 -0.56615507759E+01  0.29526101410E+02  0.51100000000E-03 0.  1.
        -12    1    3    3    0    0  0.20337770829E+02 -0.16515601120E+02  0.53605524615E+01  0.26741831002E+02  0.00000000000E+00 0.  1.
</event>
<event>
 7    1  0.2886818E-013  0.7246157E+02  0.7816164E-02  0.1226708E+00
        -11   -1    0    0    0    0  0.00000000000E+00  0.00000000000E+00  0.45593999997E+02  0.45594000000E+02  0.51100000000E-03 0.  1.
         11   -1    0    0    0    0 -0.00000000000E+00 -0.00000000000E+00 -0.45593999997E+02  0.45594000000E+02  0.51100000000E-03 0. -1.
    9900012    2    1    2    0    0  0.13259270512E+02  0.12131554052E+02  0.52627337526E+01  0.72461568819E+02  0.69999998079E+02 0.  0.
         12    1    1    2    0    0 -0.13259270512E+02 -0.12131554052E+02 -0.52627337526E+01  0.18726431181E+02  0.00000000000E+00 0. -1.
         11    1    3    3    0    0 -0.40734069082E+00  0.86792363192E+01 -0.24816561468E+01  0.90362429702E+01  0.51100000000E-03 0. -1.
        -11    1    3    3    0    0  0.10593936297E+02  0.30621971827E+02  0.14125440612E+02  0.35347768212E+02  0.51100000000E-03 0.  1.
         12    1    3    3    0    0  0.30726749058E+01 -0.27169654094E+02 -0.63810507124E+01  0.28077557637E+02  0.00000000000E+00 0. -1.
</event>
<event>
 7    1  0.2886818E-013  0.7246160E+02  0.7816164E-02  0.1226708E+00
        -11   -1    0    0    0    0  0.00000000000E+00  0.00000000000E+00  0.45593999997E+02  0.45594000000E+02  0.51100000000E-03 0.  1.
         11   -1    0    0    0    0 -0.00000000000E+00 -0.00000000000E+00 -0.45593999997E+02  0.45594000000E+02  0.51100000000E-03 0. -1.
    9900012    2    1    2    0    0  0.15315835086E+02 -0.92169346537E+01 -0.55813359384E+01  0.72461601530E+02  0.70000040690E+02 0.  0.
         12    1    1    2    0    0 -0.15315835086E+02  0.92169346537E+01  0.55813359384E+01  0.18726398470E+02  0.00000000000E+00 0. -1.
         11    1    3    3    0    0  0.94684239846E+01 -0.55102135460E+01 -0.31986139607E+02  0.33810155771E+02  0.51100000000E-03 0. -1.
        -11    1    3    3    0    0  0.87993670359E+01 -0.53270163924E+01 -0.16305027094E+01  0.10414629289E+02  0.51100000000E-03 0.  1.
        -12    1    3    3    0    0 -0.29519559345E+01  0.16202952848E+01  0.28035306378E+02  0.28236816470E+02  0.00000000000E+00 0.  1.
</event>
<event>
 7    1  0.2886818E-013  0.7246155E+02  0.7816164E-02  0.1226708E+00
        -11   -1    0    0    0    0  0.00000000000E+00  0.00000000000E+00  0.45593999997E+02  0.45594000000E+02  0.51100000000E-03 0.  1.
         11   -1    0    0    0    0 -0.00000000000E+00 -0.00000000000E+00 -0.45593999997E+02  0.45594000000E+02  0.51100000000E-03 0. -1.
    9900012    2    1    2    0    0 -0.27232302349E+01 -0.26365429390E+01  0.18338832275E+02  0.72461545162E+02  0.69999967260E+02 0.  0.
         12    1    1    2    0    0  0.27232302349E+01  0.26365429390E+01 -0.18338832275E+02  0.18726454838E+02  0.00000000000E+00 0. -1.
         11    1    3    3    0    0  0.19936913773E+02 -0.86501455562E+00  0.10777363807E+01  0.19984751611E+02  0.51100000000E-03 0. -1.
        -11    1    3    3    0    0  0.10412783252E+02  0.69005977995E+01  0.12987123160E+02  0.18019702364E+02  0.51100000000E-03 0.  1.
         12    1    3    3    0    0 -0.33072927261E+02 -0.86721261829E+01  0.42739727344E+01  0.34457091187E+02  0.00000000000E+00 0. -1.
</event>
<event>
 7    1  0.2886818E-013  0.7246159E+02  0.7816164E-02  0.1226708E+00
        -11   -1    0    0    0    0  0.00000000000E+00  0.00000000000E+00  0.45593999997E+02  0.45594000000E+02  0.51100000000E-03 0.  1.
         11   -1    0    0    0    0 -0.00000000000E+00 -0.00000000000E+00 -0.45593999997E+02  0.45594000000E+02  0.51100000000E-03 0. -1.
    9900012    2    1    2    0    0  0.93627004434E+01 -0.15376587389E+02 -0.51554603077E+01  0.72461591634E+02  0.70000027799E+02 0.  0.
         12    1    1    2    0    0 -0.93627004434E+01  0.15376587389E+02  0.51554603077E+01  0.18726408366E+02  0.00000000000E+00 0. -1.
         11    1    3    3    0    0 -0.81364070451E+01 -0.63323998228E+01 -0.13438754427E+01  0.10397423170E+02  0.51100000000E-03 0. -1.
        -11    1    3    3    0    0 -0.88758879076E+01 -0.27832700843E+02 -0.51008044932E+01  0.29655671112E+02  0.51100000000E-03 0.  1.
         12    1    3    3    0    0  0.26374995396E+02  0.18788513277E+02  0.12892196282E+01  0.32408497351E+02  0.00000000000E+00 0. -1.
</event>
<event>
 7    1  0.2886818E-013  0.7246151E+02  0.7816164E-02  0.1226708E+00
        -11   -1    0    0    0    0  0.00000000000E+00  0.00000000000E+00  0.45593999997E+02  0.45594000000E+02  0.51100000000E-03 0. -1.
         11   -1    0    0    0    0 -0.00000000000E+00 -0.00000000000E+00 -0.45593999997E+02  0.45594000000E+02  0.51100000000E-03 0.  1.
    9900012    2    1    2    0    0 -0.13703755381E+02  0.10599462325E+02  0.71091310244E+01  0.72461514557E+02  0.69999927392E+02 0.  0.
         12    1    1    2    0    0  0.13703755381E+02 -0.10599462325E+02 -0.71091310244E+01  0.18726485443E+02  0.00000000000E+00 0. -1.
         11    1    3    3    0    0  0.65650879108E+01  0.22396804615E+02 -0.13458586796E+01  0.23377950554E+02  0.51100000000E-03 0. -1.
        -11    1    3    3    0    0 -0.26063627510E+02  0.82028009699E+01  0.70207699480E+01  0.28211519521E+02  0.51100000000E-03 0.  1.
         12    1    3    3    0    0  0.57947842183E+01 -0.20000143260E+02  0.14342197559E+01  0.20872044482E+02  0.00000000000E+00 0. -1.
</event>
<event>
 7    1  0.2886818E-013  0.7246134E+02  0.7816164E-02  0.1226709E+00
        -11   -1    0    0    0    0  0.00000000000E+00  0.00000000000E+00  0.45593999997E+02  0.45594000000E+02  0.51100000000E-03 0.  1.
         11   -1    0    0    0    0 -0.00000000000E+00 -0.00000000000E+00 -0.45593999997E+02  0.45594000000E+02  0.51100000000E-03 0. -1.
    9900012    2    1    2    0    0 -0.11651155238E+02  0.81151556012E+01 -0.12209932590E+02  0.72461344595E+02  0.69999705984E+02 0.  0.
         12    1    1    2    0    0  0.11651155238E+02 -0.81151556012E+01  0.12209932590E+02  0.18726655405E+02  0.00000000000E+00 0. -1.
         11    1    3    3    0    0  0.17318952112E+02  0.27183206295E+01  0.13819004726E+02  0.22322640103E+02  0.51100000000E-03 0. -1.
        -11    1    3    3    0    0 -0.49814251366E+01 -0.11513232188E+02 -0.31744071540E+01  0.12940091686E+02  0.51100000000E-03 0.  1.
        -12    1    3    3    0    0 -0.23988682214E+02  0.16910067160E+02 -0.22854530162E+02  0.37198612805E+02  0.00000000000E+00 0.  1.
</event>
<event>
 7    1  0.2886818E-013  0.7246152E+02  0.7816164E-02  0.1226708E+00
        -11   -1    0    0    0    0  0.00000000000E+00  0.00000000000E+00  0.45593999997E+02  0.45594000000E+02  0.51100000000E-03 0. -1.
         11   -1    0    0    0    0 -0.00000000000E+00 -0.00000000000E+00 -0.45593999997E+02  0.45594000000E+02  0.51100000000E-03 0.  1.
    9900012    2    1    2    0    0  0.32469832648E+01 -0.12656411835E+02 -0.13414671823E+02  0.72461519258E+02  0.69999933516E+02 0.  0.
         12    1    1    2    0    0 -0.32469832648E+01  0.12656411835E+02  0.13414671823E+02  0.18726480742E+02  0.00000000000E+00 0. -1.
         11    1    3    3    0    0 -0.46430039634E+01  0.31903422229E-01 -0.16599764727E+00  0.46460799727E+01  0.51100000000E-03 0. -1.
        -11    1    3    3    0    0 -0.11080539652E+02  0.14284179446E+02  0.15693914170E+02  0.23939822131E+02  0.51100000000E-03 0.  1.
        -12    1    3    3    0    0  0.18970526880E+02 -0.26972494702E+02 -0.28942588346E+02  0.43875617155E+02  0.00000000000E+00 0.  1.
</event>
<event>
 7    1  0.2886818E-013  0.7246158E+02  0.7816164E-02  0.1226708E+00
        -11   -1    0    0    0    0  0.00000000000E+00  0.00000000000E+00  0.45593999997E+02  0.45594000000E+02  0.51100000000E-03 0. -1.
         11   -1    0    0    0    0 -0.00000000000E+00 -0.00000000000E+00 -0.45593999997E+02  0.45594000000E+02  0.51100000000E-03 0.  1.
    9900012    2    1    2    0    0  0.73371878047E+01 -0.17157843506E+02 -0.15662229525E+01  0.72461575541E+02  0.70000006835E+02 0.  0.
         12    1    1    2    0    0 -0.73371878047E+01  0.17157843506E+02  0.15662229525E+01  0.18726424459E+02  0.00000000000E+00 0. -1.
         11    1    3    3    0    0  0.14209030480E+02  0.21007377697E+02 -0.14960315986E+00  0.25361956672E+02  0.51100000000E-03 0. -1.
        -11    1    3    3    0    0 -0.13918894651E+02 -0.10899220204E+02 -0.57848630043E+01  0.18600894323E+02  0.51100000000E-03 0.  1.
        -12    1    3    3    0    0  0.70470519761E+01 -0.27266000999E+02  0.43682432117E+01  0.28498724547E+02  0.00000000000E+00 0.  1.
</event>
<event>
 7    1  0.2886818E-013  0.7246151E+02  0.7816164E-02  0.1226708E+00
        -11   -1    0    0    0    0  0.00000000000E+00  0.00000000000E+00  0.45593999997E+02  0.45594000000E+02  0.51100000000E-03 0.  1.
         11   -1    0    0    0    0 -0.00000000000E+00 -0.00000000000E+00 -0.45593999997E+02  0.45594000000E+02  0.51100000000E-03 0. -1.
    9900012    2    1    2    0    0  0.11631688485E+02 -0.13598020066E+02  0.55207889123E+01  0.72461509754E+02  0.69999921135E+02 0.  0.
         12    1    1    2    0    0 -0.11631688485E+02  0.13598020066E+02 -0.55207889123E+01  0.18726490246E+02  0.00000000000E+00 0. -1.
         11    1    3    3    0    0  0.17902099261E+02 -0.28861441397E+01  0.14601743018E+02  0.23281449383E+02  0.51100000000E-03 0. -1.
        -11    1    3    3    0    0  0.58697409009E+01 -0.27169980035E+02 -0.66817528142E+01  0.28588590281E+02  0.51100000000E-03 0.  1.
         12    1    3    3    0    0 -0.12140151677E+02  0.16458104109E+02 -0.23992012916E+01  0.20591470089E+02  0.00000000000E+00 0. -1.
</event>
<event>
 7    1  0.2886818E-013  0.7246158E+02  0.7816164E-02  0.1226708E+00
        -11   -1    0    0    0    0  0.00000000000E+00  0.00000000000E+00  0.45593999997E+02  0.45594000000E+02  0.51100000000E-03 0. -1.
         11   -1    0    0    0    0 -0.00000000000E+00 -0.00000000000E+00 -0.45593999997E+02  0.45594000000E+02  0.51100000000E-03 0.  1.
    9900012    2    1    2    0    0  0.37650291973E+01  0.17175717547E+02 -0.64419003605E+01  0.72461580204E+02  0.70000012909E+02 0.  0.
         12    1    1    2    0    0 -0.37650291973E+01 -0.17175717547E+02  0.64419003605E+01  0.18726419796E+02  0.00000000000E+00 0. -1.
         11    1    3    3    0    0  0.32458117464E+02 -0.14404687079E+01 -0.37378031260E+01  0.32704365334E+02  0.51100000000E-03 0. -1.
        -11    1    3    3    0    0 -0.11950371059E+00  0.37322613701E+01 -0.63163861856E+01  0.73376284165E+01  0.51100000000E-03 0.  1.
        -12    1    3    3    0    0 -0.28573584556E+02  0.14883924885E+02  0.36122889512E+01  0.32419586454E+02  0.00000000000E+00 0.  1.
</event>
<event>
 7    1  0.2886818E-013  0.7246153E+02  0.7816164E-02  0.1226708E+00
        -11   -1    0    0    0    0  0.00000000000E+00  0.00000000000E+00  0.45593999997E+02  0.45594000000E+02  0.51100000000E-03 0.  1.
         11   -1    0    0    0    0 -0.00000000000E+00 -0.00000000000E+00 -0.45593999997E+02  0.45594000000E+02  0.51100000000E-03 0. -1.
    9900012    2    1    2    0    0 -0.13288503665E+02  0.65994089809E+01  0.11425596163E+02  0.72461527395E+02  0.69999944115E+02 0.  0.
         12    1    1    2    0    0  0.13288503665E+02 -0.65994089809E+01 -0.11425596163E+02  0.18726472605E+02  0.00000000000E+00 0. -1.
         11    1    3    3    0    0  0.82448269077E+01 -0.20274799678E+02  0.15169584056E+02  0.26630076106E+02  0.51100000000E-03 0. -1.
        -11    1    3    3    0    0  0.61106824685E+01  0.73989863122E+01 -0.69733909900E+01  0.11862277220E+02  0.51100000000E-03 0.  1.
        -12    1    3    3    0    0 -0.27644013042E+02  0.19475222347E+02  0.32294030968E+01  0.33969174068E+02  0.00000000000E+00 0.  1.
</event>
<event>
 7    1  0.2886818E-013  0.7246155E+02  0.7816164E-02  0.1226708E+00
        -11   -1    0    0    0    0  0.00000000000E+00  0.00000000000E+00  0.45593999997E+02  0.45594000000E+02  0.51100000000E-03 0. -1.
         11   -1    0    0    0    0 -0.00000000000E+00 -0.00000000000E+00 -0.45593999997E+02  0.45594000000E+02  0.51100000000E-03 0.  1.
    9900012    2    1    2    0    0  0.13752863304E+02 -0.11144650061E+02 -0.61102812534E+01  0.72461547826E+02  0.69999970731E+02 0.  0.
         12    1    1    2    0    0 -0.13752863304E+02  0.11144650061E+02  0.61102812534E+01  0.18726452174E+02  0.00000000000E+00 0. -1.
         11    1    3    3    0    0  0.11098860785E+02  0.35240558910E+01 -0.97854130735E+01  0.15210456598E+02  0.51100000000E-03 0. -1.
        -11    1    3    3    0    0  0.16558144252E+02 -0.25593837710E+02  0.17189148541E+02  0.34995478246E+02  0.51100000000E-03 0.  1.
         12    1    3    3    0    0 -0.13904141733E+02  0.10925131758E+02 -0.13514016721E+02  0.22255612982E+02  0.00000000000E+00 0. -1.
</event>
<event>
 7    1  0.2886818E-013  0.7246139E+02  0.7816164E-02  0.1226708E+00
        -11   -1    0    0    0    0  0.00000000000E+00  0.00000000000E+00  0.45593999997E+02  0.45594000000E+02  0.51100000000E-03 0.  1.
         11   -1    0    0    0    0 -0.00000000000E+00 -0.00000000000E+00 -0.45593999997E+02  0.45594000000E+02  0.51100000000E-03 0. -1.
    9900012    2    1    2    0    0  0.11954986577E+02  0.12807810676E+02  0.66124279976E+01  0.72461389992E+02  0.69999765123E+02 0.  0.
         12    1    1    2    0    0 -0.11954986577E+02 -0.12807810676E+02 -0.66124279976E+01  0.18726610008E+02  0.00000000000E+00 0. -1.
         11    1    3    3    0    0 -0.12288611163E+02  0.11839434650E+02  0.97923664894E+01  0.19674161198E+02  0.51100000000E-03 0. -1.
        -11    1    3    3    0    0 -0.85085371889E+01  0.91256554104E+01  0.10559269965E+02  0.16345365527E+02  0.51100000000E-03 0.  1.
        -12    1    3    3    0    0  0.32752134928E+02 -0.81572793846E+01 -0.13739208457E+02  0.36441863267E+02  0.00000000000E+00 0.  1.
</event>
<event>
 7    1  0.2886818E-013  0.7246158E+02  0.7816164E-02  0.1226708E+00
        -11   -1    0    0    0    0  0.00000000000E+00  0.00000000000E+00  0.45593999997E+02  0.45594000000E+02  0.51100000000E-03 0.  1.
         11   -1    0    0    0    0 -0.00000000000E+00 -0.00000000000E+00 -0.45593999997E+02  0.45594000000E+02  0.51100000000E-03 0. -1.
    9900012    2    1    2    0    0 -0.85913538339E+00 -0.18665358661E+02 -0.12430055570E+01  0.72461580418E+02  0.70000013188E+02 0.  0.
         12    1    1    2    0    0  0.85913538339E+00  0.18665358661E+02  0.12430055570E+01  0.18726419582E+02  0.00000000000E+00 0. -1.
         11    1    3    3    0    0  0.44950455216E+01  0.20024018081E+02 -0.72389556209E+01  0.21761645459E+02  0.51100000000E-03 0. -1.
        -11    1    3    3    0    0  0.61539820091E+01  0.31038432622E+01 -0.28634103559E+00  0.68983569794E+01  0.51100000000E-03 0.  1.
        -12    1    3    3    0    0 -0.11508162914E+02 -0.41793220004E+02  0.62822910995E+01  0.43801577979E+02  0.00000000000E+00 0.  1.
</event>
<event>
 7    1  0.2886818E-013  0.7246149E+02  0.7816164E-02  0.1226708E+00
        -11   -1    0    0    0    0  0.00000000000E+00  0.00000000000E+00  0.45593999997E+02  0.45594000000E+02  0.51100000000E-03 0.  1.
         11   -1    0    0    0    0 -0.00000000000E+00 -0.00000000000E+00 -0.45593999997E+02  0.45594000000E+02  0.51100000000E-03 0. -1.
    9900012    2    1    2    0    0 -0.14457706389E+02 -0.31264814821E+01  0.11483996409E+02  0.72461485802E+02  0.69999889933E+02 0.  0.
         12    1    1    2    0    0  0.14457706389E+02  0.31264814821E+01 -0.11483996409E+02  0.18726514198E+02  0.00000000000E+00 0. -1.
         11    1    3    3    0    0 -0.21564988160E+01 -0.42673990048E+01 -0.17310192192E+02  0.17958394566E+02  0.51100000000E-03 0. -1.
        -11    1    3    3    0    0 -0.53210466694E+01  0.22817613256E+02  0.13066173478E+02  0.26826887669E+02  0.51100000000E-03 0.  1.
        -12    1    3    3    0    0 -0.69801609034E+01 -0.21676695734E+02  0.15728015123E+02  0.27676203567E+02  0.00000000000E+00 0.  1.
</event>
<event>
 7    1  0.2886818E-013  0.7246158E+02  0.7816164E-02  0.1226708E+00
        -11   -1    0    0    0    0  0.00000000000E+00  0.00000000000E+00  0.45593999997E+02  0.45594000000E+02  0.51100000000E-03 0.  1.
         11   -1    0    0    0    0 -0.00000000000E+00 -0.00000000000E+00 -0.45593999997E+02  0.45594000000E+02  0.51100000000E-03 0. -1.
    9900012    2    1    2    0    0  0.10319492342E+02 -0.51595816432E+01  0.14750111281E+02  0.72461575148E+02  0.70000006323E+02 0.  0.
         12    1    1    2    0    0 -0.10319492342E+02  0.51595816432E+01 -0.14750111281E+02  0.18726424852E+02  0.00000000000E+00 0. -1.
         11    1    3    3    0    0  0.54519920751E+01 -0.11797980541E+02 -0.12323824369E+02  0.17910700985E+02  0.51100000000E-03 0. -1.
        -11    1    3    3    0    0 -0.43468170095E+01 -0.18833062052E+02  0.60202489213E+01  0.20244071767E+02  0.51100000000E-03 0.  1.
        -12    1    3    3    0    0  0.92143172762E+01  0.25471460950E+02  0.21053686729E+02  0.34306802396E+02  0.00000000000E+00 0.  1.
</event>
<event>
 7    1  0.2886818E-013  0.7246158E+02  0.7816164E-02  0.1226708E+00
        -11   -1    0    0    0    0  0.00000000000E+00  0.00000000000E+00  0.45593999997E+02  0.45594000000E+02  0.51100000000E-03 0.  1.
         11   -1    0    0    0    0 -0.00000000000E+00 -0.00000000000E+00 -0.45593999997E+02  0.45594000000E+02  0.51100000000E-03 0. -1.
    9900012    2    1    2    0    0  0.17841794450E+02  0.82131766338E+00  0.56280152277E+01  0.72461581568E+02  0.70000014686E+02 0.  0.
         12    1    1    2    0    0 -0.17841794450E+02 -0.82131766338E+00 -0.56280152277E+01  0.18726418432E+02  0.00000000000E+00 0. -1.
         11    1    3    3    0    0  0.48118553564E+01  0.77584262346E+01  0.77400367916E+01  0.11968930587E+02  0.51100000000E-03 0. -1.
        -11    1    3    3    0    0 -0.47071962906E+01 -0.30535189364E+01  0.26235388750E+02  0.26828665601E+02  0.51100000000E-03 0.  1.
         12    1    3    3    0    0  0.17737135384E+02 -0.38835896349E+01 -0.28347410314E+02  0.33663985379E+02  0.00000000000E+00 0. -1.
</event>
<event>
 7    1  0.2886818E-013  0.7246158E+02  0.7816164E-02  0.1226708E+00
        -11   -1    0    0    0    0  0.00000000000E+00  0.00000000000E+00  0.45593999997E+02  0.45594000000E+02  0.51100000000E-03 0.  1.
         11   -1    0    0    0    0 -0.00000000000E+00 -0.00000000000E+00 -0.45593999997E+02  0.45594000000E+02  0.51100000000E-03 0. -1.
    9900012    2    1    2    0    0 -0.11129042836E+02 -0.14926827024E+02  0.20032628233E+01  0.72461579590E+02  0.70000012109E+02 0.  0.
         12    1    1    2    0    0  0.11129042836E+02  0.14926827024E+02 -0.20032628233E+01  0.18726420410E+02  0.00000000000E+00 0. -1.
         11    1    3    3    0    0 -0.15945174608E+02  0.33656434877E+01  0.11459308739E+01  0.16336747142E+02  0.51100000000E-03 0. -1.
        -11    1    3    3    0    0 -0.11075946456E+02 -0.13187084607E+02  0.22788618846E+02  0.28563909738E+02  0.51100000000E-03 0.  1.
         12    1    3    3    0    0  0.15892078229E+02 -0.51053859053E+01 -0.21931286897E+02  0.27560922710E+02  0.00000000000E+00 0. -1.
</event>
<event>
 7    1  0.2886818E-013  0.7246153E+02  0.7816164E-02  0.1226708E+00
        -11   -1    0    0    0    0  0.00000000000E+00  0.00000000000E+00  0.45593999997E+02  0.45594000000E+02  0.51100000000E-03 0.  1.
         11   -1    0    0    0    0 -0.00000000000E+00 -0.00000000000E+00 -0.45593999997E+02  0.45594000000E+02  0.51100000000E-03 0. -1.
    9900012    2    1    2    0    0  0.16710358287E+01 -0.18302972337E+02 -0.35901951459E+01  0.72461530544E+02  0.69999948218E+02 0.  0.
         12    1    1    2    0    0 -0.16710358287E+01  0.18302972337E+02  0.35901951459E+01  0.18726469456E+02  0.00000000000E+00 0. -1.
         11    1    3    3    0    0 -0.14598178112E+02  0.17770922452E+01 -0.13493881972E+01  0.14767725275E+02  0.51100000000E-03 0. -1.
        -11    1    3    3    0    0 -0.73136529487E+01 -0.23641381004E+02  0.14381834757E+02  0.28622396588E+02  0.51100000000E-03 0.  1.
        -12    1    3    3    0    0  0.23582866890E+02  0.35613164218E+01 -0.16622641705E+02  0.29071408680E+02  0.00000000000E+00 0.  1.
</event>
<event>
 7    1  0.2886818E-013  0.7246163E+02  0.7816164E-02  0.1226708E+00
        -11   -1    0    0    0    0  0.00000000000E+00  0.00000000000E+00  0.45593999997E+02  0.45594000000E+02  0.51100000000E-03 0.  1.
         11   -1    0    0    0    0 -0.00000000000E+00 -0.00000000000E+00 -0.45593999997E+02  0.45594000000E+02  0.51100000000E-03 0. -1.
    9900012    2    1    2    0    0  0.69289118838E+01  0.64783432032E+01  0.16146149217E+02  0.72461631289E+02  0.70000079457E+02 0.  0.
         12    1    1    2    0    0 -0.69289118838E+01 -0.64783432032E+01 -0.16146149217E+02  0.18726368711E+02  0.00000000000E+00 0. -1.
         11    1    3    3    0    0 -0.20142440389E+02 -0.69446532521E+01  0.13461094647E+02  0.25202126556E+02  0.51100000000E-03 0. -1.
        -11    1    3    3    0    0  0.15207821023E+02 -0.73788930933E+01  0.12861204636E+02  0.21239973364E+02  0.51100000000E-03 0.  1.
        -12    1    3    3    0    0  0.11863531249E+02  0.20801889549E+02 -0.10176150066E+02  0.26019531369E+02  0.00000000000E+00 0.  1.
</event>
<event>
 7    1  0.2886818E-013  0.7246155E+02  0.7816164E-02  0.1226708E+00
        -11   -1    0    0    0    0  0.00000000000E+00  0.00000000000E+00  0.45593999997E+02  0.45594000000E+02  0.51100000000E-03 0.  1.
         11   -1    0    0    0    0 -0.00000000000E+00 -0.00000000000E+00 -0.45593999997E+02  0.45594000000E+02  0.51100000000E-03 0. -1.
    9900012    2    1    2    0    0 -0.14309542557E+02  0.18358138896E+01 -0.11939295997E+02  0.72461547861E+02  0.69999970776E+02 0.  0.
         12    1    1    2    0    0  0.14309542557E+02 -0.18358138896E+01  0.11939295997E+02  0.18726452139E+02  0.00000000000E+00 0. -1.
         11    1    3    3    0    0 -0.64694367673E+01  0.66820327906E+01 -0.25343880423E+02  0.26996582181E+02  0.51100000000E-03 0. -1.
        -11    1    3    3    0    0 -0.20839488855E+02  0.37735336198E+01  0.19432860665E+02  0.28742997853E+02  0.51100000000E-03 0.  1.
         12    1    3    3    0    0  0.12999383065E+02 -0.86197525208E+01 -0.60282762380E+01  0.16721967827E+02  0.00000000000E+00 0. -1.
</event>
<event>
 7    1  0.2886818E-013  0.7246159E+02  0.7816164E-02  0.1226708E+00
        -11   -1    0    0    0    0  0.00000000000E+00  0.00000000000E+00  0.45593999997E+02  0.45594000000E+02  0.51100000000E-03 0. -1.
         11   -1    0    0    0    0 -0.00000000000E+00 -0.00000000000E+00 -0.45593999997E+02  0.45594000000E+02  0.51100000000E-03 0.  1.
    9900012    2    1    2    0    0  0.12544706646E+02  0.46371675245E+01 -0.13107453750E+02  0.72461592675E+02  0.70000029155E+02 0.  0.
         12    1    1    2    0    0 -0.12544706646E+02 -0.46371675245E+01  0.13107453750E+02  0.18726407325E+02  0.00000000000E+00 0. -1.
         11    1    3    3    0    0  0.17134397912E+01  0.10819396439E+02  0.60822314114E+01  0.12529515331E+02  0.51100000000E-03 0. -1.
        -11    1    3    3    0    0 -0.41686730437E+01  0.69260987025E+01 -0.34102785282E+02  0.35047805101E+02  0.51100000000E-03 0.  1.
         12    1    3    3    0    0  0.14999939898E+02 -0.13108327617E+02  0.14913100120E+02  0.24884272243E+02  0.00000000000E+00 0. -1.
</event>
<event>
 7    1  0.2886818E-013  0.7246231E+02  0.7816164E-02  0.1226706E+00
        -11   -1    0    0    0    0  0.00000000000E+00  0.00000000000E+00  0.45593999997E+02  0.45594000000E+02  0.51100000000E-03 0. -1.
         11   -1    0    0    0    0 -0.00000000000E+00 -0.00000000000E+00 -0.45593999997E+02  0.45594000000E+02  0.51100000000E-03 0.  1.
    9900012    2    1    2    0    0  0.51907206471E+01 -0.17626976483E+02 -0.36052035048E+01  0.72462312480E+02  0.70000966829E+02 0.  0.
         12    1    1    2    0    0 -0.51907206471E+01  0.17626976483E+02  0.36052035048E+01  0.18725687520E+02  0.00000000000E+00 0. -1.
         11    1    3    3    0    0  0.15614972883E+02  0.14825171262E+02 -0.10422046966E+02  0.23921374214E+02  0.51100000000E-03 0. -1.
        -11    1    3    3    0    0 -0.33707319340E+01 -0.22779911647E+01 -0.11737896261E+02  0.12422933889E+02  0.51100000000E-03 0.  1.
         12    1    3    3    0    0 -0.70535203020E+01 -0.30174156580E+02  0.18554739723E+02  0.36118004377E+02  0.00000000000E+00 0. -1.
</event>
<event>
 7    1  0.2886818E-013  0.7246181E+02  0.7816164E-02  0.1226707E+00
        -11   -1    0    0    0    0  0.00000000000E+00  0.00000000000E+00  0.45593999997E+02  0.45594000000E+02  0.51100000000E-03 0.  1.
         11   -1    0    0    0    0 -0.00000000000E+00 -0.00000000000E+00 -0.45593999997E+02  0.45594000000E+02  0.51100000000E-03 0. -1.
    9900012    2    1    2    0    0  0.61211319033E+01 -0.15212981192E+02  0.90425286296E+01  0.72461805071E+02  0.70000305839E+02 0.  0.
         12    1    1    2    0    0 -0.61211319033E+01  0.15212981192E+02 -0.90425286296E+01  0.18726194929E+02  0.00000000000E+00 0. -1.
         11    1    3    3    0    0 -0.29105234081E+01  0.16589329599E+01  0.43220869994E+01  0.54684222008E+01  0.51100000000E-03 0. -1.
        -11    1    3    3    0    0 -0.55474141805E+01 -0.36674243602E+02 -0.98936510383E+01  0.38388257045E+02  0.51100000000E-03 0.  1.
         12    1    3    3    0    0  0.14579069492E+02  0.19802329450E+02  0.14614092669E+02  0.28605125824E+02  0.00000000000E+00 0. -1.
</event>
<event>
 7    1  0.2886818E-013  0.7246157E+02  0.7816164E-02  0.1226708E+00
        -11   -1    0    0    0    0  0.00000000000E+00  0.00000000000E+00  0.45593999997E+02  0.45594000000E+02  0.51100000000E-03 0.  1.
         11   -1    0    0    0    0 -0.00000000000E+00 -0.00000000000E+00 -0.45593999997E+02  0.45594000000E+02  0.51100000000E-03 0. -1.
    9900012    2    1    2    0    0  0.63581827355E+01  0.17203697307E+02 -0.37795996677E+01  0.72461573155E+02  0.70000003727E+02 0.  0.
         12    1    1    2    0    0 -0.63581827355E+01 -0.17203697307E+02  0.37795996677E+01  0.18726426845E+02  0.00000000000E+00 0. -1.
         11    1    3    3    0    0  0.15498395743E+01 -0.38415011988E+01  0.13237447358E+01  0.43487279236E+01  0.51100000000E-03 0. -1.
        -11    1    3    3    0    0  0.61960590704E+01  0.29929248526E+02  0.23228092758E+02  0.38388740000E+02  0.51100000000E-03 0.  1.
        -12    1    3    3    0    0 -0.13877159092E+01 -0.88840500198E+01 -0.28331437162E+02  0.29724105232E+02  0.00000000000E+00 0.  1.
</event>
<event>
 7    1  0.2886818E-013  0.7246156E+02  0.7816164E-02  0.1226708E+00
        -11   -1    0    0    0    0  0.00000000000E+00  0.00000000000E+00  0.45593999997E+02  0.45594000000E+02  0.51100000000E-03 0. -1.
         11   -1    0    0    0    0 -0.00000000000E+00 -0.00000000000E+00 -0.45593999997E+02  0.45594000000E+02  0.51100000000E-03 0.  1.
    9900012    2    1    2    0    0  0.88602934943E+01  0.10408537932E+02 -0.12799884588E+02  0.72461561252E+02  0.69999988221E+02 0.  0.
         12    1    1    2    0    0 -0.88602934943E+01 -0.10408537932E+02  0.12799884588E+02  0.18726438748E+02  0.00000000000E+00 0. -1.
         11    1    3    3    0    0  0.59943231124E+01  0.90641844465E+01  0.15586285617E+02  0.19000622328E+02  0.51100000000E-03 0. -1.
        -11    1    3    3    0    0  0.18335100891E+02 -0.13942950640E+02 -0.18626073328E+02  0.29622835872E+02  0.51100000000E-03 0.  1.
         12    1    3    3    0    0 -0.15469130509E+02  0.15287304125E+02 -0.97600968773E+01  0.23838103053E+02  0.00000000000E+00 0. -1.
</event>
<event>
 7    1  0.2886818E-013  0.7246166E+02  0.7816164E-02  0.1226708E+00
        -11   -1    0    0    0    0  0.00000000000E+00  0.00000000000E+00  0.45593999997E+02  0.45594000000E+02  0.51100000000E-03 0. -1.
         11   -1    0    0    0    0 -0.00000000000E+00 -0.00000000000E+00 -0.45593999997E+02  0.45594000000E+02  0.51100000000E-03 0.  1.
    9900012    2    1    2    0    0  0.40279781646E+01 -0.17506538725E+02 -0.52888739561E+01  0.72461663093E+02  0.70000120888E+02 0.  0.
         12    1    1    2    0    0 -0.40279781646E+01  0.17506538725E+02  0.52888739561E+01  0.18726336907E+02  0.00000000000E+00 0. -1.
         11    1    3    3    0    0  0.22331791579E+02 -0.92008459166E+01 -0.70606195046E+01  0.25163799967E+02  0.51100000000E-03 0. -1.
        -11    1    3    3    0    0  0.12026321382E+02 -0.10906741736E+02  0.41689925132E+01  0.16762157382E+02  0.51100000000E-03 0.  1.
        -12    1    3    3    0    0 -0.30330134797E+02  0.26010489275E+01 -0.23972469647E+01  0.30535705744E+02  0.00000000000E+00 0.  1.
</event>
<event>
 7    1  0.2886818E-013  0.7246152E+02  0.7816164E-02  0.1226708E+00
        -11   -1    0    0    0    0  0.00000000000E+00  0.00000000000E+00  0.45593999997E+02  0.45594000000E+02  0.51100000000E-03 0.  1.
         11   -1    0    0    0    0 -0.00000000000E+00 -0.00000000000E+00 -0.45593999997E+02  0.45594000000E+02  0.51100000000E-03 0. -1.
    9900012    2    1    2    0    0 -0.13552655976E+00 -0.14038727389E+02  0.12392617977E+02  0.72461515693E+02  0.69999928872E+02 0.  0.
         12    1    1    2    0    0  0.13552655976E+00  0.14038727389E+02 -0.12392617977E+02  0.18726484307E+02  0.00000000000E+00 0. -1.
         11    1    3    3    0    0  0.22919846901E+02 -0.21224310445E+02 -0.12177343779E+02  0.33527279007E+02  0.51100000000E-03 0. -1.
        -11    1    3    3    0    0  0.11080927754E+01  0.58936371938E+01  0.45342962210E+01  0.75181561205E+01  0.51100000000E-03 0.  1.
        -12    1    3    3    0    0 -0.24163466236E+02  0.12919458618E+01  0.20035665536E+02  0.31416080566E+02  0.00000000000E+00 0.  1.
</event>
<event>
 7    1  0.2886818E-013  0.7246159E+02  0.7816164E-02  0.1226708E+00
        -11   -1    0    0    0    0  0.00000000000E+00  0.00000000000E+00  0.45593999997E+02  0.45594000000E+02  0.51100000000E-03 0. -1.
         11   -1    0    0    0    0 -0.00000000000E+00 -0.00000000000E+00 -0.45593999997E+02  0.45594000000E+02  0.51100000000E-03 0.  1.
    9900012    2    1    2    0    0 -0.76238381322E+01  0.46110156715E+01 -0.16471008566E+02  0.72461588262E+02  0.70000023406E+02 0.  0.
         12    1    1    2    0    0  0.76238381322E+01 -0.46110156715E+01  0.16471008566E+02  0.18726411738E+02  0.00000000000E+00 0. -1.
         11    1    3    3    0    0  0.29167044384E+01 -0.51883268758E+01 -0.12125075543E+01  0.60742139723E+01  0.51100000000E-03 0. -1.
        -11    1    3    3    0    0 -0.92130342177E+01 -0.24975285776E+02 -0.16928974375E+02  0.31547346524E+02  0.51100000000E-03 0.  1.
         12    1    3    3    0    0 -0.13275083529E+01  0.34774628323E+02  0.16704733633E+01  0.34840027765E+02  0.00000000000E+00 0. -1.
</event>
<event>
 7    1  0.2886818E-013  0.7246150E+02  0.7816164E-02  0.1226708E+00
        -11   -1    0    0    0    0  0.00000000000E+00  0.00000000000E+00  0.45593999997E+02  0.45594000000E+02  0.51100000000E-03 0. -1.
         11   -1    0    0    0    0 -0.00000000000E+00 -0.00000000000E+00 -0.45593999997E+02  0.45594000000E+02  0.51100000000E-03 0.  1.
    9900012    2    1    2    0    0  0.53738554033E+01  0.51253088415E+01 -0.17191117654E+02  0.72461504363E+02  0.69999914113E+02 0.  0.
         12    1    1    2    0    0 -0.53738554033E+01 -0.51253088415E+01  0.17191117654E+02  0.18726495637E+02  0.00000000000E+00 0. -1.
         11    1    3    3    0    0  0.12913392628E+02  0.25575336111E+02 -0.24019171842E+02  0.37386817765E+02  0.51100000000E-03 0. -1.
        -11    1    3    3    0    0 -0.74669229019E+00 -0.87044809941E+00 -0.89527809509E+01  0.90259357568E+01  0.51100000000E-03 0.  1.
         12    1    3    3    0    0 -0.67928449346E+01 -0.19579579170E+02  0.15780835138E+02  0.26048750842E+02  0.00000000000E+00 0. -1.
</event>
<event>
 7    1  0.3052570E-013  0.7246161E+02  0.7816164E-02  0.1226708E+00
        -11   -1    0    0    0    0  0.00000000000E+00  0.00000000000E+00  0.45593999997E+02  0.45594000000E+02  0.51100000000E-03 0. -1.
         11   -1    0    0    0    0 -0.00000000000E+00 -0.00000000000E+00 -0.45593999997E+02  0.45594000000E+02  0.51100000000E-03 0.  1.
    9900012    2    1    2    0    0  0.49975917858E+01 -0.98026930352E+01 -0.15152858484E+02  0.72461605936E+02  0.70000046429E+02 0.  0.
         12    1    1    2    0    0 -0.49975917858E+01  0.98026930352E+01  0.15152858484E+02  0.18726394064E+02  0.00000000000E+00 0. -1.
         11    1    3    3    0    0  0.17616236949E+01  0.85444962651E+01 -0.84517389408E+01  0.12146753717E+02  0.51100000000E-03 0.  1.
        -11    1    3    3    0    0  0.14220237561E+02 -0.17381473942E+02 -0.28261921895E+02  0.36098019643E+02  0.51100000000E-03 0. -1.
         12    1    3    3    0    0 -0.10984269470E+02 -0.96571535874E+00  0.21560802352E+02  0.24216832576E+02  0.00000000000E+00 0. -1.
</event>
<event>
 7    1  0.2886818E-013  0.7246162E+02  0.7816164E-02  0.1226708E+00
        -11   -1    0    0    0    0  0.00000000000E+00  0.00000000000E+00  0.45593999997E+02  0.45594000000E+02  0.51100000000E-03 0.  1.
         11   -1    0    0    0    0 -0.00000000000E+00 -0.00000000000E+00 -0.45593999997E+02  0.45594000000E+02  0.51100000000E-03 0. -1.
    9900012    2    1    2    0    0 -0.15520980695E+02  0.10403974190E+02 -0.12384817728E+01  0.72461618668E+02  0.70000063015E+02 0.  0.
         12    1    1    2    0    0  0.15520980695E+02 -0.10403974190E+02  0.12384817728E+01  0.18726381332E+02  0.00000000000E+00 0. -1.
         11    1    3    3    0    0  0.50459998422E+01  0.16316011787E+01 -0.15908826141E+02  0.16769465891E+02  0.51100000000E-03 0.  1.
        -11    1    3    3    0    0 -0.31886337433E+02 -0.84078916917E+01  0.68380120600E+01  0.33677731022E+02  0.51100000000E-03 0. -1.
         12    1    3    3    0    0  0.11319356896E+02  0.17180264704E+02  0.78323323082E+01  0.22014421755E+02  0.00000000000E+00 0. -1.
</event>
<event>
 7    1  0.2886818E-013  0.7246167E+02  0.7816164E-02  0.1226708E+00
        -11   -1    0    0    0    0  0.00000000000E+00  0.00000000000E+00  0.45593999997E+02  0.45594000000E+02  0.51100000000E-03 0.  1.
         11   -1    0    0    0    0 -0.00000000000E+00 -0.00000000000E+00 -0.45593999997E+02  0.45594000000E+02  0.51100000000E-03 0. -1.
    9900012    2    1    2    0    0  0.34399973090E+01 -0.96129947093E+01  0.15698156768E+02  0.72461671618E+02  0.70000131993E+02 0.  0.
         12    1    1    2    0    0 -0.34399973090E+01  0.96129947093E+01 -0.15698156768E+02  0.18726328382E+02  0.00000000000E+00 0. -1.
         11    1    3    3    0    0 -0.20991984473E+01  0.14394177160E+00  0.71401162898E+01  0.74436962759E+01  0.51100000000E-03 0. -1.
        -11    1    3    3    0    0  0.16839982685E+02 -0.28161831524E+02  0.22067883407E+02  0.39543207380E+02  0.51100000000E-03 0.  1.
        -12    1    3    3    0    0 -0.11300786928E+02  0.18404895043E+02 -0.13509842929E+02  0.25474767962E+02  0.00000000000E+00 0.  1.
</event>
<event>
 7    1  0.2886818E-013  0.7246159E+02  0.7816164E-02  0.1226708E+00
        -11   -1    0    0    0    0  0.00000000000E+00  0.00000000000E+00  0.45593999997E+02  0.45594000000E+02  0.51100000000E-03 0. -1.
         11   -1    0    0    0    0 -0.00000000000E+00 -0.00000000000E+00 -0.45593999997E+02  0.45594000000E+02  0.51100000000E-03 0.  1.
    9900012    2    1    2    0    0  0.10749656161E+02 -0.12367409327E+02  0.90647968158E+01  0.72461589176E+02  0.70000024597E+02 0.  0.
         12    1    1    2    0    0 -0.10749656161E+02  0.12367409327E+02 -0.90647968158E+01  0.18726410824E+02  0.00000000000E+00 0. -1.
         11    1    3    3    0    0  0.10312128153E+01 -0.77824708962E+01  0.10975578550E+02  0.13494205344E+02  0.51100000000E-03 0. -1.
        -11    1    3    3    0    0  0.24663365336E+02 -0.88478064580E+01 -0.21547939007E+02  0.33924606771E+02  0.51100000000E-03 0.  1.
         12    1    3    3    0    0 -0.14944921991E+02  0.42628680275E+01  0.19637157274E+02  0.25042777061E+02  0.00000000000E+00 0. -1.
</event>
<event>
 7    1  0.3531104E-013  0.7246161E+02  0.7816164E-02  0.1226708E+00
        -11   -1    0    0    0    0  0.00000000000E+00  0.00000000000E+00  0.45593999997E+02  0.45594000000E+02  0.51100000000E-03 0. -1.
         11   -1    0    0    0    0 -0.00000000000E+00 -0.00000000000E+00 -0.45593999997E+02  0.45594000000E+02  0.51100000000E-03 0.  1.
    9900012    2    1    2    0    0 -0.61970769695E+01 -0.23941238464E+01 -0.17508339134E+02  0.72461614039E+02  0.70000056985E+02 0.  0.
         12    1    1    2    0    0  0.61970769695E+01  0.23941238464E+01  0.17508339134E+02  0.18726385961E+02  0.00000000000E+00 0. -1.
         11    1    3    3    0    0 -0.98351897514E+01  0.14180452183E+02  0.29224191720E+01  0.17503048752E+02  0.51100000000E-03 0. -1.
        -11    1    3    3    0    0  0.12309284010E+02  0.26888886686E+01 -0.29416918074E+02  0.32001619714E+02  0.51100000000E-03 0.  1.
         12    1    3    3    0    0 -0.86711712279E+01 -0.19263464698E+02  0.89861597681E+01  0.22956945572E+02  0.00000000000E+00 0. -1.
</event>
<event>
 7    1  0.2886818E-013  0.7246162E+02  0.7816164E-02  0.1226708E+00
        -11   -1    0    0    0    0  0.00000000000E+00  0.00000000000E+00  0.45593999997E+02  0.45594000000E+02  0.51100000000E-03 0. -1.
         11   -1    0    0    0    0 -0.00000000000E+00 -0.00000000000E+00 -0.45593999997E+02  0.45594000000E+02  0.51100000000E-03 0.  1.
    9900012    2    1    2    0    0 -0.16305834359E+02  0.68483155077E+01  0.61561217368E+01  0.72461615023E+02  0.70000058268E+02 0.  0.
         12    1    1    2    0    0  0.16305834359E+02 -0.68483155077E+01 -0.61561217368E+01  0.18726384977E+02  0.00000000000E+00 0. -1.
         11    1    3    3    0    0  0.97648608232E+01 -0.24447914944E+01  0.17513320095E+02  0.20200145874E+02  0.51100000000E-03 0.  1.
        -11    1    3    3    0    0 -0.19466393062E+02  0.13375083112E+02  0.12816307854E+02  0.26871751978E+02  0.51100000000E-03 0. -1.
         12    1    3    3    0    0 -0.66043021210E+01 -0.40819761100E+01 -0.24173506212E+02  0.25389717171E+02  0.00000000000E+00 0. -1.
</event>
<event>
 7    1  0.2886818E-013  0.7246145E+02  0.7816164E-02  0.1226708E+00
        -11   -1    0    0    0    0  0.00000000000E+00  0.00000000000E+00  0.45593999997E+02  0.45594000000E+02  0.51100000000E-03 0.  1.
         11   -1    0    0    0    0 -0.00000000000E+00 -0.00000000000E+00 -0.45593999997E+02  0.45594000000E+02  0.51100000000E-03 0. -1.
    9900012    2    1    2    0    0  0.12858014190E+01 -0.17819034810E+02 -0.56135808090E+01  0.72461452632E+02  0.69999846722E+02 0.  0.
         12    1    1    2    0    0 -0.12858014190E+01  0.17819034810E+02  0.56135808090E+01  0.18726547368E+02  0.00000000000E+00 0. -1.
         11    1    3    3    0    0 -0.22444237128E+02 -0.85184178203E+01  0.15840035513E+01  0.24058601163E+02  0.51100000000E-03 0. -1.
        -11    1    3    3    0    0  0.91600207410E+01 -0.11796857279E+02  0.15365727497E+02  0.21428425127E+02  0.51100000000E-03 0.  1.
         12    1    3    3    0    0  0.14570017806E+02  0.24962402890E+01 -0.22563311858E+02  0.26974426341E+02  0.00000000000E+00 0. -1.
</event>
<event>
 7    1  0.2886818E-013  0.7246161E+02  0.7816164E-02  0.1226708E+00
        -11   -1    0    0    0    0  0.00000000000E+00  0.00000000000E+00  0.45593999997E+02  0.45594000000E+02  0.51100000000E-03 0.  1.
         11   -1    0    0    0    0 -0.00000000000E+00 -0.00000000000E+00 -0.45593999997E+02  0.45594000000E+02  0.51100000000E-03 0. -1.
    9900012    2    1    2    0    0  0.44856485909E+01  0.15136604790E+02  0.10071737103E+02  0.72461608566E+02  0.70000049856E+02 0.  0.
         12    1    1    2    0    0 -0.44856485909E+01 -0.15136604790E+02 -0.10071737103E+02  0.18726391434E+02  0.00000000000E+00 0. -1.
         11    1    3    3    0    0  0.12364145377E+01 -0.27637653038E+01 -0.19468761163E+02  0.19702786124E+02  0.51100000000E-03 0. -1.
        -11    1    3    3    0    0  0.19297035255E+02  0.28552658190E+01  0.57055625656E+01  0.20324407912E+02  0.51100000000E-03 0.  1.
        -12    1    3    3    0    0 -0.16047801202E+02  0.15045104275E+02  0.23834935701E+02  0.32434414530E+02  0.00000000000E+00 0.  1.
</event>
<event>
 7    1  0.2886818E-013  0.7246158E+02  0.7816164E-02  0.1226708E+00
        -11   -1    0    0    0    0  0.00000000000E+00  0.00000000000E+00  0.45593999997E+02  0.45594000000E+02  0.51100000000E-03 0. -1.
         11   -1    0    0    0    0 -0.00000000000E+00 -0.00000000000E+00 -0.45593999997E+02  0.45594000000E+02  0.51100000000E-03 0.  1.
    9900012    2    1    2    0    0 -0.92876544056E+01 -0.10419161404E+02 -0.12484360421E+02  0.72461582728E+02  0.70000016197E+02 0.  0.
         12    1    1    2    0    0  0.92876544056E+01  0.10419161404E+02  0.12484360421E+02  0.18726417272E+02  0.00000000000E+00 0. -1.
         11    1    3    3    0    0  0.68530411932E+01  0.70652633270E+01  0.31217552568E+01  0.10326058087E+02  0.51100000000E-03 0. -1.
        -11    1    3    3    0    0 -0.13671929094E+02  0.13633443662E+02  0.10015865018E+02  0.21751091549E+02  0.51100000000E-03 0.  1.
        -12    1    3    3    0    0 -0.24687665046E+01 -0.31117868393E+02 -0.25621980696E+02  0.40384433092E+02  0.00000000000E+00 0.  1.
</event>
<event>
 7    1  0.2886818E-013  0.7246157E+02  0.7816164E-02  0.1226708E+00
        -11   -1    0    0    0    0  0.00000000000E+00  0.00000000000E+00  0.45593999997E+02  0.45594000000E+02  0.51100000000E-03 0.  1.
         11   -1    0    0    0    0 -0.00000000000E+00 -0.00000000000E+00 -0.45593999997E+02  0.45594000000E+02  0.51100000000E-03 0. -1.
    9900012    2    1    2    0    0 -0.30422678596E+01 -0.10952279621E+02  0.14881919885E+02  0.72461565152E+02  0.69999993302E+02 0.  0.
         12    1    1    2    0    0  0.30422678596E+01  0.10952279621E+02 -0.14881919885E+02  0.18726434848E+02  0.00000000000E+00 0. -1.
         11    1    3    3    0    0  0.74678654015E+01  0.22770129492E+02 -0.94040279859E+01  0.25742640761E+02  0.51100000000E-03 0. -1.
        -11    1    3    3    0    0 -0.29901256231E+01 -0.15829708223E+02  0.63286241092E+00  0.16122066517E+02  0.51100000000E-03 0.  1.
        -12    1    3    3    0    0 -0.75200076380E+01 -0.17892700890E+02  0.23653085460E+02  0.30596857875E+02  0.00000000000E+00 0.  1.
</event>
<event>
 7    1  0.2886818E-013  0.7246158E+02  0.7816164E-02  0.1226708E+00
        -11   -1    0    0    0    0  0.00000000000E+00  0.00000000000E+00  0.45593999997E+02  0.45594000000E+02  0.51100000000E-03 0.  1.
         11   -1    0    0    0    0 -0.00000000000E+00 -0.00000000000E+00 -0.45593999997E+02  0.45594000000E+02  0.51100000000E-03 0. -1.
    9900012    2    1    2    0    0 -0.12356643971E+02 -0.13439773969E+02 -0.41671104086E+01  0.72461575255E+02  0.70000006463E+02 0.  0.
         12    1    1    2    0    0  0.12356643971E+02  0.13439773969E+02  0.41671104086E+01  0.18726424745E+02  0.00000000000E+00 0. -1.
         11    1    3    3    0    0 -0.98779981742E+01  0.59247933443E+01 -0.75199703498E+01  0.13756016081E+02  0.51100000000E-03 0. -1.
        -11    1    3    3    0    0  0.17773525686E+02  0.34618632326E+01  0.17399575804E+02  0.25112306760E+02  0.51100000000E-03 0.  1.
         12    1    3    3    0    0 -0.20252171483E+02 -0.22826430546E+02 -0.14046715863E+02  0.33593252414E+02  0.00000000000E+00 0. -1.
</event>
<event>
 7    1  0.2886818E-013  0.7246163E+02  0.7816164E-02  0.1226708E+00
        -11   -1    0    0    0    0  0.00000000000E+00  0.00000000000E+00  0.45593999997E+02  0.45594000000E+02  0.51100000000E-03 0.  1.
         11   -1    0    0    0    0 -0.00000000000E+00 -0.00000000000E+00 -0.45593999997E+02  0.45594000000E+02  0.51100000000E-03 0. -1.
    9900012    2    1    2    0    0 -0.39210545759E+00 -0.48178157837E+01  0.18091757655E+02  0.72461633811E+02  0.70000082742E+02 0.  0.
         12    1    1    2    0    0  0.39210545759E+00  0.48178157837E+01 -0.18091757655E+02  0.18726366189E+02  0.00000000000E+00 0. -1.
         11    1    3    3    0    0  0.46858458139E+01  0.63619775705E+01  0.77358058414E+01  0.11057784673E+02  0.51100000000E-03 0. -1.
        -11    1    3    3    0    0 -0.17838336876E+02  0.19240358145E+02  0.10899722006E+02  0.28411293250E+02  0.51100000000E-03 0.  1.
         12    1    3    3    0    0  0.12760385605E+02 -0.30420151499E+02 -0.54377019252E+00  0.32992555888E+02  0.00000000000E+00 0. -1.
</event>
<event>
 7    1  0.2886818E-013  0.7246157E+02  0.7816164E-02  0.1226708E+00
        -11   -1    0    0    0    0  0.00000000000E+00  0.00000000000E+00  0.45593999997E+02  0.45594000000E+02  0.51100000000E-03 0. -1.
         11   -1    0    0    0    0 -0.00000000000E+00 -0.00000000000E+00 -0.45593999997E+02  0.45594000000E+02  0.51100000000E-03 0.  1.
    9900012    2    1    2    0    0 -0.40986866671E+01  0.54666271335E+01  0.17435482413E+02  0.72461567035E+02  0.69999995754E+02 0.  0.
         12    1    1    2    0    0  0.40986866671E+01 -0.54666271335E+01 -0.17435482413E+02  0.18726432965E+02  0.00000000000E+00 0. -1.
         11    1    3    3    0    0 -0.11741414131E+02  0.18622203994E+02  0.12076254000E+02  0.25109424492E+02  0.51100000000E-03 0. -1.
        -11    1    3    3    0    0  0.11688432468E+02  0.68649462848E+01 -0.13802501854E+02  0.19345697164E+02  0.51100000000E-03 0.  1.
         12    1    3    3    0    0 -0.40457050040E+01 -0.20020523145E+02  0.19161730267E+02  0.28006445380E+02  0.00000000000E+00 0. -1.
</event>
<event>
 7    1  0.2886818E-013  0.7246154E+02  0.7816164E-02  0.1226708E+00
        -11   -1    0    0    0    0  0.00000000000E+00  0.00000000000E+00  0.45593999997E+02  0.45594000000E+02  0.51100000000E-03 0.  1.
         11   -1    0    0    0    0 -0.00000000000E+00 -0.00000000000E+00 -0.45593999997E+02  0.45594000000E+02  0.51100000000E-03 0. -1.
    9900012    2    1    2    0    0 -0.20414630965E+01 -0.18614547748E+02 -0.10580521290E+00  0.72461544004E+02  0.69999965751E+02 0.  0.
         12    1    1    2    0    0  0.20414630965E+01  0.18614547748E+02  0.10580521290E+00  0.18726455996E+02  0.00000000000E+00 0. -1.
         11    1    3    3    0    0  0.85232229242E+01  0.16440262152E+01 -0.13356046174E+01  0.87824820619E+01  0.51100000000E-03 0. -1.
        -11    1    3    3    0    0 -0.36339683806E+01 -0.28012424258E+02  0.25007594102E+02  0.37726401923E+02  0.51100000000E-03 0.  1.
         12    1    3    3    0    0 -0.69307176401E+01  0.77538502950E+01 -0.23777794697E+02  0.25952660019E+02  0.00000000000E+00 0. -1.
</event>
<event>
 7    1  0.2886818E-013  0.7246154E+02  0.7816164E-02  0.1226708E+00
        -11   -1    0    0    0    0  0.00000000000E+00  0.00000000000E+00  0.45593999997E+02  0.45594000000E+02  0.51100000000E-03 0.  1.
         11   -1    0    0    0    0 -0.00000000000E+00 -0.00000000000E+00 -0.45593999997E+02  0.45594000000E+02  0.51100000000E-03 0. -1.
    9900012    2    1    2    0    0 -0.52649454811E+01 -0.65731922601E+01  0.16725843100E+02  0.72461539181E+02  0.69999959469E+02 0.  0.
         12    1    1    2    0    0  0.52649454811E+01  0.65731922601E+01 -0.16725843100E+02  0.18726460819E+02  0.00000000000E+00 0. -1.
         11    1    3    3    0    0 -0.30139297163E+02 -0.18421375343E+01  0.24330072676E+02  0.38777869215E+02  0.51100000000E-03 0. -1.
        -11    1    3    3    0    0 -0.25435334793E+01 -0.16855440377E+01  0.28571456653E+01  0.41801797661E+01  0.51100000000E-03 0.  1.
        -12    1    3    3    0    0  0.27417885161E+02 -0.30455106882E+01 -0.10461375242E+02  0.29503490200E+02  0.00000000000E+00 0.  1.
</event>
<event>
 7    1  0.2886818E-013  0.7246157E+02  0.7816164E-02  0.1226708E+00
        -11   -1    0    0    0    0  0.00000000000E+00  0.00000000000E+00  0.45593999997E+02  0.45594000000E+02  0.51100000000E-03 0.  1.
         11   -1    0    0    0    0 -0.00000000000E+00 -0.00000000000E+00 -0.45593999997E+02  0.45594000000E+02  0.51100000000E-03 0. -1.
    9900012    2    1    2    0    0  0.52361401725E+01 -0.97394550874E+01  0.15113075491E+02  0.72461569478E+02  0.69999998937E+02 0.  0.
         12    1    1    2    0    0 -0.52361401725E+01  0.97394550874E+01 -0.15113075491E+02  0.18726430522E+02  0.00000000000E+00 0. -1.
         11    1    3    3    0    0 -0.45952022325E+01  0.68260332192E-01 -0.48427132168E+00  0.46211537525E+01  0.51100000000E-03 0. -1.
        -11    1    3    3    0    0 -0.71815919465E+01 -0.32840921504E+02  0.19620876537E+02  0.38924030938E+02  0.51100000000E-03 0.  1.
         12    1    3    3    0    0  0.17012934352E+02  0.23033206084E+02 -0.40235297248E+01  0.28916384788E+02  0.00000000000E+00 0. -1.
</event>
<event>
 7    1  0.2886818E-013  0.7246158E+02  0.7816164E-02  0.1226708E+00
        -11   -1    0    0    0    0  0.00000000000E+00  0.00000000000E+00  0.45593999997E+02  0.45594000000E+02  0.51100000000E-03 0.  1.
         11   -1    0    0    0    0 -0.00000000000E+00 -0.00000000000E+00 -0.45593999997E+02  0.45594000000E+02  0.51100000000E-03 0. -1.
    9900012    2    1    2    0    0 -0.14510324284E+02 -0.49361958920E+01  0.10759340073E+02  0.72461576436E+02  0.70000008000E+02 0.  0.
         12    1    1    2    0    0  0.14510324284E+02  0.49361958920E+01 -0.10759340073E+02  0.18726423564E+02  0.00000000000E+00 0. -1.
         11    1    3    3    0    0 -0.17646250881E+02  0.21682226110E+02 -0.42866979997E+00  0.27958770669E+02  0.51100000000E-03 0. -1.
        -11    1    3    3    0    0  0.88301617699E+01  0.23951760865E+01  0.11797425304E+02  0.14929429642E+02  0.51100000000E-03 0.  1.
         12    1    3    3    0    0 -0.56942351726E+01 -0.29013598089E+02 -0.60941543155E+00  0.29573376125E+02  0.00000000000E+00 0. -1.
</event>
<event>
 7    1  0.2886818E-013  0.7246152E+02  0.7816164E-02  0.1226708E+00
        -11   -1    0    0    0    0  0.00000000000E+00  0.00000000000E+00  0.45593999997E+02  0.45594000000E+02  0.51100000000E-03 0.  1.
         11   -1    0    0    0    0 -0.00000000000E+00 -0.00000000000E+00 -0.45593999997E+02  0.45594000000E+02  0.51100000000E-03 0. -1.
    9900012    2    1    2    0    0 -0.92261947732E+01  0.37219047711E+01 -0.15865236464E+02  0.72461522137E+02  0.69999937266E+02 0.  0.
         12    1    1    2    0    0  0.92261947732E+01 -0.37219047711E+01  0.15865236464E+02  0.18726477863E+02  0.00000000000E+00 0. -1.
         11    1    3    3    0    0 -0.18437610658E+02 -0.71490718843E+01 -0.84669698732E+01  0.21511492154E+02  0.51100000000E-03 0. -1.
        -11    1    3    3    0    0 -0.67160997072E+00 -0.18961188708E+02 -0.22856550318E+01  0.19110257884E+02  0.51100000000E-03 0.  1.
         12    1    3    3    0    0  0.98830258560E+01  0.29832165364E+02 -0.51126115587E+01  0.31839772099E+02  0.00000000000E+00 0. -1.
</event>
<event>
 7    1  0.2886818E-013  0.7246157E+02  0.7816164E-02  0.1226708E+00
        -11   -1    0    0    0    0  0.00000000000E+00  0.00000000000E+00  0.45593999997E+02  0.45594000000E+02  0.51100000000E-03 0. -1.
         11   -1    0    0    0    0 -0.00000000000E+00 -0.00000000000E+00 -0.45593999997E+02  0.45594000000E+02  0.51100000000E-03 0.  1.
    9900012    2    1    2    0    0  0.85758874667E+01 -0.86077207811E+01 -0.14249230896E+02  0.72461567238E+02  0.69999996018E+02 0.  0.
         12    1    1    2    0    0 -0.85758874667E+01  0.86077207811E+01  0.14249230896E+02  0.18726432762E+02  0.00000000000E+00 0. -1.
         11    1    3    3    0    0 -0.21237581663E+02  0.12385675648E+02 -0.92939876743E+01  0.26283417649E+02  0.51100000000E-03 0. -1.
        -11    1    3    3    0    0 -0.38549199127E+00  0.56350685305E+01 -0.70879618124E+00  0.56925384238E+01  0.51100000000E-03 0.  1.
        -12    1    3    3    0    0  0.30198961121E+02 -0.26628464960E+02 -0.42464470401E+01  0.40485611165E+02  0.00000000000E+00 0.  1.
</event>
<event>
 7    1  0.2886818E-013  0.7246159E+02  0.7816164E-02  0.1226708E+00
        -11   -1    0    0    0    0  0.00000000000E+00  0.00000000000E+00  0.45593999997E+02  0.45594000000E+02  0.51100000000E-03 0. -1.
         11   -1    0    0    0    0 -0.00000000000E+00 -0.00000000000E+00 -0.45593999997E+02  0.45594000000E+02  0.51100000000E-03 0.  1.
    9900012    2    1    2    0    0  0.18564777884E+01 -0.14896238101E+02 -0.11195273796E+02  0.72461586176E+02  0.70000020689E+02 0.  0.
         12    1    1    2    0    0 -0.18564777884E+01  0.14896238101E+02  0.11195273796E+02  0.18726413824E+02  0.00000000000E+00 0. -1.
         11    1    3    3    0    0 -0.67061384859E+01 -0.16326034731E+02  0.17981405550E+02  0.25196084006E+02  0.51100000000E-03 0. -1.
        -11    1    3    3    0    0  0.98079636365E+01 -0.98465792220E+01  0.20440625725E+01  0.14047400654E+02  0.51100000000E-03 0.  1.
        -12    1    3    3    0    0 -0.12453473622E+01  0.11276375852E+02 -0.31220741918E+02  0.33218101516E+02  0.00000000000E+00 0.  1.
</event>
<event>
 7    1  0.2886818E-013  0.7246157E+02  0.7816164E-02  0.1226708E+00
        -11   -1    0    0    0    0  0.00000000000E+00  0.00000000000E+00  0.45593999997E+02  0.45594000000E+02  0.51100000000E-03 0. -1.
         11   -1    0    0    0    0 -0.00000000000E+00 -0.00000000000E+00 -0.45593999997E+02  0.45594000000E+02  0.51100000000E-03 0.  1.
    9900012    2    1    2    0    0  0.39795927297E+01  0.32848390287E+01 -0.18001437825E+02  0.72461572431E+02  0.70000002783E+02 0.  0.
         12    1    1    2    0    0 -0.39795927297E+01 -0.32848390287E+01  0.18001437825E+02  0.18726427569E+02  0.00000000000E+00 0. -1.
         11    1    3    3    0    0  0.97541564236E+01  0.14552529832E+02 -0.45859460617E+01  0.18109406218E+02  0.51100000000E-03 0. -1.
        -11    1    3    3    0    0  0.15153358552E+01  0.85358373917E+01  0.15971818815E+02  0.18172940303E+02  0.51100000000E-03 0.  1.
        -12    1    3    3    0    0 -0.72898995491E+01 -0.19803528195E+02 -0.29387310578E+02  0.36179225910E+02  0.00000000000E+00 0.  1.
</event>
<event>
 7    1  0.2886818E-013  0.7246132E+02  0.7816164E-02  0.1226709E+00
        -11   -1    0    0    0    0  0.00000000000E+00  0.00000000000E+00  0.45593999997E+02  0.45594000000E+02  0.51100000000E-03 0.  1.
         11   -1    0    0    0    0 -0.00000000000E+00 -0.00000000000E+00 -0.45593999997E+02  0.45594000000E+02  0.51100000000E-03 0. -1.
    9900012    2    1    2    0    0  0.88632295819E+00 -0.18552682487E+02 -0.23876803267E+01  0.72461318147E+02  0.69999671531E+02 0.  0.
         12    1    1    2    0    0 -0.88632295819E+00  0.18552682487E+02  0.23876803267E+01  0.18726681853E+02  0.00000000000E+00 0. -1.
         11    1    3    3    0    0  0.91349219788E+01 -0.26352871237E+02 -0.11372336474E+02  0.30120601905E+02  0.51100000000E-03 0. -1.
        -11    1    3    3    0    0 -0.17795711475E+02 -0.24799818449E+01 -0.85384253207E+01  0.19893274343E+02  0.51100000000E-03 0.  1.
        -12    1    3    3    0    0  0.95471124549E+01  0.10280170595E+02  0.17523081468E+02  0.22447441899E+02  0.00000000000E+00 0.  1.
</event>
<event>
 7    1  0.2886818E-013  0.7246166E+02  0.7816164E-02  0.1226708E+00
        -11   -1    0    0    0    0  0.00000000000E+00  0.00000000000E+00  0.45593999997E+02  0.45594000000E+02  0.51100000000E-03 0. -1.
         11   -1    0    0    0    0 -0.00000000000E+00 -0.00000000000E+00 -0.45593999997E+02  0.45594000000E+02  0.51100000000E-03 0.  1.
    9900012    2    1    2    0    0 -0.12560021015E+02  0.44569224742E+01 -0.13155134709E+02  0.72461658792E+02  0.70000115285E+02 0.  0.
         12    1    1    2    0    0  0.12560021015E+02 -0.44569224742E+01  0.13155134709E+02  0.18726341208E+02  0.00000000000E+00 0. -1.
         11    1    3    3    0    0 -0.39241982173E+01  0.28714682072E+02  0.10098523744E+02  0.30690592699E+02  0.51100000000E-03 0. -1.
        -11    1    3    3    0    0 -0.13704172546E+02 -0.62928386794E+01 -0.15295543446E+02  0.21479241453E+02  0.51100000000E-03 0.  1.
        -12    1    3    3    0    0  0.50683497491E+01 -0.17964920918E+02 -0.79581150073E+01  0.20291824641E+02  0.00000000000E+00 0.  1.
</event>
<event>
 7    1  0.2886818E-013  0.7246156E+02  0.7816164E-02  0.1226708E+00
        -11   -1    0    0    0    0  0.00000000000E+00  0.00000000000E+00  0.45593999997E+02  0.45594000000E+02  0.51100000000E-03 0.  1.
         11   -1    0    0    0    0 -0.00000000000E+00 -0.00000000000E+00 -0.45593999997E+02  0.45594000000E+02  0.51100000000E-03 0. -1.
    9900012    2    1    2    0    0  0.70978702864E+01  0.11004339408E+02  0.13386716690E+02  0.72461563282E+02  0.69999990866E+02 0.  0.
         12    1    1    2    0    0 -0.70978702864E+01 -0.11004339408E+02 -0.13386716690E+02  0.18726436718E+02  0.00000000000E+00 0. -1.
         11    1    3    3    0    0 -0.13321367856E+01  0.69385332977E+01  0.82935739376E+01  0.10895008107E+02  0.51100000000E-03 0. -1.
        -11    1    3    3    0    0  0.16480802573E+02  0.15380135039E+02  0.27282258444E+02  0.35390493544E+02  0.51100000000E-03 0.  1.
         12    1    3    3    0    0 -0.80507955007E+01 -0.11314328929E+02 -0.22189115692E+02  0.26176061631E+02  0.00000000000E+00 0. -1.
</event>
<event>
 7    1  0.2886818E-013  0.7246158E+02  0.7816164E-02  0.1226708E+00
        -11   -1    0    0    0    0  0.00000000000E+00  0.00000000000E+00  0.45593999997E+02  0.45594000000E+02  0.51100000000E-03 0. -1.
         11   -1    0    0    0    0 -0.00000000000E+00 -0.00000000000E+00 -0.45593999997E+02  0.45594000000E+02  0.51100000000E-03 0.  1.
    9900012    2    1    2    0    0  0.55563304881E+01 -0.16938438175E+02 -0.57354558965E+01  0.72461576138E+02  0.70000007613E+02 0.  0.
         12    1    1    2    0    0 -0.55563304881E+01  0.16938438175E+02  0.57354558965E+01  0.18726423862E+02  0.00000000000E+00 0. -1.
         11    1    3    3    0    0 -0.97073975542E+01 -0.49343750880E+01  0.12755405053E+02  0.16771463356E+02  0.51100000000E-03 0. -1.
        -11    1    3    3    0    0  0.27770786639E+02 -0.15412165748E+02  0.15764821595E+01  0.31799948740E+02  0.51100000000E-03 0.  1.
         12    1    3    3    0    0 -0.12507058597E+02  0.34081026611E+01 -0.20067343109E+02  0.23890164042E+02  0.00000000000E+00 0. -1.
</event>
<event>
 7    1  0.2886818E-013  0.7246161E+02  0.7816164E-02  0.1226708E+00
        -11   -1    0    0    0    0  0.00000000000E+00  0.00000000000E+00  0.45593999997E+02  0.45594000000E+02  0.51100000000E-03 0. -1.
         11   -1    0    0    0    0 -0.00000000000E+00 -0.00000000000E+00 -0.45593999997E+02  0.45594000000E+02  0.51100000000E-03 0.  1.
    9900012    2    1    2    0    0 -0.84932204647E+01  0.16642663583E+02 -0.12508506528E+01  0.72461610269E+02  0.70000052075E+02 0.  0.
         12    1    1    2    0    0  0.84932204647E+01 -0.16642663583E+02  0.12508506528E+01  0.18726389731E+02  0.00000000000E+00 0. -1.
         11    1    3    3    0    0 -0.11186024998E+01 -0.15019526470E+02  0.72198655371E+01  0.16702212595E+02  0.51100000000E-03 0. -1.
        -11    1    3    3    0    0 -0.79060566375E+01 -0.22265133247E+01 -0.18643648734E+02  0.20372744821E+02  0.51100000000E-03 0.  1.
         12    1    3    3    0    0  0.53143867261E+00  0.33888703377E+02  0.10172932544E+02  0.35386652854E+02  0.00000000000E+00 0. -1.
</event>
<event>
 7    1  0.2886818E-013  0.7246158E+02  0.7816164E-02  0.1226708E+00
        -11   -1    0    0    0    0  0.00000000000E+00  0.00000000000E+00  0.45593999997E+02  0.45594000000E+02  0.51100000000E-03 0.  1.
         11   -1    0    0    0    0 -0.00000000000E+00 -0.00000000000E+00 -0.45593999997E+02  0.45594000000E+02  0.51100000000E-03 0. -1.
    9900012    2    1    2    0    0  0.16123711248E+02 -0.67414449310E+01 -0.67273723776E+01  0.72461583277E+02  0.70000016913E+02 0.  0.
         12    1    1    2    0    0 -0.16123711248E+02  0.67414449310E+01  0.67273723776E+01  0.18726416723E+02  0.00000000000E+00 0. -1.
         11    1    3    3    0    0  0.38683467906E+01  0.45770556044E+01  0.12833627633E+01  0.61286674850E+01  0.51100000000E-03 0. -1.
        -11    1    3    3    0    0 -0.80825460261E+01  0.41579339956E+01  0.23829770934E+02  0.25504390767E+02  0.51100000000E-03 0.  1.
         12    1    3    3    0    0  0.20337910483E+02 -0.15476434531E+02 -0.31840506075E+02  0.40828525025E+02  0.00000000000E+00 0. -1.
</event>
<event>
 7    1  0.2886818E-013  0.7246155E+02  0.7816164E-02  0.1226708E+00
        -11   -1    0    0    0    0  0.00000000000E+00  0.00000000000E+00  0.45593999997E+02  0.45594000000E+02  0.51100000000E-03 0. -1.
         11   -1    0    0    0    0 -0.00000000000E+00 -0.00000000000E+00 -0.45593999997E+02  0.45594000000E+02  0.51100000000E-03 0.  1.
    9900012    2    1    2    0    0  0.65542826418E+01  0.13377885180E+02 -0.11346960501E+02  0.72461549577E+02  0.69999973011E+02 0.  0.
         12    1    1    2    0    0 -0.65542826418E+01 -0.13377885180E+02  0.11346960501E+02  0.18726450423E+02  0.00000000000E+00 0. -1.
         11    1    3    3    0    0 -0.27688733576E+01  0.16484152118E+02  0.27366872681E+01  0.16937632308E+02  0.51100000000E-03 0. -1.
        -11    1    3    3    0    0  0.20124611919E+02 -0.14983794816E+02 -0.25538951934E+02  0.35801566700E+02  0.51100000000E-03 0.  1.
         12    1    3    3    0    0 -0.10801455920E+02  0.11877527877E+02  0.11455304165E+02  0.19722350569E+02  0.00000000000E+00 0. -1.
</event>
<event>
 7    1  0.2886818E-013  0.7246159E+02  0.7816164E-02  0.1226708E+00
        -11   -1    0    0    0    0  0.00000000000E+00  0.00000000000E+00  0.45593999997E+02  0.45594000000E+02  0.51100000000E-03 0.  1.
         11   -1    0    0    0    0 -0.00000000000E+00 -0.00000000000E+00 -0.45593999997E+02  0.45594000000E+02  0.51100000000E-03 0. -1.
    9900012    2    1    2    0    0  0.10110907120E+02 -0.82332403936E+01  0.13441047766E+02  0.72461589366E+02  0.70000024844E+02 0.  0.
         12    1    1    2    0    0 -0.10110907120E+02  0.82332403936E+01 -0.13441047766E+02  0.18726410634E+02  0.00000000000E+00 0. -1.
         11    1    3    3    0    0 -0.27912080163E+01  0.68403731424E+00  0.37947255385E+01  0.47601146427E+01  0.51100000000E-03 0. -1.
        -11    1    3    3    0    0  0.18073223128E+02 -0.34654186400E+02  0.13106872014E+02  0.41223101818E+02  0.51100000000E-03 0.  1.
         12    1    3    3    0    0 -0.51711079911E+01  0.25736908692E+02 -0.34605497862E+01  0.26478372905E+02  0.00000000000E+00 0. -1.
</event>
<event>
 7    1  0.2886818E-013  0.7246154E+02  0.7816164E-02  0.1226708E+00
        -11   -1    0    0    0    0  0.00000000000E+00  0.00000000000E+00  0.45593999997E+02  0.45594000000E+02  0.51100000000E-03 0.  1.
         11   -1    0    0    0    0 -0.00000000000E+00 -0.00000000000E+00 -0.45593999997E+02  0.45594000000E+02  0.51100000000E-03 0. -1.
    9900012    2    1    2    0    0 -0.93328913212E+01 -0.66462720181E+01  0.14812313206E+02  0.72461537049E+02  0.69999956691E+02 0.  0.
         12    1    1    2    0    0  0.93328913212E+01  0.66462720181E+01 -0.14812313206E+02  0.18726462951E+02  0.00000000000E+00 0. -1.
         11    1    3    3    0    0 -0.97971107594E+00  0.90003796818E+01  0.20006764387E+00  0.90557548295E+01  0.51100000000E-03 0. -1.
        -11    1    3    3    0    0  0.20924305799E+01 -0.63856287875E+01  0.36681549330E+02  0.37291964044E+02  0.51100000000E-03 0.  1.
         12    1    3    3    0    0 -0.10445610825E+02 -0.92610229124E+01 -0.22069303768E+02  0.26113818175E+02  0.00000000000E+00 0. -1.
</event>
<event>
 7    1  0.2886818E-013  0.7246151E+02  0.7816164E-02  0.1226708E+00
        -11   -1    0    0    0    0  0.00000000000E+00  0.00000000000E+00  0.45593999997E+02  0.45594000000E+02  0.51100000000E-03 0.  1.
         11   -1    0    0    0    0 -0.00000000000E+00 -0.00000000000E+00 -0.45593999997E+02  0.45594000000E+02  0.51100000000E-03 0. -1.
    9900012    2    1    2    0    0 -0.40345815501E+01  0.21794868668E+01  0.18156365353E+02  0.72461505023E+02  0.69999914972E+02 0.  0.
         12    1    1    2    0    0  0.40345815501E+01 -0.21794868668E+01 -0.18156365353E+02  0.18726494977E+02  0.00000000000E+00 0. -1.
         11    1    3    3    0    0  0.10110175202E+02 -0.10579451651E+02 -0.27479234165E+01  0.14889309024E+02  0.51100000000E-03 0. -1.
        -11    1    3    3    0    0 -0.11582997492E+02  0.15229817981E+02  0.36695712843E+02  0.41384641208E+02  0.51100000000E-03 0.  1.
         12    1    3    3    0    0 -0.25617592605E+01 -0.24708794630E+01 -0.15791424074E+02  0.16187554791E+02  0.00000000000E+00 0. -1.
</event>
<event>
 7    1  0.2886818E-013  0.7246157E+02  0.7816164E-02  0.1226708E+00
        -11   -1    0    0    0    0  0.00000000000E+00  0.00000000000E+00  0.45593999997E+02  0.45594000000E+02  0.51100000000E-03 0.  1.
         11   -1    0    0    0    0 -0.00000000000E+00 -0.00000000000E+00 -0.45593999997E+02  0.45594000000E+02  0.51100000000E-03 0. -1.
    9900012    2    1    2    0    0 -0.15761262514E+02  0.17894647560E+01  0.99528781545E+01  0.72461565110E+02  0.69999993246E+02 0.  0.
         12    1    1    2    0    0  0.15761262514E+02 -0.17894647560E+01 -0.99528781545E+01  0.18726434890E+02  0.00000000000E+00 0. -1.
         11    1    3    3    0    0 -0.51735216374E+01  0.49278012193E+01  0.16800944389E+02  0.18257061199E+02  0.51100000000E-03 0. -1.
        -11    1    3    3    0    0  0.64321486358E+01 -0.96962526881E+01  0.19172978685E+02  0.22427504636E+02  0.51100000000E-03 0.  1.
         12    1    3    3    0    0 -0.17019889512E+02  0.65579162247E+01 -0.26021044920E+02  0.31776999275E+02  0.00000000000E+00 0. -1.
</event>
<event>
 7    1  0.2886818E-013  0.7246157E+02  0.7816164E-02  0.1226708E+00
        -11   -1    0    0    0    0  0.00000000000E+00  0.00000000000E+00  0.45593999997E+02  0.45594000000E+02  0.51100000000E-03 0.  1.
         11   -1    0    0    0    0 -0.00000000000E+00 -0.00000000000E+00 -0.45593999997E+02  0.45594000000E+02  0.51100000000E-03 0. -1.
    9900012    2    1    2    0    0  0.28087870706E+01 -0.15981026698E+02  0.93486129062E+01  0.72461573154E+02  0.70000003726E+02 0.  0.
         12    1    1    2    0    0 -0.28087870706E+01  0.15981026698E+02 -0.93486129062E+01  0.18726426846E+02  0.00000000000E+00 0. -1.
         11    1    3    3    0    0  0.36462990307E+01 -0.46497159568E+01  0.11069684699E+02  0.12548038679E+02  0.51100000000E-03 0. -1.
        -11    1    3    3    0    0  0.15418190103E+02 -0.13062972503E+02  0.22785005596E+02  0.30455185387E+02  0.51100000000E-03 0.  1.
         12    1    3    3    0    0 -0.16255702063E+02  0.17316617611E+01 -0.24506077389E+02  0.29458349088E+02  0.00000000000E+00 0. -1.
</event>
<event>
 7    1  0.2886818E-013  0.7246157E+02  0.7816164E-02  0.1226708E+00
        -11   -1    0    0    0    0  0.00000000000E+00  0.00000000000E+00  0.45593999997E+02  0.45594000000E+02  0.51100000000E-03 0. -1.
         11   -1    0    0    0    0 -0.00000000000E+00 -0.00000000000E+00 -0.45593999997E+02  0.45594000000E+02  0.51100000000E-03 0.  1.
    9900012    2    1    2    0    0  0.10793108268E+02  0.84877719313E+01 -0.12733651222E+02  0.72461565959E+02  0.69999994352E+02 0.  0.
         12    1    1    2    0    0 -0.10793108268E+02 -0.84877719313E+01  0.12733651222E+02  0.18726434041E+02  0.00000000000E+00 0. -1.
         11    1    3    3    0    0 -0.28478092420E+02  0.33639243034E+01  0.11031679541E+01  0.28697294548E+02  0.51100000000E-03 0. -1.
        -11    1    3    3    0    0  0.20487665693E+01  0.25268073941E+01  0.12929887454E+01  0.35005742699E+01  0.51100000000E-03 0.  1.
        -12    1    3    3    0    0  0.37222434119E+02  0.25970402337E+01 -0.15129807921E+02  0.40263697141E+02  0.00000000000E+00 0.  1.
</event>
<event>
 7    1  0.2886818E-013  0.7246155E+02  0.7816164E-02  0.1226708E+00
        -11   -1    0    0    0    0  0.00000000000E+00  0.00000000000E+00  0.45593999997E+02  0.45594000000E+02  0.51100000000E-03 0.  1.
         11   -1    0    0    0    0 -0.00000000000E+00 -0.00000000000E+00 -0.45593999997E+02  0.45594000000E+02  0.51100000000E-03 0. -1.
    9900012    2    1    2    0    0  0.43346978019E+01 -0.17738755445E+02  0.41505133053E+01  0.72461553180E+02  0.69999977706E+02 0.  0.
         12    1    1    2    0    0 -0.43346978019E+01  0.17738755445E+02 -0.41505133053E+01  0.18726446820E+02  0.00000000000E+00 0. -1.
         11    1    3    3    0    0 -0.11403630106E+00 -0.72196342309E+01  0.71054448728E+01  0.10130324270E+02  0.51100000000E-03 0. -1.
        -11    1    3    3    0    0 -0.26661798464E+02  0.21821419959E+01  0.62876162171E+01  0.27479944669E+02  0.51100000000E-03 0.  1.
         12    1    3    3    0    0  0.31110532567E+02 -0.12701263211E+02 -0.92425477847E+01  0.34851284242E+02  0.00000000000E+00 0. -1.
</event>
<event>
 7    1  0.2886818E-013  0.7246149E+02  0.7816164E-02  0.1226708E+00
        -11   -1    0    0    0    0  0.00000000000E+00  0.00000000000E+00  0.45593999997E+02  0.45594000000E+02  0.51100000000E-03 0.  1.
         11   -1    0    0    0    0 -0.00000000000E+00 -0.00000000000E+00 -0.45593999997E+02  0.45594000000E+02  0.51100000000E-03 0. -1.
    9900012    2    1    2    0    0  0.17412025911E+02 -0.36086517029E+01 -0.58720504559E+01  0.72461494987E+02  0.69999901898E+02 0.  0.
         12    1    1    2    0    0 -0.17412025911E+02  0.36086517029E+01  0.58720504559E+01  0.18726505013E+02  0.00000000000E+00 0. -1.
         11    1    3    3    0    0 -0.16844991618E+01  0.23596971700E+02 -0.39737508024E+01  0.23988441102E+02  0.51100000000E-03 0. -1.
        -11    1    3    3    0    0 -0.67990690994E+01 -0.73341680168E+01  0.96028461725E+01  0.13864776089E+02  0.51100000000E-03 0.  1.
        -12    1    3    3    0    0  0.25895594172E+02 -0.19871455386E+02 -0.11501145826E+02  0.34608277796E+02  0.00000000000E+00 0.  1.
</event>
<event>
 7    1  0.2886818E-013  0.7246159E+02  0.7816164E-02  0.1226708E+00
        -11   -1    0    0    0    0  0.00000000000E+00  0.00000000000E+00  0.45593999997E+02  0.45594000000E+02  0.51100000000E-03 0.  1.
         11   -1    0    0    0    0 -0.00000000000E+00 -0.00000000000E+00 -0.45593999997E+02  0.45594000000E+02  0.51100000000E-03 0. -1.
    9900012    2    1    2    0    0  0.83394335650E+01 -0.53472410188E+01  0.15891488857E+02  0.72461586655E+02  0.70000021313E+02 0.  0.
         12    1    1    2    0    0 -0.83394335650E+01  0.53472410188E+01 -0.15891488857E+02  0.18726413345E+02  0.00000000000E+00 0. -1.
         11    1    3    3    0    0  0.17367203981E+02 -0.53899973706E+01  0.28995808582E+02  0.34226141491E+02  0.51100000000E-03 0. -1.
        -11    1    3    3    0    0  0.94064940030E+01  0.44406173507E+01  0.54242150750E+01  0.11731296660E+02  0.51100000000E-03 0.  1.
         12    1    3    3    0    0 -0.18434264419E+02 -0.43978609989E+01 -0.18528534801E+02  0.26504148504E+02  0.00000000000E+00 0. -1.
</event>
<event>
 7    1  0.2886818E-013  0.7246154E+02  0.7816164E-02  0.1226708E+00
        -11   -1    0    0    0    0  0.00000000000E+00  0.00000000000E+00  0.45593999997E+02  0.45594000000E+02  0.51100000000E-03 0.  1.
         11   -1    0    0    0    0 -0.00000000000E+00 -0.00000000000E+00 -0.45593999997E+02  0.45594000000E+02  0.51100000000E-03 0. -1.
    9900012    2    1    2    0    0  0.19179914000E+01  0.12516126531E+02  0.13796670229E+02  0.72461542145E+02  0.69999963331E+02 0.  0.
         12    1    1    2    0    0 -0.19179914000E+01 -0.12516126531E+02 -0.13796670229E+02  0.18726457855E+02  0.00000000000E+00 0. -1.
         11    1    3    3    0    0 -0.13455080531E+02 -0.19465096700E+01  0.60270231119E+01  0.14871217161E+02  0.51100000000E-03 0. -1.
        -11    1    3    3    0    0 -0.19448504948E+02  0.84180989304E+01 -0.86027863945E+00  0.21209639646E+02  0.51100000000E-03 0.  1.
         12    1    3    3    0    0  0.34821576879E+02  0.60445372708E+01  0.86299257571E+01  0.36380685339E+02  0.00000000000E+00 0. -1.
</event>
<event>
 7    1  0.2886818E-013  0.7246157E+02  0.7816164E-02  0.1226708E+00
        -11   -1    0    0    0    0  0.00000000000E+00  0.00000000000E+00  0.45593999997E+02  0.45594000000E+02  0.51100000000E-03 0. -1.
         11   -1    0    0    0    0 -0.00000000000E+00 -0.00000000000E+00 -0.45593999997E+02  0.45594000000E+02  0.51100000000E-03 0.  1.
    9900012    2    1    2    0    0 -0.11277788901E+02  0.14881275810E+02 -0.14276928624E+01  0.72461569503E+02  0.69999998969E+02 0.  0.
         12    1    1    2    0    0  0.11277788901E+02 -0.14881275810E+02  0.14276928624E+01  0.18726430497E+02  0.00000000000E+00 0. -1.
         11    1    3    3    0    0 -0.58858558019E+01  0.91568389329E+01  0.82779208398E+01  0.13675341731E+02  0.51100000000E-03 0. -1.
        -11    1    3    3    0    0 -0.29073964200E+02  0.12223520280E+02  0.19575698712E+01  0.31599713961E+02  0.51100000000E-03 0.  1.
         12    1    3    3    0    0  0.23682031101E+02 -0.64990834025E+01 -0.11663183574E+02  0.27186513811E+02  0.00000000000E+00 0. -1.
</event>
<event>
 7    1  0.2886818E-013  0.7246158E+02  0.7816164E-02  0.1226708E+00
        -11   -1    0    0    0    0  0.00000000000E+00  0.00000000000E+00  0.45593999997E+02  0.45594000000E+02  0.51100000000E-03 0. -1.
         11   -1    0    0    0    0 -0.00000000000E+00 -0.00000000000E+00 -0.45593999997E+02  0.45594000000E+02  0.51100000000E-03 0.  1.
    9900012    2    1    2    0    0  0.51614931513E+01  0.17508418351E+02 -0.41824852469E+01  0.72461577289E+02  0.70000009111E+02 0.  0.
         12    1    1    2    0    0 -0.51614931513E+01 -0.17508418351E+02  0.41824852469E+01  0.18726422711E+02  0.00000000000E+00 0. -1.
         11    1    3    3    0    0 -0.10515504514E+02 -0.54334046640E+01  0.22056593148E+01  0.12040043800E+02  0.51100000000E-03 0. -1.
        -11    1    3    3    0    0  0.10047443509E+02  0.40420766474E+02 -0.30970178600E+01  0.41765787474E+02  0.51100000000E-03 0.  1.
         12    1    3    3    0    0  0.56295541563E+01 -0.17478943458E+02 -0.32911267017E+01  0.18655746015E+02  0.00000000000E+00 0. -1.
</event>
<event>
 7    1  0.2886818E-013  0.7246158E+02  0.7816164E-02  0.1226708E+00
        -11   -1    0    0    0    0  0.00000000000E+00  0.00000000000E+00  0.45593999997E+02  0.45594000000E+02  0.51100000000E-03 0.  1.
         11   -1    0    0    0    0 -0.00000000000E+00 -0.00000000000E+00 -0.45593999997E+02  0.45594000000E+02  0.51100000000E-03 0. -1.
    9900012    2    1    2    0    0  0.10494089479E+02  0.13629076715E+02  0.74027704492E+01  0.72461583994E+02  0.70000017847E+02 0.  0.
         12    1    1    2    0    0 -0.10494089479E+02 -0.13629076715E+02 -0.74027704492E+01  0.18726416006E+02  0.00000000000E+00 0. -1.
         11    1    3    3    0    0  0.88755277101E+01 -0.20134788292E+02  0.24954500464E+02  0.33270283819E+02  0.51100000000E-03 0. -1.
        -11    1    3    3    0    0 -0.70043186595E+00 -0.34814959085E+00 -0.56050673903E-01  0.78419058628E+00  0.51100000000E-03 0.  1.
        -12    1    3    3    0    0  0.23189936348E+01  0.34112014598E+02 -0.17495679341E+02  0.38407109589E+02  0.00000000000E+00 0.  1.
</event>
<event>
 7    1  0.2886818E-013  0.7246157E+02  0.7816164E-02  0.1226708E+00
        -11   -1    0    0    0    0  0.00000000000E+00  0.00000000000E+00  0.45593999997E+02  0.45594000000E+02  0.51100000000E-03 0.  1.
         11   -1    0    0    0    0 -0.00000000000E+00 -0.00000000000E+00 -0.45593999997E+02  0.45594000000E+02  0.51100000000E-03 0. -1.
    9900012    2    1    2    0    0 -0.15284738038E+02 -0.99434610895E+01  0.42642284680E+01  0.72461567351E+02  0.69999996166E+02 0.  0.
         12    1    1    2    0    0  0.15284738038E+02  0.99434610895E+01 -0.42642284680E+01  0.18726432649E+02  0.00000000000E+00 0. -1.
         11    1    3    3    0    0 -0.15745613474E+01  0.17457400437E+02 -0.20888656136E+02  0.27268590519E+02  0.51100000000E-03 0. -1.
        -11    1    3    3    0    0 -0.41841609415E+00 -0.22269755088E+00 -0.34952093301E+01  0.35272021135E+01  0.51100000000E-03 0.  1.
        -12    1    3    3    0    0 -0.13291760597E+02 -0.27178163976E+02  0.28648093934E+02  0.41665774719E+02  0.00000000000E+00 0.  1.
</event>
<event>
 7    1  0.2886818E-013  0.7246160E+02  0.7816164E-02  0.1226708E+00
        -11   -1    0    0    0    0  0.00000000000E+00  0.00000000000E+00  0.45593999997E+02  0.45594000000E+02  0.51100000000E-03 0.  1.
         11   -1    0    0    0    0 -0.00000000000E+00 -0.00000000000E+00 -0.45593999997E+02  0.45594000000E+02  0.51100000000E-03 0. -1.
    9900012    2    1    2    0    0 -0.11774018329E+02  0.79087690616E+01 -0.12227101051E+02  0.72461597895E+02  0.70000035955E+02 0.  0.
         12    1    1    2    0    0  0.11774018329E+02 -0.79087690616E+01  0.12227101051E+02  0.18726402105E+02  0.00000000000E+00 0. -1.
         11    1    3    3    0    0 -0.22211261239E+02  0.79349619335E+01 -0.85538765493E+01  0.25089291560E+02  0.51100000000E-03 0. -1.
        -11    1    3    3    0    0 -0.13728405724E+02 -0.11632614505E+02 -0.88753863727E+01  0.20063881166E+02  0.51100000000E-03 0.  1.
        -12    1    3    3    0    0  0.24165648635E+02  0.11606421633E+02  0.52021618706E+01  0.27308425168E+02  0.00000000000E+00 0.  1.
</event>
<event>
 7    1  0.2886818E-013  0.7246154E+02  0.7816164E-02  0.1226708E+00
        -11   -1    0    0    0    0  0.00000000000E+00  0.00000000000E+00  0.45593999997E+02  0.45594000000E+02  0.51100000000E-03 0.  1.
         11   -1    0    0    0    0 -0.00000000000E+00 -0.00000000000E+00 -0.45593999997E+02  0.45594000000E+02  0.51100000000E-03 0. -1.
    9900012    2    1    2    0    0  0.15736978072E+02 -0.10040223693E+02  0.14905146905E+01  0.72461542655E+02  0.69999963995E+02 0.  0.
         12    1    1    2    0    0 -0.15736978072E+02  0.10040223693E+02 -0.14905146905E+01  0.18726457345E+02  0.00000000000E+00 0. -1.
         11    1    3    3    0    0  0.31299486266E+02 -0.12410662773E+02 -0.12125132538E+02  0.35786886289E+02  0.51100000000E-03 0. -1.
        -11    1    3    3    0    0 -0.48777655595E+00 -0.72306720235E+01  0.17003797369E+02  0.18483767719E+02  0.51100000000E-03 0.  1.
        -12    1    3    3    0    0 -0.15074731638E+02  0.96011111034E+01 -0.33881501408E+01  0.18190888647E+02  0.00000000000E+00 0.  1.
</event>
<event>
 7    1  0.2886818E-013  0.7246166E+02  0.7816164E-02  0.1226708E+00
        -11   -1    0    0    0    0  0.00000000000E+00  0.00000000000E+00  0.45593999997E+02  0.45594000000E+02  0.51100000000E-03 0.  1.
         11   -1    0    0    0    0 -0.00000000000E+00 -0.00000000000E+00 -0.45593999997E+02  0.45594000000E+02  0.51100000000E-03 0. -1.
    9900012    2    1    2    0    0  0.18279628566E+01 -0.13204936836E+02  0.13151583153E+02  0.72461656404E+02  0.70000112173E+02 0.  0.
         12    1    1    2    0    0 -0.18279628566E+01  0.13204936836E+02 -0.13151583153E+02  0.18726343596E+02  0.00000000000E+00 0. -1.
         11    1    3    3    0    0 -0.20301815263E+02  0.65141343748E+01 -0.45829719038E+00  0.21326220627E+02  0.51100000000E-03 0. -1.
        -11    1    3    3    0    0  0.17451859265E+00 -0.16768289564E+02  0.21812011034E+02  0.27513084473E+02  0.51100000000E-03 0.  1.
        -12    1    3    3    0    0  0.21955259527E+02 -0.29507816470E+01 -0.82021306902E+01  0.23622351303E+02  0.00000000000E+00 0.  1.
</event>
<event>
 7    1  0.2886818E-013  0.7246154E+02  0.7816164E-02  0.1226708E+00
        -11   -1    0    0    0    0  0.00000000000E+00  0.00000000000E+00  0.45593999997E+02  0.45594000000E+02  0.51100000000E-03 0. -1.
         11   -1    0    0    0    0 -0.00000000000E+00 -0.00000000000E+00 -0.45593999997E+02  0.45594000000E+02  0.51100000000E-03 0.  1.
    9900012    2    1    2    0    0 -0.11156655596E+02 -0.61570705824E+01 -0.13722237118E+02  0.72461540811E+02  0.69999961593E+02 0.  0.
         12    1    1    2    0    0  0.11156655596E+02  0.61570705824E+01  0.13722237118E+02  0.18726459189E+02  0.00000000000E+00 0. -1.
         11    1    3    3    0    0 -0.14945895105E+02 -0.14792009764E+02  0.16854128172E+02  0.26948932633E+02  0.51100000000E-03 0. -1.
        -11    1    3    3    0    0  0.13881070788E+02 -0.62895907927E+01 -0.10328585938E+02  0.18409855141E+02  0.51100000000E-03 0.  1.
        -12    1    3    3    0    0 -0.10091831280E+02  0.14924529975E+02 -0.20247779352E+02  0.27102753038E+02  0.00000000000E+00 0.  1.
</event>
<event>
 7    1  0.2886818E-013  0.7246162E+02  0.7816164E-02  0.1226708E+00
        -11   -1    0    0    0    0  0.00000000000E+00  0.00000000000E+00  0.45593999997E+02  0.45594000000E+02  0.51100000000E-03 0. -1.
         11   -1    0    0    0    0 -0.00000000000E+00 -0.00000000000E+00 -0.45593999997E+02  0.45594000000E+02  0.51100000000E-03 0.  1.
    9900012    2    1    2    0    0 -0.80926707085E+01 -0.15053759454E+02 -0.76531244992E+01  0.72461620011E+02  0.70000064765E+02 0.  0.
         12    1    1    2    0    0  0.80926707085E+01  0.15053759454E+02  0.76531244992E+01  0.18726379989E+02  0.00000000000E+00 0. -1.
         11    1    3    3    0    0  0.74285113473E+01 -0.25837698248E+02  0.14488168677E+02  0.30539752184E+02  0.51100000000E-03 0. -1.
        -11    1    3    3    0    0  0.72975489471E+01  0.39027001654E+00  0.14994107487E+01  0.74602120731E+01  0.51100000000E-03 0.  1.
        -12    1    3    3    0    0 -0.22818731003E+02  0.10393668777E+02 -0.23640703925E+02  0.34461655754E+02  0.00000000000E+00 0.  1.
</event>
<event>
 7    1  0.2886818E-013  0.7246157E+02  0.7816164E-02  0.1226708E+00
        -11   -1    0    0    0    0  0.00000000000E+00  0.00000000000E+00  0.45593999997E+02  0.45594000000E+02  0.51100000000E-03 0.  1.
         11   -1    0    0    0    0 -0.00000000000E+00 -0.00000000000E+00 -0.45593999997E+02  0.45594000000E+02  0.51100000000E-03 0. -1.
    9900012    2    1    2    0    0 -0.31704804206E+01  0.11176323804E+02  0.14687308372E+02  0.72461569825E+02  0.69999999389E+02 0.  0.
         12    1    1    2    0    0  0.31704804206E+01 -0.11176323804E+02 -0.14687308372E+02  0.18726430175E+02  0.00000000000E+00 0. -1.
         11    1    3    3    0    0 -0.17420105357E+02 -0.99679535288E+01  0.16454447843E+02  0.25953208323E+02  0.51100000000E-03 0. -1.
        -11    1    3    3    0    0 -0.95270063986E+00 -0.65350243078E+01 -0.11673128315E+02  0.13411789818E+02  0.51100000000E-03 0.  1.
        -12    1    3    3    0    0  0.15202325576E+02  0.27679301641E+02  0.99059888437E+01  0.33096571683E+02  0.00000000000E+00 0.  1.
</event>
<event>
 7    1  0.2886818E-013  0.7246150E+02  0.7816164E-02  0.1226708E+00
        -11   -1    0    0    0    0  0.00000000000E+00  0.00000000000E+00  0.45593999997E+02  0.45594000000E+02  0.51100000000E-03 0. -1.
         11   -1    0    0    0    0 -0.00000000000E+00 -0.00000000000E+00 -0.45593999997E+02  0.45594000000E+02  0.51100000000E-03 0.  1.
    9900012    2    1    2    0    0  0.70013293685E+01 -0.11959634581E+02 -0.12594860185E+02  0.72461495379E+02  0.69999902409E+02 0.  0.
         12    1    1    2    0    0 -0.70013293685E+01  0.11959634581E+02  0.12594860185E+02  0.18726504621E+02  0.00000000000E+00 0. -1.
         11    1    3    3    0    0  0.89394984641E+01 -0.12433219397E+02 -0.19187842016E+02  0.24549396303E+02  0.51100000000E-03 0. -1.
        -11    1    3    3    0    0 -0.16415681043E+02 -0.14857864098E+02  0.13245725708E+02  0.25800774396E+02  0.51100000000E-03 0.  1.
         12    1    3    3    0    0  0.14477511947E+02  0.15331448914E+02 -0.66527438780E+01  0.22111324680E+02  0.00000000000E+00 0. -1.
</event>
<event>
 7    1  0.2886818E-013  0.7246160E+02  0.7816164E-02  0.1226708E+00
        -11   -1    0    0    0    0  0.00000000000E+00  0.00000000000E+00  0.45593999997E+02  0.45594000000E+02  0.51100000000E-03 0.  1.
         11   -1    0    0    0    0 -0.00000000000E+00 -0.00000000000E+00 -0.45593999997E+02  0.45594000000E+02  0.51100000000E-03 0. -1.
    9900012    2    1    2    0    0 -0.83034053260E+01 -0.16322818243E+02 -0.39111365122E+01  0.72461603544E+02  0.70000043314E+02 0.  0.
         12    1    1    2    0    0  0.83034053260E+01  0.16322818243E+02  0.39111365122E+01  0.18726396456E+02  0.00000000000E+00 0. -1.
         11    1    3    3    0    0 -0.74577467507E+01 -0.70016826630E+00  0.14493622749E+02  0.16314819118E+02  0.51100000000E-03 0. -1.
        -11    1    3    3    0    0 -0.21561185023E+02 -0.22523538996E+02 -0.98964438402E+01  0.32712904326E+02  0.51100000000E-03 0.  1.
         12    1    3    3    0    0  0.20715526448E+02  0.69008890186E+01 -0.85083154206E+01  0.23433880101E+02  0.00000000000E+00 0. -1.
</event>
<event>
 7    1  0.2886818E-013  0.7246160E+02  0.7816164E-02  0.1226708E+00
        -11   -1    0    0    0    0  0.00000000000E+00  0.00000000000E+00  0.45593999997E+02  0.45594000000E+02  0.51100000000E-03 0. -1.
         11   -1    0    0    0    0 -0.00000000000E+00 -0.00000000000E+00 -0.45593999997E+02  0.45594000000E+02  0.51100000000E-03 0.  1.
    9900012    2    1    2    0    0 -0.29469188691E+01 -0.16920385512E+02 -0.74628476305E+01  0.72461604953E+02  0.70000045149E+02 0.  0.
         12    1    1    2    0    0  0.29469188691E+01  0.16920385512E+02  0.74628476305E+01  0.18726395047E+02  0.00000000000E+00 0. -1.
         11    1    3    3    0    0 -0.10794182672E+01  0.16078478439E+01 -0.10529526476E+02  0.10706131260E+02  0.51100000000E-03 0. -1.
        -11    1    3    3    0    0  0.24082993021E+02 -0.12709141126E+02 -0.13529990140E+02  0.30406799478E+02  0.51100000000E-03 0.  1.
         12    1    3    3    0    0 -0.25950493623E+02 -0.58190922294E+01  0.16596668985E+02  0.31348674215E+02  0.00000000000E+00 0. -1.
</event>
<event>
 7    1  0.2886818E-013  0.7246170E+02  0.7816164E-02  0.1226708E+00
        -11   -1    0    0    0    0  0.00000000000E+00  0.00000000000E+00  0.45593999997E+02  0.45594000000E+02  0.51100000000E-03 0.  1.
         11   -1    0    0    0    0 -0.00000000000E+00 -0.00000000000E+00 -0.45593999997E+02  0.45594000000E+02  0.51100000000E-03 0. -1.
    9900012    2    1    2    0    0 -0.26062516502E+01 -0.26033614160E+01  0.18360402224E+02  0.72461697424E+02  0.70000165610E+02 0.  0.
         12    1    1    2    0    0  0.26062516502E+01  0.26033614160E+01 -0.18360402224E+02  0.18726302576E+02  0.00000000000E+00 0. -1.
         11    1    3    3    0    0  0.24857300802E+02  0.64253377774E+01 -0.75335227371E+01  0.26756762394E+02  0.51100000000E-03 0. -1.
        -11    1    3    3    0    0  0.43476385319E+01 -0.30066690855E+01  0.36054303489E+01  0.63985270224E+01  0.51100000000E-03 0.  1.
        -12    1    3    3    0    0 -0.31811190984E+02 -0.60220301079E+01  0.22288494612E+02  0.39306408008E+02  0.00000000000E+00 0.  1.
</event>
<event>
 7    1  0.2886818E-013  0.7246156E+02  0.7816164E-02  0.1226708E+00
        -11   -1    0    0    0    0  0.00000000000E+00  0.00000000000E+00  0.45593999997E+02  0.45594000000E+02  0.51100000000E-03 0. -1.
         11   -1    0    0    0    0 -0.00000000000E+00 -0.00000000000E+00 -0.45593999997E+02  0.45594000000E+02  0.51100000000E-03 0.  1.
    9900012    2    1    2    0    0  0.30278626366E+01  0.14249777946E+02 -0.11766705017E+02  0.72461562255E+02  0.69999989527E+02 0.  0.
         12    1    1    2    0    0 -0.30278626366E+01 -0.14249777946E+02  0.11766705017E+02  0.18726437745E+02  0.00000000000E+00 0. -1.
         11    1    3    3    0    0  0.73926949524E+01  0.14316222358E+02  0.66307044827E+01  0.17423329288E+02  0.51100000000E-03 0. -1.
        -11    1    3    3    0    0 -0.20005772980E+02  0.18435729003E+02 -0.13293073360E+02  0.30278917682E+02  0.51100000000E-03 0.  1.
        -12    1    3    3    0    0  0.15640940664E+02 -0.18502173415E+02 -0.51043361399E+01  0.24759315285E+02  0.00000000000E+00 0.  1.
</event>
<event>
 7    1  0.2886818E-013  0.7246161E+02  0.7816164E-02  0.1226708E+00
        -11   -1    0    0    0    0  0.00000000000E+00  0.00000000000E+00  0.45593999997E+02  0.45594000000E+02  0.51100000000E-03 0. -1.
         11   -1    0    0    0    0 -0.00000000000E+00 -0.00000000000E+00 -0.45593999997E+02  0.45594000000E+02  0.51100000000E-03 0.  1.
    9900012    2    1    2    0    0  0.11614013068E+02 -0.14666883358E+02 -0.82157987335E+00  0.72461607917E+02  0.70000049010E+02 0.  0.
         12    1    1    2    0    0 -0.11614013068E+02  0.14666883358E+02  0.82157987335E+00  0.18726392083E+02  0.00000000000E+00 0. -1.
         11    1    3    3    0    0 -0.11377782963E+02  0.15402635583E+01 -0.96825090492E+01  0.15019232295E+02  0.51100000000E-03 0. -1.
        -11    1    3    3    0    0 -0.32161618548E+01 -0.16155428931E+02 -0.14791919061E+02  0.22139161023E+02  0.51100000000E-03 0.  1.
         12    1    3    3    0    0  0.26207957886E+02 -0.51717984624E-01  0.23652848237E+02  0.35303214599E+02  0.00000000000E+00 0. -1.
</event>
<event>
 7    1  0.2886818E-013  0.7246150E+02  0.7816164E-02  0.1226708E+00
        -11   -1    0    0    0    0  0.00000000000E+00  0.00000000000E+00  0.45593999997E+02  0.45594000000E+02  0.51100000000E-03 0.  1.
         11   -1    0    0    0    0 -0.00000000000E+00 -0.00000000000E+00 -0.45593999997E+02  0.45594000000E+02  0.51100000000E-03 0. -1.
    9900012    2    1    2    0    0  0.97282572398E+01 -0.10818740332E+02  0.11789729948E+02  0.72461498364E+02  0.69999906297E+02 0.  0.
         12    1    1    2    0    0 -0.97282572398E+01  0.10818740332E+02 -0.11789729948E+02  0.18726501636E+02  0.00000000000E+00 0. -1.
         11    1    3    3    0    0 -0.15828779691E+02 -0.11264891606E+02  0.66147373085E+01  0.20523225851E+02  0.51100000000E-03 0. -1.
        -11    1    3    3    0    0  0.45135103106E+01  0.18094845774E+02 -0.93580953422E+01  0.20865501854E+02  0.51100000000E-03 0.  1.
        -12    1    3    3    0    0  0.21043526620E+02 -0.17648694500E+02  0.14533087981E+02  0.31072770659E+02  0.00000000000E+00 0.  1.
</event>
<event>
 7    1  0.2886818E-013  0.7246157E+02  0.7816164E-02  0.1226708E+00
        -11   -1    0    0    0    0  0.00000000000E+00  0.00000000000E+00  0.45593999997E+02  0.45594000000E+02  0.51100000000E-03 0.  1.
         11   -1    0    0    0    0 -0.00000000000E+00 -0.00000000000E+00 -0.45593999997E+02  0.45594000000E+02  0.51100000000E-03 0. -1.
    9900012    2    1    2    0    0 -0.42981903926E+01 -0.65034553147E+01  0.17026739909E+02  0.72461568316E+02  0.69999997423E+02 0.  0.
         12    1    1    2    0    0  0.42981903926E+01  0.65034553147E+01 -0.17026739909E+02  0.18726431684E+02  0.00000000000E+00 0. -1.
         11    1    3    3    0    0 -0.20477137174E+02  0.29692668207E+01  0.65612676055E+01  0.21706679275E+02  0.51100000000E-03 0. -1.
        -11    1    3    3    0    0 -0.81425213311E+01 -0.16714556851E+02  0.16288946114E+02  0.24718552347E+02  0.51100000000E-03 0.  1.
         12    1    3    3    0    0  0.24321468113E+02  0.72418347161E+01 -0.58234738099E+01  0.26036336694E+02  0.00000000000E+00 0. -1.
</event>
<event>
 7    1  0.2886818E-013  0.7246152E+02  0.7816164E-02  0.1226708E+00
        -11   -1    0    0    0    0  0.00000000000E+00  0.00000000000E+00  0.45593999997E+02  0.45594000000E+02  0.51100000000E-03 0. -1.
         11   -1    0    0    0    0 -0.00000000000E+00 -0.00000000000E+00 -0.45593999997E+02  0.45594000000E+02  0.51100000000E-03 0.  1.
    9900012    2    1    2    0    0  0.10086755355E+02 -0.10665831015E+02 -0.11626621149E+02  0.72461523978E+02  0.69999939665E+02 0.  0.
         12    1    1    2    0    0 -0.10086755355E+02  0.10665831015E+02  0.11626621149E+02  0.18726476022E+02  0.00000000000E+00 0. -1.
         11    1    3    3    0    0  0.87536217693E+01  0.19669165163E+02  0.32983049317E+01  0.21780283928E+02  0.51100000000E-03 0. -1.
        -11    1    3    3    0    0  0.10021696166E+02  0.55189212669E+01 -0.49431183490E+01  0.12463037562E+02  0.51100000000E-03 0.  1.
        -12    1    3    3    0    0 -0.86885625798E+01 -0.35853917445E+02 -0.99818077316E+01  0.38218202489E+02  0.00000000000E+00 0.  1.
</event>
<event>
 7    1  0.2886818E-013  0.7246162E+02  0.7816164E-02  0.1226708E+00
        -11   -1    0    0    0    0  0.00000000000E+00  0.00000000000E+00  0.45593999997E+02  0.45594000000E+02  0.51100000000E-03 0.  1.
         11   -1    0    0    0    0 -0.00000000000E+00 -0.00000000000E+00 -0.45593999997E+02  0.45594000000E+02  0.51100000000E-03 0. -1.
    9900012    2    1    2    0    0  0.11085248961E+02 -0.14818042233E+02 -0.28671065596E+01  0.72461617002E+02  0.70000060846E+02 0.  0.
         12    1    1    2    0    0 -0.11085248961E+02  0.14818042233E+02  0.28671065596E+01  0.18726382998E+02  0.00000000000E+00 0. -1.
         11    1    3    3    0    0  0.24263617593E+02 -0.30447107295E+01 -0.57320322230E+01  0.25116719447E+02  0.51100000000E-03 0. -1.
        -11    1    3    3    0    0 -0.48475199306E+01 -0.28045830532E+02 -0.16670598638E+01  0.28510456828E+02  0.51100000000E-03 0.  1.
        -12    1    3    3    0    0 -0.83308487012E+01  0.16272499028E+02  0.45319855271E+01  0.18834440728E+02  0.00000000000E+00 0.  1.
</event>
<event>
 7    1  0.2886818E-013  0.7246155E+02  0.7816164E-02  0.1226708E+00
        -11   -1    0    0    0    0  0.00000000000E+00  0.00000000000E+00  0.45593999997E+02  0.45594000000E+02  0.51100000000E-03 0. -1.
         11   -1    0    0    0    0 -0.00000000000E+00 -0.00000000000E+00 -0.45593999997E+02  0.45594000000E+02  0.51100000000E-03 0.  1.
    9900012    2    1    2    0    0 -0.17824791547E+02  0.12267795080E+01  0.56081760697E+01  0.72461552913E+02  0.69999977358E+02 0.  0.
         12    1    1    2    0    0  0.17824791547E+02 -0.12267795080E+01 -0.56081760697E+01  0.18726447087E+02  0.00000000000E+00 0. -1.
         11    1    3    3    0    0  0.66669393426E+00  0.55917860017E+01 -0.89175251472E+01  0.10546791289E+02  0.51100000000E-03 0. -1.
        -11    1    3    3    0    0 -0.38356803308E+02 -0.44500528324E+01  0.25045062095E+01  0.38695217816E+02  0.51100000000E-03 0.  1.
         12    1    3    3    0    0  0.19865317827E+02  0.85046338701E-01  0.12021195007E+02  0.23219543808E+02  0.00000000000E+00 0. -1.
</event>
<event>
 7    1  0.2886818E-013  0.7246168E+02  0.7816164E-02  0.1226708E+00
        -11   -1    0    0    0    0  0.00000000000E+00  0.00000000000E+00  0.45593999997E+02  0.45594000000E+02  0.51100000000E-03 0. -1.
         11   -1    0    0    0    0 -0.00000000000E+00 -0.00000000000E+00 -0.45593999997E+02  0.45594000000E+02  0.51100000000E-03 0.  1.
    9900012    2    1    2    0    0 -0.16448752236E+02 -0.55080628966E+01 -0.70551307021E+01  0.72461679586E+02  0.70000142373E+02 0.  0.
         12    1    1    2    0    0  0.16448752236E+02  0.55080628966E+01  0.70551307021E+01  0.18726320414E+02  0.00000000000E+00 0. -1.
         11    1    3    3    0    0  0.80950247815E+00 -0.12043111720E+02  0.88637354726E+01  0.14975234254E+02  0.51100000000E-03 0. -1.
        -11    1    3    3    0    0 -0.26014855535E+02 -0.75689038491E+01 -0.26419989719E+02  0.37842791533E+02  0.51100000000E-03 0.  1.
         12    1    3    3    0    0  0.87566008202E+01  0.14103952673E+02  0.10501123544E+02  0.19643653800E+02  0.00000000000E+00 0. -1.
</event>
<event>
 7    1  0.2886818E-013  0.7246175E+02  0.7816164E-02  0.1226708E+00
        -11   -1    0    0    0    0  0.00000000000E+00  0.00000000000E+00  0.45593999997E+02  0.45594000000E+02  0.51100000000E-03 0.  1.
         11   -1    0    0    0    0 -0.00000000000E+00 -0.00000000000E+00 -0.45593999997E+02  0.45594000000E+02  0.51100000000E-03 0. -1.
    9900012    2    1    2    0    0 -0.75092748257E+01 -0.61980528733E+01  0.15995851904E+02  0.72461752486E+02  0.70000237338E+02 0.  0.
         12    1    1    2    0    0  0.75092748257E+01  0.61980528733E+01 -0.15995851904E+02  0.18726247514E+02  0.00000000000E+00 0. -1.
         11    1    3    3    0    0 -0.68400257822E+01 -0.73467505758E+01 -0.23192664171E+02  0.25271730616E+02  0.51100000000E-03 0. -1.
        -11    1    3    3    0    0  0.63281181457E+01  0.59106711336E+01  0.17855507724E+01  0.88413406414E+01  0.51100000000E-03 0.  1.
        -12    1    3    3    0    0 -0.69973671893E+01 -0.47619734311E+01  0.37402965302E+02  0.38348681228E+02  0.00000000000E+00 0.  1.
</event>
<event>
 7    1  0.2886818E-013  0.7246198E+02  0.7816164E-02  0.1226707E+00
        -11   -1    0    0    0    0  0.00000000000E+00  0.00000000000E+00  0.45593999997E+02  0.45594000000E+02  0.51100000000E-03 0.  1.
         11   -1    0    0    0    0 -0.00000000000E+00 -0.00000000000E+00 -0.45593999997E+02  0.45594000000E+02  0.51100000000E-03 0. -1.
    9900012    2    1    2    0    0  0.18347835410E+02  0.34738464152E+01 -0.13975717716E+01  0.72461978533E+02  0.70000531804E+02 0.  0.
         12    1    1    2    0    0 -0.18347835410E+02 -0.34738464152E+01  0.13975717716E+01  0.18726021467E+02  0.00000000000E+00 0. -1.
         11    1    3    3    0    0 -0.19872849660E+02  0.67532596184E+01 -0.48261779246E+01  0.21536681794E+02  0.51100000000E-03 0. -1.
        -11    1    3    3    0    0  0.27189520716E+01  0.10038615896E+02 -0.57897133895E+01  0.11903247073E+02  0.51100000000E-03 0.  1.
        -12    1    3    3    0    0  0.35501732998E+02 -0.13318029100E+02  0.92183195425E+01  0.39022049666E+02  0.00000000000E+00 0.  1.
</event>
<event>
 7    1  0.2886818E-013  0.7246154E+02  0.7816164E-02  0.1226708E+00
        -11   -1    0    0    0    0  0.00000000000E+00  0.00000000000E+00  0.45593999997E+02  0.45594000000E+02  0.51100000000E-03 0. -1.
         11   -1    0    0    0    0 -0.00000000000E+00 -0.00000000000E+00 -0.45593999997E+02  0.45594000000E+02  0.51100000000E-03 0.  1.
    9900012    2    1    2    0    0 -0.65330334628E+01 -0.28250323304E+01 -0.17321054776E+02  0.72461540846E+02  0.69999961638E+02 0.  0.
         12    1    1    2    0    0  0.65330334628E+01  0.28250323304E+01  0.17321054776E+02  0.18726459154E+02  0.00000000000E+00 0. -1.
         11    1    3    3    0    0  0.57749630286E+01 -0.83918237111E+01 -0.37473723368E+01  0.10854294213E+02  0.51100000000E-03 0. -1.
        -11    1    3    3    0    0 -0.13641168193E+02 -0.19657412994E+02 -0.24356267906E+02  0.34142687971E+02  0.51100000000E-03 0.  1.
         12    1    3    3    0    0  0.13331717019E+01  0.25224204375E+02  0.10782585467E+02  0.27464558662E+02  0.00000000000E+00 0. -1.
</event>
<event>
 7    1  0.2886818E-013  0.7246125E+02  0.7816164E-02  0.1226709E+00
        -11   -1    0    0    0    0  0.00000000000E+00  0.00000000000E+00  0.45593999997E+02  0.45594000000E+02  0.51100000000E-03 0. -1.
         11   -1    0    0    0    0 -0.00000000000E+00 -0.00000000000E+00 -0.45593999997E+02  0.45594000000E+02  0.51100000000E-03 0.  1.
    9900012    2    1    2    0    0 -0.55174040072E+01  0.34197285545E+01  0.17565729876E+02  0.72461250244E+02  0.69999583074E+02 0.  0.
         12    1    1    2    0    0  0.55174040072E+01 -0.34197285545E+01 -0.17565729876E+02  0.18726749756E+02  0.00000000000E+00 0. -1.
         11    1    3    3    0    0  0.90833088107E+01  0.12339550521E+02 -0.13163261098E-01  0.15322244598E+02  0.51100000000E-03 0. -1.
        -11    1    3    3    0    0 -0.17291318395E+01 -0.29676621247E+02  0.12180968165E+02  0.32125810982E+02  0.51100000000E-03 0.  1.
         12    1    3    3    0    0 -0.12871580978E+02  0.20756799281E+02  0.53979249714E+01  0.25013194663E+02  0.00000000000E+00 0. -1.
</event>
<event>
 7    1  0.2886818E-013  0.7246161E+02  0.7816164E-02  0.1226708E+00
        -11   -1    0    0    0    0  0.00000000000E+00  0.00000000000E+00  0.45593999997E+02  0.45594000000E+02  0.51100000000E-03 0. -1.
         11   -1    0    0    0    0 -0.00000000000E+00 -0.00000000000E+00 -0.45593999997E+02  0.45594000000E+02  0.51100000000E-03 0.  1.
    9900012    2    1    2    0    0 -0.15187623683E+02  0.11469393570E+01 -0.10894880672E+02  0.72461606651E+02  0.70000047361E+02 0.  0.
         12    1    1    2    0    0  0.15187623683E+02 -0.11469393570E+01  0.10894880672E+02  0.18726393349E+02  0.00000000000E+00 0. -1.
         11    1    3    3    0    0  0.83272791346E+01  0.79251239480E+01 -0.14414978337E+02  0.18437536932E+02  0.51100000000E-03 0. -1.
        -11    1    3    3    0    0  0.12885271879E+02  0.56804464867E+01 -0.43816582132E+01  0.14747767039E+02  0.51100000000E-03 0.  1.
        -12    1    3    3    0    0 -0.36400174696E+02 -0.12458631078E+02  0.79017558782E+01  0.39276302680E+02  0.00000000000E+00 0.  1.
</event>
<event>
 7    1  0.2886818E-013  0.7246157E+02  0.7816164E-02  0.1226708E+00
        -11   -1    0    0    0    0  0.00000000000E+00  0.00000000000E+00  0.45593999997E+02  0.45594000000E+02  0.51100000000E-03 0. -1.
         11   -1    0    0    0    0 -0.00000000000E+00 -0.00000000000E+00 -0.45593999997E+02  0.45594000000E+02  0.51100000000E-03 0.  1.
    9900012    2    1    2    0    0  0.10745731878E+02 -0.10355470738E+02 -0.11312493186E+02  0.72461574023E+02  0.70000004858E+02 0.  0.
         12    1    1    2    0    0 -0.10745731878E+02  0.10355470738E+02  0.11312493186E+02  0.18726425977E+02  0.00000000000E+00 0. -1.
         11    1    3    3    0    0  0.82084162615E+01 -0.40946822592E+01 -0.12397267263E+02  0.15421956951E+02  0.51100000000E-03 0. -1.
        -11    1    3    3    0    0  0.71231618671E+00  0.15975302331E+02 -0.20498041463E+02  0.25997834198E+02  0.51100000000E-03 0.  1.
         12    1    3    3    0    0  0.18249994293E+01 -0.22236090809E+02  0.21582815541E+02  0.31041782875E+02  0.00000000000E+00 0. -1.
</event>
<event>
 7    1  0.2886818E-013  0.7246156E+02  0.7816164E-02  0.1226708E+00
        -11   -1    0    0    0    0  0.00000000000E+00  0.00000000000E+00  0.45593999997E+02  0.45594000000E+02  0.51100000000E-03 0. -1.
         11   -1    0    0    0    0 -0.00000000000E+00 -0.00000000000E+00 -0.45593999997E+02  0.45594000000E+02  0.51100000000E-03 0.  1.
    9900012    2    1    2    0    0 -0.67527388044E+01  0.60362587730E+01 -0.16390353955E+02  0.72461558691E+02  0.69999984884E+02 0.  0.
         12    1    1    2    0    0  0.67527388044E+01 -0.60362587730E+01  0.16390353955E+02  0.18726441309E+02  0.00000000000E+00 0. -1.
         11    1    3    3    0    0 -0.22798489548E+02 -0.19939066754E+02 -0.88816308081E+01  0.31562966824E+02  0.51100000000E-03 0. -1.
        -11    1    3    3    0    0  0.16662268957E+01  0.20064790743E+00  0.75711001526E+01  0.77548777832E+01  0.51100000000E-03 0.  1.
        -12    1    3    3    0    0  0.14379523848E+02  0.25774677620E+02 -0.15079823299E+02  0.33143714083E+02  0.00000000000E+00 0.  1.
</event>
<event>
 7    1  0.2886818E-013  0.7246157E+02  0.7816164E-02  0.1226708E+00
        -11   -1    0    0    0    0  0.00000000000E+00  0.00000000000E+00  0.45593999997E+02  0.45594000000E+02  0.51100000000E-03 0.  1.
         11   -1    0    0    0    0 -0.00000000000E+00 -0.00000000000E+00 -0.45593999997E+02  0.45594000000E+02  0.51100000000E-03 0. -1.
    9900012    2    1    2    0    0  0.78756044070E+01 -0.13496210097E+02 -0.10320188371E+02  0.72461571623E+02  0.70000001730E+02 0.  0.
         12    1    1    2    0    0 -0.78756044070E+01  0.13496210097E+02  0.10320188371E+02  0.18726428377E+02  0.00000000000E+00 0. -1.
         11    1    3    3    0    0  0.22594419132E+02 -0.64168371665E+00 -0.22884839985E+02  0.32165749413E+02  0.51100000000E-03 0. -1.
        -11    1    3    3    0    0  0.81162010662E+01 -0.27218828989E+01  0.12697089276E+02  0.15313309329E+02  0.51100000000E-03 0.  1.
        -12    1    3    3    0    0 -0.22835015791E+02 -0.10132643482E+02 -0.13243766175E+00  0.24982512881E+02  0.00000000000E+00 0.  1.
</event>
<event>
 7    1  0.2886818E-013  0.7246155E+02  0.7816164E-02  0.1226708E+00
        -11   -1    0    0    0    0  0.00000000000E+00  0.00000000000E+00  0.45593999997E+02  0.45594000000E+02  0.51100000000E-03 0.  1.
         11   -1    0    0    0    0 -0.00000000000E+00 -0.00000000000E+00 -0.45593999997E+02  0.45594000000E+02  0.51100000000E-03 0. -1.
    9900012    2    1    2    0    0 -0.12751627691E+02 -0.12381281561E+02  0.58974537702E+01  0.72461545374E+02  0.69999967537E+02 0.  0.
         12    1    1    2    0    0  0.12751627691E+02  0.12381281561E+02 -0.58974537702E+01  0.18726454626E+02  0.00000000000E+00 0. -1.
         11    1    3    3    0    0  0.40544031010E+01  0.86093796196E+01  0.13242299326E+02  0.16306995237E+02  0.51100000000E-03 0. -1.
        -11    1    3    3    0    0  0.12661566005E+02 -0.21329418393E+02  0.28585719981E+01  0.24968595811E+02  0.51100000000E-03 0.  1.
        -12    1    3    3    0    0 -0.29467596797E+02  0.33875721155E+00 -0.10203417554E+02  0.31185954326E+02  0.00000000000E+00 0.  1.
</event>
<event>
 7    1  0.2886818E-013  0.7246158E+02  0.7816164E-02  0.1226708E+00
        -11   -1    0    0    0    0  0.00000000000E+00  0.00000000000E+00  0.45593999997E+02  0.45594000000E+02  0.51100000000E-03 0.  1.
         11   -1    0    0    0    0 -0.00000000000E+00 -0.00000000000E+00 -0.45593999997E+02  0.45594000000E+02  0.51100000000E-03 0. -1.
    9900012    2    1    2    0    0 -0.29519084461E+01 -0.18441677262E+02 -0.13673508532E+01  0.72461578236E+02  0.70000010346E+02 0.  0.
         12    1    1    2    0    0  0.29519084461E+01  0.18441677262E+02  0.13673508532E+01  0.18726421764E+02  0.00000000000E+00 0. -1.
         11    1    3    3    0    0 -0.83874652740E+01  0.19251041569E+02 -0.14366401442E+02  0.25442988540E+02  0.51100000000E-03 0. -1.
        -11    1    3    3    0    0 -0.70435353012E+01 -0.20849223130E+02 -0.62839780178E+00  0.22015821100E+02  0.51100000000E-03 0.  1.
        -12    1    3    3    0    0  0.12479092129E+02 -0.16843495702E+02  0.13627448390E+02  0.25002768595E+02  0.00000000000E+00 0.  1.
</event>
<event>
 7    1  0.2886818E-013  0.7246169E+02  0.7816164E-02  0.1226708E+00
        -11   -1    0    0    0    0  0.00000000000E+00  0.00000000000E+00  0.45593999997E+02  0.45594000000E+02  0.51100000000E-03 0.  1.
         11   -1    0    0    0    0 -0.00000000000E+00 -0.00000000000E+00 -0.45593999997E+02  0.45594000000E+02  0.51100000000E-03 0. -1.
    9900012    2    1    2    0    0 -0.27069560877E+01  0.18397897949E+02 -0.22055021995E+01  0.72461694968E+02  0.70000162410E+02 0.  0.
         12    1    1    2    0    0  0.27069560877E+01 -0.18397897949E+02  0.22055021995E+01  0.18726305032E+02  0.00000000000E+00 0. -1.
         11    1    3    3    0    0 -0.19719590407E+02  0.11405116481E+02 -0.21564579961E+02  0.31368296684E+02  0.51100000000E-03 0. -1.
        -11    1    3    3    0    0 -0.17915551472E+01 -0.10271540057E+02  0.33073421073E+01  0.10938588440E+02  0.51100000000E-03 0.  1.
        -12    1    3    3    0    0  0.18804189466E+02  0.17264321525E+02  0.16051735654E+02  0.30154809843E+02  0.00000000000E+00 0.  1.
</event>
<event>
 7    1  0.2886818E-013  0.7246154E+02  0.7816164E-02  0.1226708E+00
        -11   -1    0    0    0    0  0.00000000000E+00  0.00000000000E+00  0.45593999997E+02  0.45594000000E+02  0.51100000000E-03 0.  1.
         11   -1    0    0    0    0 -0.00000000000E+00 -0.00000000000E+00 -0.45593999997E+02  0.45594000000E+02  0.51100000000E-03 0. -1.
    9900012    2    1    2    0    0  0.78350847730E+01  0.14288049763E+02  0.92273173665E+01  0.72461539971E+02  0.69999960498E+02 0.  0.
         12    1    1    2    0    0 -0.78350847730E+01 -0.14288049763E+02 -0.92273173665E+01  0.18726460029E+02  0.00000000000E+00 0. -1.
         11    1    3    3    0    0  0.43840058850E+01  0.11292332445E+02  0.15568820771E+02  0.19726237860E+02  0.51100000000E-03 0. -1.
        -11    1    3    3    0    0 -0.63939415232E+01  0.16879107865E+02  0.16361141939E+02  0.24361316392E+02  0.51100000000E-03 0.  1.
         12    1    3    3    0    0  0.98450204112E+01 -0.13883390547E+02 -0.22702645344E+02  0.28373985719E+02  0.00000000000E+00 0. -1.
</event>
<event>
 7    1  0.2886818E-013  0.7246158E+02  0.7816164E-02  0.1226708E+00
        -11   -1    0    0    0    0  0.00000000000E+00  0.00000000000E+00  0.45593999997E+02  0.45594000000E+02  0.51100000000E-03 0. -1.
         11   -1    0    0    0    0 -0.00000000000E+00 -0.00000000000E+00 -0.45593999997E+02  0.45594000000E+02  0.51100000000E-03 0.  1.
    9900012    2    1    2    0    0  0.62417779162E+01  0.12633822659E+02 -0.12333110549E+02  0.72461577962E+02  0.70000009988E+02 0.  0.
         12    1    1    2    0    0 -0.62417779162E+01 -0.12633822659E+02  0.12333110549E+02  0.18726422038E+02  0.00000000000E+00 0. -1.
         11    1    3    3    0    0  0.43839984018E+01  0.60805959352E+01  0.20731894713E+02  0.22045510826E+02  0.51100000000E-03 0.  1.
        -11    1    3    3    0    0 -0.74942972469E+01 -0.47258493289E+01  0.46134056804E+01  0.99890768011E+01  0.51100000000E-03 0. -1.
        -12    1    3    3    0    0  0.93520767614E+01  0.11279076053E+02 -0.37678410943E+02  0.40426990335E+02  0.00000000000E+00 0.  1.
</event>
<event>
 7    1  0.2886818E-013  0.7246156E+02  0.7816164E-02  0.1226708E+00
        -11   -1    0    0    0    0  0.00000000000E+00  0.00000000000E+00  0.45593999997E+02  0.45594000000E+02  0.51100000000E-03 0. -1.
         11   -1    0    0    0    0 -0.00000000000E+00 -0.00000000000E+00 -0.45593999997E+02  0.45594000000E+02  0.51100000000E-03 0.  1.
    9900012    2    1    2    0    0 -0.12098161265E+02  0.54104256377E+01 -0.13230323743E+02  0.72461556720E+02  0.69999982317E+02 0.  0.
         12    1    1    2    0    0  0.12098161265E+02 -0.54104256377E+01  0.13230323743E+02  0.18726443280E+02  0.00000000000E+00 0. -1.
         11    1    3    3    0    0 -0.99698339054E+01  0.35802911254E+01  0.10737049786E+02  0.15083113439E+02  0.51100000000E-03 0. -1.
        -11    1    3    3    0    0 -0.24135687079E+01 -0.24418845146E+02 -0.51297898641E+01  0.25068307811E+02  0.51100000000E-03 0.  1.
         12    1    3    3    0    0  0.28524134863E+00  0.26248979658E+02 -0.18837583666E+02  0.32310135470E+02  0.00000000000E+00 0. -1.
</event>
<event>
 7    1  0.2886818E-013  0.7246169E+02  0.7816164E-02  0.1226708E+00
        -11   -1    0    0    0    0  0.00000000000E+00  0.00000000000E+00  0.45593999997E+02  0.45594000000E+02  0.51100000000E-03 0.  1.
         11   -1    0    0    0    0 -0.00000000000E+00 -0.00000000000E+00 -0.45593999997E+02  0.45594000000E+02  0.51100000000E-03 0. -1.
    9900012    2    1    2    0    0 -0.16753351366E+02 -0.83619960494E+01 -0.27709246546E+00  0.72461693900E+02  0.70000161019E+02 0.  0.
         12    1    1    2    0    0  0.16753351366E+02  0.83619960494E+01  0.27709246546E+00  0.18726306100E+02  0.00000000000E+00 0. -1.
         11    1    3    3    0    0  0.11842549842E+01  0.10896795362E+02  0.26301117403E+02  0.28493707830E+02  0.51100000000E-03 0. -1.
        -11    1    3    3    0    0  0.22115184444E+01 -0.11070092006E+02 -0.25790518639E+01  0.11579691690E+02  0.51100000000E-03 0.  1.
        -12    1    3    3    0    0 -0.20149124794E+02 -0.81886994056E+01 -0.23999158004E+02  0.32388294380E+02  0.00000000000E+00 0.  1.
</event>
<event>
 7    1  0.2886818E-013  0.7246138E+02  0.7816164E-02  0.1226709E+00
        -11   -1    0    0    0    0  0.00000000000E+00  0.00000000000E+00  0.45593999997E+02  0.45594000000E+02  0.51100000000E-03 0.  1.
         11   -1    0    0    0    0 -0.00000000000E+00 -0.00000000000E+00 -0.45593999997E+02  0.45594000000E+02  0.51100000000E-03 0. -1.
    9900012    2    1    2    0    0  0.14486828513E+02  0.71512800814E+01 -0.94698063664E+01  0.72461381518E+02  0.69999754083E+02 0.  0.
         12    1    1    2    0    0 -0.14486828513E+02 -0.71512800814E+01  0.94698063664E+01  0.18726618482E+02  0.00000000000E+00 0. -1.
         11    1    3    3    0    0  0.12862456823E+02 -0.22144591024E+02 -0.67323218715E+00  0.25617941935E+02  0.51100000000E-03 0. -1.
        -11    1    3    3    0    0  0.28953554034E+00 -0.64524197135E+01 -0.89900497041E+01  0.11069712956E+02  0.51100000000E-03 0.  1.
        -12    1    3    3    0    0  0.13348361497E+01  0.35748290819E+02  0.19347552494E+00  0.35773726627E+02  0.00000000000E+00 0.  1.
</event>
<event>
 7    1  0.2886818E-013  0.7246152E+02  0.7816164E-02  0.1226708E+00
        -11   -1    0    0    0    0  0.00000000000E+00  0.00000000000E+00  0.45593999997E+02  0.45594000000E+02  0.51100000000E-03 0.  1.
         11   -1    0    0    0    0 -0.00000000000E+00 -0.00000000000E+00 -0.45593999997E+02  0.45594000000E+02  0.51100000000E-03 0. -1.
    9900012    2    1    2    0    0 -0.93306266180E+01  0.95024276243E+01  0.13165272154E+02  0.72461518357E+02  0.69999932342E+02 0.  0.
         12    1    1    2    0    0  0.93306266180E+01 -0.95024276243E+01 -0.13165272154E+02  0.18726481643E+02  0.00000000000E+00 0. -1.
         11    1    3    3    0    0  0.82530083802E+01 -0.90495592728E+01  0.77361228962E+00  0.12272128853E+02  0.51100000000E-03 0. -1.
        -11    1    3    3    0    0 -0.20876835034E+02 -0.64917330191E+01 -0.12115292093E+02  0.24995302387E+02  0.51100000000E-03 0.  1.
         12    1    3    3    0    0  0.32932000360E+01  0.25043719916E+02  0.24506951958E+02  0.35194087117E+02  0.00000000000E+00 0. -1.
</event>
<event>
 7    1  0.2886818E-013  0.7246157E+02  0.7816164E-02  0.1226708E+00
        -11   -1    0    0    0    0  0.00000000000E+00  0.00000000000E+00  0.45593999997E+02  0.45594000000E+02  0.51100000000E-03 0.  1.
         11   -1    0    0    0    0 -0.00000000000E+00 -0.00000000000E+00 -0.45593999997E+02  0.45594000000E+02  0.51100000000E-03 0. -1.
    9900012    2    1    2    0    0  0.19047226770E+01 -0.77490307992E+01  0.16941189913E+02  0.72461565143E+02  0.69999993289E+02 0.  0.
         12    1    1    2    0    0 -0.19047226770E+01  0.77490307992E+01 -0.16941189913E+02  0.18726434857E+02  0.00000000000E+00 0. -1.
         11    1    3    3    0    0  0.18356442861E+01  0.18145419872E+02  0.10228582805E+02  0.20910517898E+02  0.51100000000E-03 0. -1.
        -11    1    3    3    0    0  0.10583169513E+02  0.37970059426E+01  0.15221491190E+02  0.18923914114E+02  0.51100000000E-03 0.  1.
        -12    1    3    3    0    0 -0.10514091122E+02 -0.29691456614E+02 -0.85088840827E+01  0.32627133131E+02  0.00000000000E+00 0.  1.
</event>
<event>
 7    1  0.2886818E-013  0.7246156E+02  0.7816164E-02  0.1226708E+00
        -11   -1    0    0    0    0  0.00000000000E+00  0.00000000000E+00  0.45593999997E+02  0.45594000000E+02  0.51100000000E-03 0.  1.
         11   -1    0    0    0    0 -0.00000000000E+00 -0.00000000000E+00 -0.45593999997E+02  0.45594000000E+02  0.51100000000E-03 0. -1.
    9900012    2    1    2    0    0 -0.12488532981E+01 -0.17149510698E+02 -0.74171505952E+01  0.72461562147E+02  0.69999989386E+02 0.  0.
         12    1    1    2    0    0  0.12488532981E+01  0.17149510698E+02  0.74171505952E+01  0.18726437853E+02  0.00000000000E+00 0. -1.
         11    1    3    3    0    0 -0.88324689502E+01 -0.19102497827E+02 -0.22401925707E+02  0.30737016879E+02  0.51100000000E-03 0. -1.
        -11    1    3    3    0    0  0.13417706635E+02  0.12632281909E+02 -0.42979664228E+01  0.18923052428E+02  0.51100000000E-03 0.  1.
         12    1    3    3    0    0 -0.58340909828E+01 -0.10679294780E+02  0.19282741535E+02  0.22801492839E+02  0.00000000000E+00 0. -1.
</event>
<event>
 7    1  0.2886818E-013  0.7246163E+02  0.7816164E-02  0.1226708E+00
        -11   -1    0    0    0    0  0.00000000000E+00  0.00000000000E+00  0.45593999997E+02  0.45594000000E+02  0.51100000000E-03 0.  1.
         11   -1    0    0    0    0 -0.00000000000E+00 -0.00000000000E+00 -0.45593999997E+02  0.45594000000E+02  0.51100000000E-03 0. -1.
    9900012    2    1    2    0    0  0.49978584935E+01 -0.84311599473E+00  0.18027414824E+02  0.72461625034E+02  0.70000071309E+02 0.  0.
         12    1    1    2    0    0 -0.49978584935E+01  0.84311599473E+00 -0.18027414824E+02  0.18726374966E+02  0.00000000000E+00 0. -1.
         11    1    3    3    0    0  0.27003596597E+01 -0.39843024158E+01 -0.20504617514E+02  0.21061954983E+02  0.51100000000E-03 0. -1.
        -11    1    3    3    0    0  0.14370970770E+02 -0.41487916705E+01  0.63253918918E+01  0.16240315762E+02  0.51100000000E-03 0.  1.
        -12    1    3    3    0    0 -0.12073471936E+02  0.72899780916E+01  0.32206640447E+02  0.35159354290E+02  0.00000000000E+00 0.  1.
</event>
<event>
 7    1  0.2886818E-013  0.7246230E+02  0.7816164E-02  0.1226706E+00
        -11   -1    0    0    0    0  0.00000000000E+00  0.00000000000E+00  0.45593999997E+02  0.45594000000E+02  0.51100000000E-03 0.  1.
         11   -1    0    0    0    0 -0.00000000000E+00 -0.00000000000E+00 -0.45593999997E+02  0.45594000000E+02  0.51100000000E-03 0. -1.
    9900012    2    1    2    0    0 -0.10344487190E+02  0.15509341489E+02 -0.17617575662E+01  0.72462298988E+02  0.70000949252E+02 0.  0.
         12    1    1    2    0    0  0.10344487190E+02 -0.15509341489E+02  0.17617575662E+01  0.18725701012E+02  0.00000000000E+00 0. -1.
         11    1    3    3    0    0  0.11716462057E+02  0.18607964557E+02  0.50348583517E+01  0.22558404796E+02  0.51100000000E-03 0. -1.
        -11    1    3    3    0    0 -0.97194387898E+01  0.35083459787E+01  0.18386661181E+02  0.21091355849E+02  0.51100000000E-03 0.  1.
         12    1    3    3    0    0 -0.12341510457E+02 -0.66069690461E+01 -0.25183277099E+02  0.28812538343E+02  0.00000000000E+00 0. -1.
</event>
<event>
 7    1  0.2886818E-013  0.7246157E+02  0.7816164E-02  0.1226708E+00
        -11   -1    0    0    0    0  0.00000000000E+00  0.00000000000E+00  0.45593999997E+02  0.45594000000E+02  0.51100000000E-03 0.  1.
         11   -1    0    0    0    0 -0.00000000000E+00 -0.00000000000E+00 -0.45593999997E+02  0.45594000000E+02  0.51100000000E-03 0. -1.
    9900012    2    1    2    0    0 -0.18128246642E+02  0.45580014446E+01  0.11271993186E+01  0.72461567297E+02  0.69999996095E+02 0.  0.
         12    1    1    2    0    0  0.18128246642E+02 -0.45580014446E+01 -0.11271993186E+01  0.18726432703E+02  0.00000000000E+00 0. -1.
         11    1    3    3    0    0 -0.16737990759E+02 -0.16982815143E+02 -0.18433215368E+01  0.23915981673E+02  0.51100000000E-03 0.  1.
        -11    1    3    3    0    0 -0.19755224622E+02  0.14216377575E+02  0.11613274547E+02  0.26967432900E+02  0.51100000000E-03 0. -1.
        -12    1    3    3    0    0  0.18364968739E+02  0.73244390123E+01 -0.86427536917E+01  0.21578152725E+02  0.00000000000E+00 0.  1.
</event>
<event>
 7    1  0.2886818E-013  0.7246156E+02  0.7816164E-02  0.1226708E+00
        -11   -1    0    0    0    0  0.00000000000E+00  0.00000000000E+00  0.45593999997E+02  0.45594000000E+02  0.51100000000E-03 0.  1.
         11   -1    0    0    0    0 -0.00000000000E+00 -0.00000000000E+00 -0.45593999997E+02  0.45594000000E+02  0.51100000000E-03 0. -1.
    9900012    2    1    2    0    0 -0.11131662352E+02  0.14076011641E+02  0.53508289118E+01  0.72461564662E+02  0.69999992662E+02 0.  0.
         12    1    1    2    0    0  0.11131662352E+02 -0.14076011641E+02 -0.53508289118E+01  0.18726435338E+02  0.00000000000E+00 0. -1.
         11    1    3    3    0    0  0.72186775832E+01  0.12983831003E+02  0.17221272501E+02  0.22743381463E+02  0.51100000000E-03 0. -1.
        -11    1    3    3    0    0 -0.10960334197E+02 -0.67372234444E-01  0.16815895199E+02  0.20072563273E+02  0.51100000000E-03 0.  1.
         12    1    3    3    0    0 -0.73900057381E+01  0.11595528729E+01 -0.28686338789E+02  0.29645619926E+02  0.00000000000E+00 0. -1.
</event>
<event>
 7    1  0.2886818E-013  0.7246159E+02  0.7816164E-02  0.1226708E+00
        -11   -1    0    0    0    0  0.00000000000E+00  0.00000000000E+00  0.45593999997E+02  0.45594000000E+02  0.51100000000E-03 0.  1.
         11   -1    0    0    0    0 -0.00000000000E+00 -0.00000000000E+00 -0.45593999997E+02  0.45594000000E+02  0.51100000000E-03 0. -1.
    9900012    2    1    2    0    0 -0.24208914347E+00  0.13520311261E+02  0.12954580610E+02  0.72461585968E+02  0.70000020417E+02 0.  0.
         12    1    1    2    0    0  0.24208914347E+00 -0.13520311261E+02 -0.12954580610E+02  0.18726414032E+02  0.00000000000E+00 0. -1.
         11    1    3    3    0    0  0.36216001661E+01  0.33323799149E+00  0.21905371876E+01  0.42456435029E+01  0.51100000000E-03 0. -1.
        -11    1    3    3    0    0  0.20212451814E+02  0.30786868542E+02  0.10845843111E+02  0.38392796148E+02  0.51100000000E-03 0.  1.
         12    1    3    3    0    0 -0.24076141124E+02 -0.17599795273E+02 -0.81799688765E-01  0.29823146317E+02  0.00000000000E+00 0. -1.
</event>
<event>
 7    1  0.2886818E-013  0.7246158E+02  0.7816164E-02  0.1226708E+00
        -11   -1    0    0    0    0  0.00000000000E+00  0.00000000000E+00  0.45593999997E+02  0.45594000000E+02  0.51100000000E-03 0. -1.
         11   -1    0    0    0    0 -0.00000000000E+00 -0.00000000000E+00 -0.45593999997E+02  0.45594000000E+02  0.51100000000E-03 0.  1.
    9900012    2    1    2    0    0  0.16496923112E+02 -0.72263011461E+01  0.51294070176E+01  0.72461582383E+02  0.70000015748E+02 0.  0.
         12    1    1    2    0    0 -0.16496923112E+02  0.72263011461E+01 -0.51294070176E+01  0.18726417617E+02  0.00000000000E+00 0. -1.
         11    1    3    3    0    0  0.34818240453E+02 -0.35138632836E+00  0.14279924125E+02  0.37634420068E+02  0.51100000000E-03 0. -1.
        -11    1    3    3    0    0  0.37838827999E+01  0.43114882410E+01  0.37912322035E+01  0.68760556846E+01  0.51100000000E-03 0.  1.
        -12    1    3    3    0    0 -0.22105200141E+02 -0.11186403059E+02 -0.12941749311E+02  0.27951106631E+02  0.00000000000E+00 0.  1.
</event>
<event>
 7    1  0.2886818E-013  0.7246151E+02  0.7816164E-02  0.1226708E+00
        -11   -1    0    0    0    0  0.00000000000E+00  0.00000000000E+00  0.45593999997E+02  0.45594000000E+02  0.51100000000E-03 0.  1.
         11   -1    0    0    0    0 -0.00000000000E+00 -0.00000000000E+00 -0.45593999997E+02  0.45594000000E+02  0.51100000000E-03 0. -1.
    9900012    2    1    2    0    0 -0.27409666702E+01 -0.17645750179E+02  0.56387924598E+01  0.72461511325E+02  0.69999923182E+02 0.  0.
         12    1    1    2    0    0  0.27409666702E+01  0.17645750179E+02 -0.56387924598E+01  0.18726488675E+02  0.00000000000E+00 0. -1.
         11    1    3    3    0    0  0.42438854612E+01 -0.35805459882E+02 -0.25495644775E+01  0.36146117364E+02  0.51100000000E-03 0. -1.
        -11    1    3    3    0    0 -0.42130960445E+01 -0.79160221851E+01  0.46663926389E+00  0.89794954190E+01  0.51100000000E-03 0.  1.
        -12    1    3    3    0    0 -0.27717560869E+01  0.26075731888E+02  0.77217176733E+01  0.27335898543E+02  0.00000000000E+00 0.  1.
</event>
<event>
 7    1  0.2886818E-013  0.7246146E+02  0.7816164E-02  0.1226708E+00
        -11   -1    0    0    0    0  0.00000000000E+00  0.00000000000E+00  0.45593999997E+02  0.45594000000E+02  0.51100000000E-03 0. -1.
         11   -1    0    0    0    0 -0.00000000000E+00 -0.00000000000E+00 -0.45593999997E+02  0.45594000000E+02  0.51100000000E-03 0.  1.
    9900012    2    1    2    0    0  0.81842622450E+01 -0.12125208157E+02 -0.11691042221E+02  0.72461460288E+02  0.69999856697E+02 0.  0.
         12    1    1    2    0    0 -0.81842622450E+01  0.12125208157E+02  0.11691042221E+02  0.18726539712E+02  0.00000000000E+00 0. -1.
         11    1    3    3    0    0 -0.14202100792E+02  0.98339686108E+01  0.45877891521E+01  0.17873287753E+02  0.51100000000E-03 0.  1.
        -11    1    3    3    0    0  0.22980225839E+02  0.28171551691E+01 -0.18597213813E+02  0.29696523445E+02  0.51100000000E-03 0. -1.
         12    1    3    3    0    0 -0.59386280168E+00 -0.24776331937E+02  0.23183824398E+01  0.24891649090E+02  0.00000000000E+00 0. -1.
</event>
<event>
 7    1  0.2886818E-013  0.7246156E+02  0.7816164E-02  0.1226708E+00
        -11   -1    0    0    0    0  0.00000000000E+00  0.00000000000E+00  0.45593999997E+02  0.45594000000E+02  0.51100000000E-03 0. -1.
         11   -1    0    0    0    0 -0.00000000000E+00 -0.00000000000E+00 -0.45593999997E+02  0.45594000000E+02  0.51100000000E-03 0.  1.
    9900012    2    1    2    0    0  0.14246184359E+01 -0.13370019172E+02  0.13034291005E+02  0.72461556335E+02  0.69999981815E+02 0.  0.
         12    1    1    2    0    0 -0.14246184359E+01  0.13370019172E+02 -0.13034291005E+02  0.18726443665E+02  0.00000000000E+00 0. -1.
         11    1    3    3    0    0 -0.10263704016E+02 -0.18203991894E+02 -0.67937022660E+01  0.21974606520E+02  0.51100000000E-03 0. -1.
        -11    1    3    3    0    0 -0.17036209850E+02  0.22169758297E+01  0.42170174398E+01  0.17689846359E+02  0.51100000000E-03 0.  1.
        -12    1    3    3    0    0  0.28724532301E+02  0.26169968920E+01  0.15610975831E+02  0.32797103455E+02  0.00000000000E+00 0.  1.
</event>
<event>
 7    1  0.2886818E-013  0.7246156E+02  0.7816164E-02  0.1226708E+00
        -11   -1    0    0    0    0  0.00000000000E+00  0.00000000000E+00  0.45593999997E+02  0.45594000000E+02  0.51100000000E-03 0.  1.
         11   -1    0    0    0    0 -0.00000000000E+00 -0.00000000000E+00 -0.45593999997E+02  0.45594000000E+02  0.51100000000E-03 0. -1.
    9900012    2    1    2    0    0  0.65771994684E+00  0.18079783664E+02 -0.48340861344E+01  0.72461559826E+02  0.69999986362E+02 0.  0.
         12    1    1    2    0    0 -0.65771994684E+00 -0.18079783664E+02  0.48340861344E+01  0.18726440174E+02  0.00000000000E+00 0. -1.
         11    1    3    3    0    0  0.45382798377E+00  0.17067501692E+02 -0.15785606680E+02  0.23252762252E+02  0.51100000000E-03 0. -1.
        -11    1    3    3    0    0  0.11397720621E+02  0.11594876608E+02 -0.12941442584E+02  0.20780522980E+02  0.51100000000E-03 0.  1.
        -12    1    3    3    0    0 -0.11193828658E+02 -0.10582594636E+02  0.23892963129E+02  0.28428274593E+02  0.00000000000E+00 0.  1.
</event>
<event>
 7    1  0.2886818E-013  0.7246157E+02  0.7816164E-02  0.1226708E+00
        -11   -1    0    0    0    0  0.00000000000E+00  0.00000000000E+00  0.45593999997E+02  0.45594000000E+02  0.51100000000E-03 0.  1.
         11   -1    0    0    0    0 -0.00000000000E+00 -0.00000000000E+00 -0.45593999997E+02  0.45594000000E+02  0.51100000000E-03 0. -1.
    9900012    2    1    2    0    0  0.15746937226E+02  0.75177433639E+01  0.67968118841E+01  0.72461570840E+02  0.70000000711E+02 0.  0.
         12    1    1    2    0    0 -0.15746937226E+02 -0.75177433639E+01 -0.67968118841E+01  0.18726429160E+02  0.00000000000E+00 0. -1.
         11    1    3    3    0    0  0.10628634784E+02  0.50595575938E+01  0.89417101716E+01  0.14782461956E+02  0.51100000000E-03 0. -1.
        -11    1    3    3    0    0  0.24491699257E+02 -0.15826812407E+02 -0.83379810826E+01  0.30329082615E+02  0.51100000000E-03 0.  1.
         12    1    3    3    0    0 -0.19373396815E+02  0.18284998177E+02  0.61930827952E+01  0.27350026270E+02  0.00000000000E+00 0. -1.
</event>
<event>
 7    1  0.2886818E-013  0.7246157E+02  0.7816164E-02  0.1226708E+00
        -11   -1    0    0    0    0  0.00000000000E+00  0.00000000000E+00  0.45593999997E+02  0.45594000000E+02  0.51100000000E-03 0. -1.
         11   -1    0    0    0    0 -0.00000000000E+00 -0.00000000000E+00 -0.45593999997E+02  0.45594000000E+02  0.51100000000E-03 0.  1.
    9900012    2    1    2    0    0 -0.36921478885E+01  0.37418974451E+01 -0.17973460751E+02  0.72461573649E+02  0.70000004370E+02 0.  0.
         12    1    1    2    0    0  0.36921478885E+01 -0.37418974451E+01  0.17973460751E+02  0.18726426351E+02  0.00000000000E+00 0. -1.
         11    1    3    3    0    0  0.14605364674E+02  0.24222861394E+02 -0.12544833379E+02  0.30942471397E+02  0.51100000000E-03 0. -1.
        -11    1    3    3    0    0 -0.53532911105E+01  0.47031279835E+01 -0.10562629888E+02  0.12741518314E+02  0.51100000000E-03 0.  1.
        -12    1    3    3    0    0 -0.12944221452E+02 -0.25184091933E+02  0.51340025158E+01  0.28777583938E+02  0.00000000000E+00 0.  1.
</event>
<event>
 7    1  0.2886818E-013  0.7246156E+02  0.7816164E-02  0.1226708E+00
        -11   -1    0    0    0    0  0.00000000000E+00  0.00000000000E+00  0.45593999997E+02  0.45594000000E+02  0.51100000000E-03 0. -1.
         11   -1    0    0    0    0 -0.00000000000E+00 -0.00000000000E+00 -0.45593999997E+02  0.45594000000E+02  0.51100000000E-03 0.  1.
    9900012    2    1    2    0    0  0.17244610438E+02  0.39087293406E+01  0.61664255735E+01  0.72461559907E+02  0.69999986468E+02 0.  0.
         12    1    1    2    0    0 -0.17244610438E+02 -0.39087293406E+01 -0.61664255735E+01  0.18726440093E+02  0.00000000000E+00 0. -1.
         11    1    3    3    0    0 -0.91523732416E+01 -0.46347397803E+01  0.17203924122E+02  0.20030520568E+02  0.51100000000E-03 0. -1.
        -11    1    3    3    0    0  0.45023357158E+00 -0.51712448773E+01  0.13317408237E+02  0.14293279759E+02  0.51100000000E-03 0.  1.
        -12    1    3    3    0    0  0.25946750108E+02  0.13714713998E+02 -0.24354906785E+02  0.38137759580E+02  0.00000000000E+00 0.  1.
</event>
<event>
 7    1  0.2886818E-013  0.7246160E+02  0.7816164E-02  0.1226708E+00
        -11   -1    0    0    0    0  0.00000000000E+00  0.00000000000E+00  0.45593999997E+02  0.45594000000E+02  0.51100000000E-03 0.  1.
         11   -1    0    0    0    0 -0.00000000000E+00 -0.00000000000E+00 -0.45593999997E+02  0.45594000000E+02  0.51100000000E-03 0. -1.
    9900012    2    1    2    0    0  0.62111708321E+01 -0.17150179568E+02 -0.42392069761E+01  0.72461596765E+02  0.70000034483E+02 0.  0.
         12    1    1    2    0    0 -0.62111708321E+01  0.17150179568E+02  0.42392069761E+01  0.18726403235E+02  0.00000000000E+00 0. -1.
         11    1    3    3    0    0  0.70665824356E+01 -0.25890452562E+02 -0.24013496714E+02  0.36012499856E+02  0.51100000000E-03 0. -1.
        -11    1    3    3    0    0  0.93420565515E+01  0.65051998850E+01 -0.26726041151E+01  0.11693351067E+02  0.51100000000E-03 0.  1.
        -12    1    3    3    0    0 -0.10197468155E+02  0.22350731089E+01  0.22446893853E+02  0.24755745842E+02  0.00000000000E+00 0.  1.
</event>
<event>
 7    1  0.2886818E-013  0.7246157E+02  0.7816164E-02  0.1226708E+00
        -11   -1    0    0    0    0  0.00000000000E+00  0.00000000000E+00  0.45593999997E+02  0.45594000000E+02  0.51100000000E-03 0.  1.
         11   -1    0    0    0    0 -0.00000000000E+00 -0.00000000000E+00 -0.45593999997E+02  0.45594000000E+02  0.51100000000E-03 0. -1.
    9900012    2    1    2    0    0  0.15024721880E+02 -0.13889700493E+01  0.11090885917E+02  0.72461567991E+02  0.69999996999E+02 0.  0.
         12    1    1    2    0    0 -0.15024721880E+02  0.13889700493E+01 -0.11090885917E+02  0.18726432009E+02  0.00000000000E+00 0. -1.
         11    1    3    3    0    0 -0.42689663952E+01 -0.15677874318E+02 -0.22060381481E+01  0.16397756609E+02  0.51100000000E-03 0. -1.
        -11    1    3    3    0    0  0.15927099336E+02  0.36310212941E+01  0.31050181517E+02  0.35085190343E+02  0.51100000000E-03 0.  1.
         12    1    3    3    0    0  0.33665889385E+01  0.10657882975E+02 -0.17753257451E+02  0.20978621039E+02  0.00000000000E+00 0. -1.
</event>
<event>
 7    1  0.2886818E-013  0.7246159E+02  0.7816164E-02  0.1226708E+00
        -11   -1    0    0    0    0  0.00000000000E+00  0.00000000000E+00  0.45593999997E+02  0.45594000000E+02  0.51100000000E-03 0. -1.
         11   -1    0    0    0    0 -0.00000000000E+00 -0.00000000000E+00 -0.45593999997E+02  0.45594000000E+02  0.51100000000E-03 0.  1.
    9900012    2    1    2    0    0 -0.50324332946E+01  0.17792701615E+02  0.29618817658E+01  0.72461591930E+02  0.70000028184E+02 0.  0.
         12    1    1    2    0    0  0.50324332946E+01 -0.17792701615E+02 -0.29618817658E+01  0.18726408070E+02  0.00000000000E+00 0. -1.
         11    1    3    3    0    0 -0.17808974710E+02  0.26422252209E+02 -0.36385100829E+01  0.32070761574E+02  0.51100000000E-03 0. -1.
        -11    1    3    3    0    0 -0.12169859484E+02 -0.39120745366E+01  0.77982427043E+01  0.14974057452E+02  0.51100000000E-03 0.  1.
         12    1    3    3    0    0  0.24946400899E+02 -0.47174760581E+01 -0.11978508555E+01  0.25416772904E+02  0.00000000000E+00 0. -1.
</event>
<event>
 7    1  0.2886818E-013  0.7246158E+02  0.7816164E-02  0.1226708E+00
        -11   -1    0    0    0    0  0.00000000000E+00  0.00000000000E+00  0.45593999997E+02  0.45594000000E+02  0.51100000000E-03 0. -1.
         11   -1    0    0    0    0 -0.00000000000E+00 -0.00000000000E+00 -0.45593999997E+02  0.45594000000E+02  0.51100000000E-03 0.  1.
    9900012    2    1    2    0    0  0.11412835090E+02 -0.12539287851E+02 -0.79493518445E+01  0.72461581780E+02  0.70000014962E+02 0.  0.
         12    1    1    2    0    0 -0.11412835090E+02  0.12539287851E+02  0.79493518445E+01  0.18726418220E+02  0.00000000000E+00 0. -1.
         11    1    3    3    0    0  0.60984447467E+01 -0.21770477390E+02  0.13492364312E+02  0.26328475253E+02  0.51100000000E-03 0. -1.
        -11    1    3    3    0    0  0.11602448889E+02 -0.11125979702E+02 -0.18686772244E+02  0.24649537556E+02  0.51100000000E-03 0.  1.
         12    1    3    3    0    0 -0.62880585460E+01  0.20357169241E+02 -0.27549439130E+01  0.21483568971E+02  0.00000000000E+00 0. -1.
</event>
<event>
 7    1  0.3499444E-013  0.7246155E+02  0.7816164E-02  0.1226708E+00
        -11   -1    0    0    0    0  0.00000000000E+00  0.00000000000E+00  0.45593999997E+02  0.45594000000E+02  0.51100000000E-03 0. -1.
         11   -1    0    0    0    0 -0.00000000000E+00 -0.00000000000E+00 -0.45593999997E+02  0.45594000000E+02  0.51100000000E-03 0.  1.
    9900012    2    1    2    0    0 -0.32497392529E+01 -0.81708473986E+01 -0.16533488376E+02  0.72461553719E+02  0.69999978408E+02 0.  0.
         12    1    1    2    0    0  0.32497392529E+01  0.81708473986E+01  0.16533488376E+02  0.18726446281E+02  0.00000000000E+00 0. -1.
         11    1    3    3    0    0  0.13192336459E+02 -0.16944196368E+02  0.14615901478E+02  0.25976298968E+02  0.51100000000E-03 0. -1.
        -11    1    3    3    0    0 -0.92915625759E+01 -0.10184494733E+02 -0.89859226567E+01  0.16456119662E+02  0.51100000000E-03 0.  1.
        -12    1    3    3    0    0 -0.71505131356E+01  0.18957843703E+02 -0.22163467198E+02  0.30029135089E+02  0.00000000000E+00 0.  1.
</event>
<event>
 7    1  0.2886818E-013  0.7246155E+02  0.7816164E-02  0.1226708E+00
        -11   -1    0    0    0    0  0.00000000000E+00  0.00000000000E+00  0.45593999997E+02  0.45594000000E+02  0.51100000000E-03 0. -1.
         11   -1    0    0    0    0 -0.00000000000E+00 -0.00000000000E+00 -0.45593999997E+02  0.45594000000E+02  0.51100000000E-03 0.  1.
    9900012    2    1    2    0    0  0.13897721970E+02  0.12065477316E+02 -0.34579751778E+01  0.72461547823E+02  0.69999970727E+02 0.  0.
         12    1    1    2    0    0 -0.13897721970E+02 -0.12065477316E+02  0.34579751778E+01  0.18726452177E+02  0.00000000000E+00 0. -1.
         11    1    3    3    0    0  0.10326801672E+02  0.30948718693E+01  0.17570205465E+02  0.20613907563E+02  0.51100000000E-03 0. -1.
        -11    1    3    3    0    0 -0.13523301861E+02  0.22043364434E+02 -0.12032288438E+02  0.28523070910E+02  0.51100000000E-03 0.  1.
         12    1    3    3    0    0  0.17094222160E+02 -0.13072758988E+02 -0.89958922055E+01  0.23324569350E+02  0.00000000000E+00 0. -1.
</event>
<event>
 7    1  0.2886818E-013  0.7246171E+02  0.7816164E-02  0.1226708E+00
        -11   -1    0    0    0    0  0.00000000000E+00  0.00000000000E+00  0.45593999997E+02  0.45594000000E+02  0.51100000000E-03 0. -1.
         11   -1    0    0    0    0 -0.00000000000E+00 -0.00000000000E+00 -0.45593999997E+02  0.45594000000E+02  0.51100000000E-03 0.  1.
    9900012    2    1    2    0    0 -0.15337116639E+02 -0.10052819550E+02  0.37931145094E+01  0.72461707110E+02  0.70000178228E+02 0.  0.
         12    1    1    2    0    0  0.15337116639E+02  0.10052819550E+02 -0.37931145094E+01  0.18726292890E+02  0.00000000000E+00 0. -1.
         11    1    3    3    0    0  0.11411654652E+02  0.60761411942E+01  0.49215041114E+01  0.13833530160E+02  0.51100000000E-03 0. -1.
        -11    1    3    3    0    0 -0.22197903083E+02 -0.34311580351E+00 -0.22541835874E+02  0.31638568150E+02  0.51100000000E-03 0.  1.
        -12    1    3    3    0    0 -0.45508682084E+01 -0.15785844941E+02  0.21413446272E+02  0.26989608800E+02  0.00000000000E+00 0.  1.
</event>
<event>
 7    1  0.2886818E-013  0.7246158E+02  0.7816164E-02  0.1226708E+00
        -11   -1    0    0    0    0  0.00000000000E+00  0.00000000000E+00  0.45593999997E+02  0.45594000000E+02  0.51100000000E-03 0. -1.
         11   -1    0    0    0    0 -0.00000000000E+00 -0.00000000000E+00 -0.45593999997E+02  0.45594000000E+02  0.51100000000E-03 0.  1.
    9900012    2    1    2    0    0 -0.59912578871E+01 -0.71190201807E+01 -0.16251248292E+02  0.72461583086E+02  0.70000016664E+02 0.  0.
         12    1    1    2    0    0  0.59912578871E+01  0.71190201807E+01  0.16251248292E+02  0.18726416914E+02  0.00000000000E+00 0. -1.
         11    1    3    3    0    0 -0.12055659435E+02  0.16149348011E+02  0.43738788182E+01  0.20622104203E+02  0.51100000000E-03 0.  1.
        -11    1    3    3    0    0 -0.22916798792E-02  0.11754920753E+02 -0.28384591609E+01  0.12092767170E+02  0.51100000000E-03 0. -1.
        -12    1    3    3    0    0  0.60666932281E+01 -0.35023288945E+02 -0.17786667949E+02  0.39746711712E+02  0.00000000000E+00 0.  1.
</event>
<event>
 7    1  0.2886818E-013  0.7246156E+02  0.7816164E-02  0.1226708E+00
        -11   -1    0    0    0    0  0.00000000000E+00  0.00000000000E+00  0.45593999997E+02  0.45594000000E+02  0.51100000000E-03 0.  1.
         11   -1    0    0    0    0 -0.00000000000E+00 -0.00000000000E+00 -0.45593999997E+02  0.45594000000E+02  0.51100000000E-03 0. -1.
    9900012    2    1    2    0    0  0.18598076581E+02 -0.20832186138E+01  0.67173627761E+00  0.72461561953E+02  0.69999989133E+02 0.  0.
         12    1    1    2    0    0 -0.18598076581E+02  0.20832186138E+01 -0.67173627761E+00  0.18726438047E+02  0.00000000000E+00 0. -1.
         11    1    3    3    0    0  0.12535632022E+02  0.15955867724E+02 -0.76008663537E+01  0.21668063010E+02  0.51100000000E-03 0. -1.
        -11    1    3    3    0    0  0.21787789702E+02  0.30837998395E+01 -0.28856292820E+01  0.22193342654E+02  0.51100000000E-03 0.  1.
         12    1    3    3    0    0 -0.15725345143E+02 -0.21122886177E+02  0.11158231913E+02  0.28600156289E+02  0.00000000000E+00 0. -1.
</event>
<event>
 7    1  0.2886818E-013  0.7246148E+02  0.7816164E-02  0.1226708E+00
        -11   -1    0    0    0    0  0.00000000000E+00  0.00000000000E+00  0.45593999997E+02  0.45594000000E+02  0.51100000000E-03 0.  1.
         11   -1    0    0    0    0 -0.00000000000E+00 -0.00000000000E+00 -0.45593999997E+02  0.45594000000E+02  0.51100000000E-03 0. -1.
    9900012    2    1    2    0    0  0.17694052912E+02  0.21407438980E+01 -0.57463096059E+01  0.72461484922E+02  0.69999888786E+02 0.  0.
         12    1    1    2    0    0 -0.17694052912E+02 -0.21407438980E+01  0.57463096059E+01  0.18726515078E+02  0.00000000000E+00 0. -1.
         11    1    3    3    0    0  0.23849202476E+02 -0.13689022822E+02 -0.11831189727E+02  0.29935778847E+02  0.51100000000E-03 0. -1.
        -11    1    3    3    0    0  0.14005062682E+01  0.21251546626E+02 -0.10321519106E+02  0.23666926474E+02  0.51100000000E-03 0.  1.
        -12    1    3    3    0    0 -0.75556558329E+01 -0.54217799069E+01  0.16406399227E+02  0.18858779600E+02  0.00000000000E+00 0.  1.
</event>
<event>
 7    1  0.2886818E-013  0.7246163E+02  0.7816164E-02  0.1226708E+00
        -11   -1    0    0    0    0  0.00000000000E+00  0.00000000000E+00  0.45593999997E+02  0.45594000000E+02  0.51100000000E-03 0. -1.
         11   -1    0    0    0    0 -0.00000000000E+00 -0.00000000000E+00 -0.45593999997E+02  0.45594000000E+02  0.51100000000E-03 0.  1.
    9900012    2    1    2    0    0  0.18241137504E+02  0.39186975288E+01  0.16067574772E+01  0.72461629360E+02  0.70000076944E+02 0.  0.
         12    1    1    2    0    0 -0.18241137504E+02 -0.39186975288E+01 -0.16067574772E+01  0.18726370640E+02  0.00000000000E+00 0. -1.
         11    1    3    3    0    0 -0.51113210183E+01  0.72283387577E+01 -0.74845603862E+01  0.11592805018E+02  0.51100000000E-03 0. -1.
        -11    1    3    3    0    0  0.33918926261E+02  0.16258951287E+02  0.87889373979E+01  0.38627612876E+02  0.51100000000E-03 0.  1.
         12    1    3    3    0    0 -0.10566467738E+02 -0.19568592516E+02  0.30238046553E+00  0.22241211466E+02  0.00000000000E+00 0. -1.
</event>
<event>
 7    1  0.2886818E-013  0.7246157E+02  0.7816164E-02  0.1226708E+00
        -11   -1    0    0    0    0  0.00000000000E+00  0.00000000000E+00  0.45593999997E+02  0.45594000000E+02  0.51100000000E-03 0.  1.
         11   -1    0    0    0    0 -0.00000000000E+00 -0.00000000000E+00 -0.45593999997E+02  0.45594000000E+02  0.51100000000E-03 0. -1.
    9900012    2    1    2    0    0 -0.12162520154E+02  0.14238213201E+02 -0.15995734495E+00  0.72461569534E+02  0.69999999009E+02 0.  0.
         12    1    1    2    0    0  0.12162520154E+02 -0.14238213201E+02  0.15995734495E+00  0.18726430466E+02  0.00000000000E+00 0. -1.
         11    1    3    3    0    0  0.16273330822E+02  0.17862067058E+02 -0.10047155609E+02  0.26169067077E+02  0.51100000000E-03 0. -1.
        -11    1    3    3    0    0 -0.69666335601E+01  0.14030296650E+02 -0.24976311248E+01  0.15862577620E+02  0.51100000000E-03 0.  1.
        -12    1    3    3    0    0 -0.21469217415E+02 -0.17654150507E+02  0.12384829388E+02  0.30429924836E+02  0.00000000000E+00 0.  1.
</event>
<event>
 7    1  0.2886818E-013  0.7246177E+02  0.7816164E-02  0.1226707E+00
        -11   -1    0    0    0    0  0.00000000000E+00  0.00000000000E+00  0.45593999997E+02  0.45594000000E+02  0.51100000000E-03 0. -1.
         11   -1    0    0    0    0 -0.00000000000E+00 -0.00000000000E+00 -0.45593999997E+02  0.45594000000E+02  0.51100000000E-03 0.  1.
    9900012    2    1    2    0    0  0.28613147107E+01  0.17368943564E+02 -0.63878365311E+01  0.72461767652E+02  0.70000257094E+02 0.  0.
         12    1    1    2    0    0 -0.28613147107E+01 -0.17368943564E+02  0.63878365311E+01  0.18726232348E+02  0.00000000000E+00 0. -1.
         11    1    3    3    0    0  0.14051719482E+02  0.53289102240E+01 -0.37336967036E+01  0.15485108844E+02  0.51100000000E-03 0. -1.
        -11    1    3    3    0    0  0.13945736851E+02  0.23938482423E+02  0.49558926314E+01  0.28144189259E+02  0.51100000000E-03 0.  1.
        -12    1    3    3    0    0 -0.25136141622E+02 -0.11898449083E+02 -0.76100324589E+01  0.28832469548E+02  0.00000000000E+00 0.  1.
</event>
<event>
 7    1  0.2886818E-013  0.7246159E+02  0.7816164E-02  0.1226708E+00
        -11   -1    0    0    0    0  0.00000000000E+00  0.00000000000E+00  0.45593999997E+02  0.45594000000E+02  0.51100000000E-03 0. -1.
         11   -1    0    0    0    0 -0.00000000000E+00 -0.00000000000E+00 -0.45593999997E+02  0.45594000000E+02  0.51100000000E-03 0.  1.
    9900012    2    1    2    0    0 -0.12017942131E+02 -0.11139321906E+01  0.14318055557E+02  0.72461588359E+02  0.70000023533E+02 0.  0.
         12    1    1    2    0    0  0.12017942131E+02  0.11139321906E+01 -0.14318055557E+02  0.18726411641E+02  0.00000000000E+00 0. -1.
         11    1    3    3    0    0 -0.22878923736E+00  0.19261271275E+01 -0.38319847976E+01  0.42949293331E+01  0.51100000000E-03 0. -1.
        -11    1    3    3    0    0 -0.36006919674E+02  0.66951963888E+01  0.44444344421E+00  0.36626785954E+02  0.51100000000E-03 0.  1.
         12    1    3    3    0    0  0.24217766780E+02 -0.97352557069E+01  0.17705596910E+02  0.31539873072E+02  0.00000000000E+00 0. -1.
</event>
<event>
 7    1  0.2886818E-013  0.7246161E+02  0.7816164E-02  0.1226708E+00
        -11   -1    0    0    0    0  0.00000000000E+00  0.00000000000E+00  0.45593999997E+02  0.45594000000E+02  0.51100000000E-03 0.  1.
         11   -1    0    0    0    0 -0.00000000000E+00 -0.00000000000E+00 -0.45593999997E+02  0.45594000000E+02  0.51100000000E-03 0. -1.
    9900012    2    1    2    0    0 -0.69396845032E+01 -0.13094887401E+02  0.11447374080E+02  0.72461610322E+02  0.70000052143E+02 0.  0.
         12    1    1    2    0    0  0.69396845032E+01  0.13094887401E+02 -0.11447374080E+02  0.18726389678E+02  0.00000000000E+00 0. -1.
         11    1    3    3    0    0 -0.22550299185E+02  0.10114494944E+02 -0.35869292340E+01  0.24973687410E+02  0.51100000000E-03 0. -1.
        -11    1    3    3    0    0  0.49696068042E+00  0.90685331690E+01  0.54056830924E+01  0.10569137794E+02  0.51100000000E-03 0.  1.
        -12    1    3    3    0    0  0.15113654001E+02 -0.32277915514E+02  0.96286202218E+01  0.36918785117E+02  0.00000000000E+00 0.  1.
</event>
<event>
 7    1  0.2886818E-013  0.7246155E+02  0.7816164E-02  0.1226708E+00
        -11   -1    0    0    0    0  0.00000000000E+00  0.00000000000E+00  0.45593999997E+02  0.45594000000E+02  0.51100000000E-03 0.  1.
         11   -1    0    0    0    0 -0.00000000000E+00 -0.00000000000E+00 -0.45593999997E+02  0.45594000000E+02  0.51100000000E-03 0. -1.
    9900012    2    1    2    0    0  0.71440253383E+01 -0.60761264593E+01  0.16208747881E+02  0.72461550292E+02  0.69999973943E+02 0.  0.
         12    1    1    2    0    0 -0.71440253383E+01  0.60761264593E+01 -0.16208747881E+02  0.18726449708E+02  0.00000000000E+00 0. -1.
         11    1    3    3    0    0  0.35433646489E+01  0.67718144583E+01  0.12624270494E+01  0.77463944135E+01  0.51100000000E-03 0. -1.
        -11    1    3    3    0    0  0.25163558813E+02 -0.98295872073E+01  0.28339195574E+02  0.39152719992E+02  0.51100000000E-03 0.  1.
         12    1    3    3    0    0 -0.21562898123E+02 -0.30183537104E+01 -0.13392874742E+02  0.25562435886E+02  0.00000000000E+00 0. -1.
</event>
<event>
 7    1  0.2886818E-013  0.7246153E+02  0.7816164E-02  0.1226708E+00
        -11   -1    0    0    0    0  0.00000000000E+00  0.00000000000E+00  0.45593999997E+02  0.45594000000E+02  0.51100000000E-03 0.  1.
         11   -1    0    0    0    0 -0.00000000000E+00 -0.00000000000E+00 -0.45593999997E+02  0.45594000000E+02  0.51100000000E-03 0. -1.
    9900012    2    1    2    0    0 -0.82263502728E+01 -0.17453687694E+01  0.16732054033E+02  0.72461527211E+02  0.69999943876E+02 0.  0.
         12    1    1    2    0    0  0.82263502728E+01  0.17453687694E+01 -0.16732054033E+02  0.18726472789E+02  0.00000000000E+00 0. -1.
         11    1    3    3    0    0 -0.18430939310E+02  0.28718979109E+01  0.27489492283E+02  0.33220769222E+02  0.51100000000E-03 0. -1.
        -11    1    3    3    0    0 -0.26277941592E+01 -0.62074486789E+01  0.11598295435E+02  0.13414849179E+02  0.51100000000E-03 0.  1.
         12    1    3    3    0    0  0.12832383196E+02  0.15901819985E+01 -0.22355733685E+02  0.25825908810E+02  0.00000000000E+00 0. -1.
</event>
<event>
 7    1  0.2886818E-013  0.7246157E+02  0.7816164E-02  0.1226708E+00
        -11   -1    0    0    0    0  0.00000000000E+00  0.00000000000E+00  0.45593999997E+02  0.45594000000E+02  0.51100000000E-03 0.  1.
         11   -1    0    0    0    0 -0.00000000000E+00 -0.00000000000E+00 -0.45593999997E+02  0.45594000000E+02  0.51100000000E-03 0. -1.
    9900012    2    1    2    0    0 -0.15043749875E+02  0.53957143313E+00  0.11138826332E+02  0.72461574829E+02  0.70000005908E+02 0.  0.
         12    1    1    2    0    0  0.15043749875E+02 -0.53957143313E+00 -0.11138826332E+02  0.18726425171E+02  0.00000000000E+00 0. -1.
         11    1    3    3    0    0 -0.92074723003E+01  0.12993648495E+02  0.75596067248E+01  0.17628389077E+02  0.51100000000E-03 0. -1.
        -11    1    3    3    0    0 -0.18495809132E+02 -0.35404869172E+00  0.22449167723E+02  0.29089266708E+02  0.51100000000E-03 0.  1.
        -12    1    3    3    0    0  0.12659531557E+02 -0.12100028370E+02 -0.18869948117E+02  0.25743919044E+02  0.00000000000E+00 0.  1.
</event>
<event>
 7    1  0.2886818E-013  0.7246159E+02  0.7816164E-02  0.1226708E+00
        -11   -1    0    0    0    0  0.00000000000E+00  0.00000000000E+00  0.45593999997E+02  0.45594000000E+02  0.51100000000E-03 0. -1.
         11   -1    0    0    0    0 -0.00000000000E+00 -0.00000000000E+00 -0.45593999997E+02  0.45594000000E+02  0.51100000000E-03 0.  1.
    9900012    2    1    2    0    0  0.15496940668E+02  0.48938195350E+01 -0.93044981121E+01  0.72461592848E+02  0.70000029380E+02 0.  0.
         12    1    1    2    0    0 -0.15496940668E+02 -0.48938195350E+01  0.93044981121E+01  0.18726407152E+02  0.00000000000E+00 0. -1.
         11    1    3    3    0    0  0.21095775528E+02 -0.15647085482E+02 -0.97274255366E+01  0.28008674317E+02  0.51100000000E-03 0. -1.
        -11    1    3    3    0    0 -0.14383798854E+02 -0.66672383785E+01 -0.19267860135E+00  0.15855057943E+02  0.51100000000E-03 0.  1.
        -12    1    3    3    0    0  0.87849639945E+01  0.27208143395E+02  0.61560602586E+00  0.28597860587E+02  0.00000000000E+00 0.  1.
</event>
<event>
 7    1  0.2886818E-013  0.7246157E+02  0.7816164E-02  0.1226708E+00
        -11   -1    0    0    0    0  0.00000000000E+00  0.00000000000E+00  0.45593999997E+02  0.45594000000E+02  0.51100000000E-03 0. -1.
         11   -1    0    0    0    0 -0.00000000000E+00 -0.00000000000E+00 -0.45593999997E+02  0.45594000000E+02  0.51100000000E-03 0.  1.
    9900012    2    1    2    0    0 -0.84944760276E+01  0.12954326811E+02 -0.10521814291E+02  0.72461567288E+02  0.69999996084E+02 0.  0.
         12    1    1    2    0    0  0.84944760276E+01 -0.12954326811E+02  0.10521814291E+02  0.18726432712E+02  0.00000000000E+00 0. -1.
         11    1    3    3    0    0  0.25019707704E+02  0.25723591246E+01  0.74463645026E+00  0.25162616890E+02  0.51100000000E-03 0. -1.
        -11    1    3    3    0    0 -0.99097978651E+01  0.30467397139E+01 -0.18790859538E+02  0.21461200317E+02  0.51100000000E-03 0.  1.
         12    1    3    3    0    0 -0.23604385866E+02  0.73352279730E+01  0.75244087962E+01  0.25837750081E+02  0.00000000000E+00 0. -1.
</event>
<event>
 7    1  0.2886818E-013  0.7246137E+02  0.7816164E-02  0.1226709E+00
        -11   -1    0    0    0    0  0.00000000000E+00  0.00000000000E+00  0.45593999997E+02  0.45594000000E+02  0.51100000000E-03 0.  1.
         11   -1    0    0    0    0 -0.00000000000E+00 -0.00000000000E+00 -0.45593999997E+02  0.45594000000E+02  0.51100000000E-03 0. -1.
    9900012    2    1    2    0    0  0.17305795993E+02  0.52990311597E+01  0.48079347251E+01  0.72461373435E+02  0.69999743553E+02 0.  0.
         12    1    1    2    0    0 -0.17305795993E+02 -0.52990311597E+01 -0.48079347251E+01  0.18726626565E+02  0.00000000000E+00 0. -1.
         11    1    3    3    0    0  0.34657069485E+02  0.54716525501E+01 -0.49884206997E+01  0.35439184362E+02  0.51100000000E-03 0. -1.
        -11    1    3    3    0    0 -0.14596218067E+02  0.26100922512E+01 -0.93169145227E+01  0.17511911943E+02  0.51100000000E-03 0.  1.
        -12    1    3    3    0    0 -0.27550554247E+01 -0.27827136416E+01  0.19113269948E+02  0.19510277130E+02  0.00000000000E+00 0.  1.
</event>
<event>
 7    1  0.2886818E-013  0.7246158E+02  0.7816164E-02  0.1226708E+00
        -11   -1    0    0    0    0  0.00000000000E+00  0.00000000000E+00  0.45593999997E+02  0.45594000000E+02  0.51100000000E-03 0.  1.
         11   -1    0    0    0    0 -0.00000000000E+00 -0.00000000000E+00 -0.45593999997E+02  0.45594000000E+02  0.51100000000E-03 0. -1.
    9900012    2    1    2    0    0  0.43620838502E+01 -0.18055642078E+02 -0.23758710481E+01  0.72461581507E+02  0.70000014606E+02 0.  0.
         12    1    1    2    0    0 -0.43620838502E+01  0.18055642078E+02  0.23758710481E+01  0.18726418493E+02  0.00000000000E+00 0. -1.
         11    1    3    3    0    0 -0.70039530313E+01  0.44812557845E+01 -0.79833084905E+01  0.11526934813E+02  0.51100000000E-03 0. -1.
        -11    1    3    3    0    0 -0.16416810524E+02 -0.79186433029E+01 -0.14810141051E+02  0.23485247662E+02  0.51100000000E-03 0.  1.
        -12    1    3    3    0    0  0.27782847405E+02 -0.14618254559E+02  0.20417578493E+02  0.37449399032E+02  0.00000000000E+00 0.  1.
</event>
<event>
 7    1  0.2886818E-013  0.7246155E+02  0.7816164E-02  0.1226708E+00
        -11   -1    0    0    0    0  0.00000000000E+00  0.00000000000E+00  0.45593999997E+02  0.45594000000E+02  0.51100000000E-03 0. -1.
         11   -1    0    0    0    0 -0.00000000000E+00 -0.00000000000E+00 -0.45593999997E+02  0.45594000000E+02  0.51100000000E-03 0.  1.
    9900012    2    1    2    0    0 -0.13607495595E+02  0.92000492463E+01 -0.89930601329E+01  0.72461548840E+02  0.69999972052E+02 0.  0.
         12    1    1    2    0    0  0.13607495595E+02 -0.92000492463E+01  0.89930601329E+01  0.18726451160E+02  0.00000000000E+00 0. -1.
         11    1    3    3    0    0 -0.11303600618E+02 -0.72456766576E+01  0.22704883161E+01  0.13617133862E+02  0.51100000000E-03 0. -1.
        -11    1    3    3    0    0 -0.23295052184E+02  0.93256604585E+01  0.11027407596E+02  0.27408595692E+02  0.51100000000E-03 0.  1.
        -12    1    3    3    0    0  0.20991157207E+02  0.71200654454E+01 -0.22290956044E+02  0.31435819287E+02  0.00000000000E+00 0.  1.
</event>
<event>
 7    1  0.2886818E-013  0.7246151E+02  0.7816164E-02  0.1226708E+00
        -11   -1    0    0    0    0  0.00000000000E+00  0.00000000000E+00  0.45593999997E+02  0.45594000000E+02  0.51100000000E-03 0.  1.
         11   -1    0    0    0    0 -0.00000000000E+00 -0.00000000000E+00 -0.45593999997E+02  0.45594000000E+02  0.51100000000E-03 0. -1.
    9900012    2    1    2    0    0 -0.68976544732E+01 -0.39471476968E+01  0.16956527547E+02  0.72461509709E+02  0.69999921076E+02 0.  0.
         12    1    1    2    0    0  0.68976544732E+01  0.39471476968E+01 -0.16956527547E+02  0.18726490291E+02  0.00000000000E+00 0. -1.
         11    1    3    3    0    0 -0.91624911099E+01  0.22766602315E+02 -0.22198597595E+01  0.24641371754E+02  0.51100000000E-03 0. -1.
        -11    1    3    3    0    0 -0.10598837165E+01  0.66125029214E+01  0.11735452048E+02  0.13511823838E+02  0.51100000000E-03 0.  1.
        -12    1    3    3    0    0  0.33247203532E+01 -0.33326252934E+02  0.74409352581E+01  0.34308314117E+02  0.00000000000E+00 0.  1.
</event>
<event>
 7    1  0.2886818E-013  0.7246161E+02  0.7816164E-02  0.1226708E+00
        -11   -1    0    0    0    0  0.00000000000E+00  0.00000000000E+00  0.45593999997E+02  0.45594000000E+02  0.51100000000E-03 0.  1.
         11   -1    0    0    0    0 -0.00000000000E+00 -0.00000000000E+00 -0.45593999997E+02  0.45594000000E+02  0.51100000000E-03 0. -1.
    9900012    2    1    2    0    0 -0.62453137406E+01 -0.17654087783E+02 -0.84028237671E-01  0.72461606329E+02  0.70000046942E+02 0.  0.
         12    1    1    2    0    0  0.62453137406E+01  0.17654087783E+02  0.84028237671E-01  0.18726393671E+02  0.00000000000E+00 0. -1.
         11    1    3    3    0    0 -0.11593170387E+01 -0.11927767483E+02  0.41660680499E+01  0.12687465325E+02  0.51100000000E-03 0. -1.
        -11    1    3    3    0    0  0.20049181915E+02 -0.10029633861E+02 -0.19796836477E+02  0.29907824823E+02  0.51100000000E-03 0.  1.
         12    1    3    3    0    0 -0.25135178617E+02  0.43033135607E+01  0.15546740190E+02  0.29866316181E+02  0.00000000000E+00 0. -1.
</event>
<event>
 7    1  0.2886818E-013  0.7246158E+02  0.7816164E-02  0.1226708E+00
        -11   -1    0    0    0    0  0.00000000000E+00  0.00000000000E+00  0.45593999997E+02  0.45594000000E+02  0.51100000000E-03 0.  1.
         11   -1    0    0    0    0 -0.00000000000E+00 -0.00000000000E+00 -0.45593999997E+02  0.45594000000E+02  0.51100000000E-03 0. -1.
    9900012    2    1    2    0    0  0.70731682189E+01 -0.45371607354E+01  0.16735094784E+02  0.72461576593E+02  0.70000008205E+02 0.  0.
         12    1    1    2    0    0 -0.70731682189E+01  0.45371607354E+01 -0.16735094784E+02  0.18726423407E+02  0.00000000000E+00 0. -1.
         11    1    3    3    0    0 -0.18216416229E+01 -0.60762571803E+01 -0.34075874952E+01  0.72007591490E+01  0.51100000000E-03 0. -1.
        -11    1    3    3    0    0  0.10145682721E+02 -0.61474600907E+01 -0.20604863849E+02  0.23775755676E+02  0.51100000000E-03 0.  1.
        -12    1    3    3    0    0 -0.12508728791E+01  0.76865565356E+01  0.40747546129E+02  0.41485061768E+02  0.00000000000E+00 0.  1.
</event>
<event>
 7    1  0.2886818E-013  0.7246156E+02  0.7816164E-02  0.1226708E+00
        -11   -1    0    0    0    0  0.00000000000E+00  0.00000000000E+00  0.45593999997E+02  0.45594000000E+02  0.51100000000E-03 0. -1.
         11   -1    0    0    0    0 -0.00000000000E+00 -0.00000000000E+00 -0.45593999997E+02  0.45594000000E+02  0.51100000000E-03 0.  1.
    9900012    2    1    2    0    0 -0.16847813877E+02 -0.54636744887E+01 -0.60810277096E+01  0.72461562289E+02  0.69999989572E+02 0.  0.
         12    1    1    2    0    0  0.16847813877E+02  0.54636744887E+01  0.60810277096E+01  0.18726437711E+02  0.00000000000E+00 0. -1.
         11    1    3    3    0    0 -0.14109783521E+02  0.19698641839E+02  0.14335206167E+02  0.28153518740E+02  0.51100000000E-03 0. -1.
        -11    1    3    3    0    0 -0.69062230724E+00 -0.10579710054E+02  0.73347635880E+01  0.12892089867E+02  0.51100000000E-03 0.  1.
        -12    1    3    3    0    0 -0.20474080487E+01 -0.14582606274E+02 -0.27750997465E+02  0.31415953682E+02  0.00000000000E+00 0.  1.
</event>
<event>
 7    1  0.2886818E-013  0.7246149E+02  0.7816164E-02  0.1226708E+00
        -11   -1    0    0    0    0  0.00000000000E+00  0.00000000000E+00  0.45593999997E+02  0.45594000000E+02  0.51100000000E-03 0. -1.
         11   -1    0    0    0    0 -0.00000000000E+00 -0.00000000000E+00 -0.45593999997E+02  0.45594000000E+02  0.51100000000E-03 0.  1.
    9900012    2    1    2    0    0  0.41196997286E+01  0.42146459674E+01 -0.17774894495E+02  0.72461493631E+02  0.69999900132E+02 0.  0.
         12    1    1    2    0    0 -0.41196997286E+01 -0.42146459674E+01  0.17774894495E+02  0.18726506369E+02  0.00000000000E+00 0. -1.
         11    1    3    3    0    0  0.33173942323E+01 -0.31821879623E+01  0.17480853557E+02  0.18075167110E+02  0.51100000000E-03 0. -1.
        -11    1    3    3    0    0 -0.13959774867E+02  0.11860830529E+02 -0.29043371798E+01  0.18546961743E+02  0.51100000000E-03 0.  1.
        -12    1    3    3    0    0  0.14762080363E+02 -0.44639965991E+01 -0.32351410872E+02  0.35839364778E+02  0.00000000000E+00 0.  1.
</event>
<event>
 7    1  0.2886818E-013  0.7246149E+02  0.7816164E-02  0.1226708E+00
        -11   -1    0    0    0    0  0.00000000000E+00  0.00000000000E+00  0.45593999997E+02  0.45594000000E+02  0.51100000000E-03 0.  1.
         11   -1    0    0    0    0 -0.00000000000E+00 -0.00000000000E+00 -0.45593999997E+02  0.45594000000E+02  0.51100000000E-03 0. -1.
    9900012    2    1    2    0    0 -0.75200071257E+01 -0.78144652144E+00  0.17132453256E+02  0.72461491505E+02  0.69999897363E+02 0.  0.
         12    1    1    2    0    0  0.75200071257E+01  0.78144652144E+00 -0.17132453256E+02  0.18726508495E+02  0.00000000000E+00 0. -1.
         11    1    3    3    0    0 -0.15143385441E+02 -0.16599670094E+02 -0.17092443113E+02  0.28231591908E+02  0.51100000000E-03 0. -1.
        -11    1    3    3    0    0  0.37181159081E+00  0.10390030816E+01 -0.31781503719E+01  0.33642846654E+01  0.51100000000E-03 0.  1.
        -12    1    3    3    0    0  0.72515667241E+01  0.14779220491E+02  0.37403046740E+02  0.40865614932E+02  0.00000000000E+00 0.  1.
</event>
<event>
 7    1  0.2886818E-013  0.7246160E+02  0.7816164E-02  0.1226708E+00
        -11   -1    0    0    0    0  0.00000000000E+00  0.00000000000E+00  0.45593999997E+02  0.45594000000E+02  0.51100000000E-03 0.  1.
         11   -1    0    0    0    0 -0.00000000000E+00 -0.00000000000E+00 -0.45593999997E+02  0.45594000000E+02  0.51100000000E-03 0. -1.
    9900012    2    1    2    0    0  0.17290708014E+02  0.35007188936E+01  0.62812815729E+01  0.72461598462E+02  0.70000036693E+02 0.  0.
         12    1    1    2    0    0 -0.17290708014E+02 -0.35007188936E+01 -0.62812815729E+01  0.18726401538E+02  0.00000000000E+00 0. -1.
         11    1    3    3    0    0  0.78660333454E+01 -0.10634866919E+02  0.54667045099E+01  0.14312921905E+02  0.51100000000E-03 0. -1.
        -11    1    3    3    0    0  0.28842640527E+02 -0.28333514220E+01  0.10173549848E+02  0.30715255324E+02  0.51100000000E-03 0.  1.
         12    1    3    3    0    0 -0.19417965859E+02  0.16968937235E+02 -0.93589727847E+01  0.27433421233E+02  0.00000000000E+00 0. -1.
</event>
<event>
 7    1  0.2886818E-013  0.7246159E+02  0.7816164E-02  0.1226708E+00
        -11   -1    0    0    0    0  0.00000000000E+00  0.00000000000E+00  0.45593999997E+02  0.45594000000E+02  0.51100000000E-03 0. -1.
         11   -1    0    0    0    0 -0.00000000000E+00 -0.00000000000E+00 -0.45593999997E+02  0.45594000000E+02  0.51100000000E-03 0.  1.
    9900012    2    1    2    0    0  0.16425102730E+02  0.72218600724E+01  0.53608842884E+01  0.72461592364E+02  0.70000028750E+02 0.  0.
         12    1    1    2    0    0 -0.16425102730E+02 -0.72218600724E+01 -0.53608842884E+01  0.18726407636E+02  0.00000000000E+00 0. -1.
         11    1    3    3    0    0  0.12206921812E+02 -0.88456117729E+01 -0.21047926452E+01  0.15221167501E+02  0.51100000000E-03 0. -1.
        -11    1    3    3    0    0  0.76762162583E+01 -0.11936453458E+02  0.21472512423E+02  0.25738531567E+02  0.51100000000E-03 0.  1.
        -12    1    3    3    0    0 -0.34580353402E+01  0.28003925304E+02 -0.14006835489E+02  0.31501893296E+02  0.00000000000E+00 0.  1.
</event>
<event>
 7    1  0.2886818E-013  0.7246151E+02  0.7816164E-02  0.1226708E+00
        -11   -1    0    0    0    0  0.00000000000E+00  0.00000000000E+00  0.45593999997E+02  0.45594000000E+02  0.51100000000E-03 0. -1.
         11   -1    0    0    0    0 -0.00000000000E+00 -0.00000000000E+00 -0.45593999997E+02  0.45594000000E+02  0.51100000000E-03 0.  1.
    9900012    2    1    2    0    0  0.18266154487E+02  0.39187246834E+01  0.12932367769E+01  0.72461514365E+02  0.69999927142E+02 0.  0.
         12    1    1    2    0    0 -0.18266154487E+02 -0.39187246834E+01 -0.12932367769E+01  0.18726485635E+02  0.00000000000E+00 0. -1.
         11    1    3    3    0    0  0.29352705120E+01 -0.20048331063E+02 -0.32647914009E+00  0.20264697883E+02  0.51100000000E-03 0. -1.
        -11    1    3    3    0    0  0.87056105568E+01  0.18564528025E+01 -0.19167958375E+02  0.21133970302E+02  0.51100000000E-03 0.  1.
        -12    1    3    3    0    0  0.66252734179E+01  0.22110602944E+02  0.20787674292E+02  0.31062846181E+02  0.00000000000E+00 0.  1.
</event>
<event>
 7    1  0.2886818E-013  0.7246098E+02  0.7816164E-02  0.1226710E+00
        -11   -1    0    0    0    0  0.00000000000E+00  0.00000000000E+00  0.45593999997E+02  0.45594000000E+02  0.51100000000E-03 0. -1.
         11   -1    0    0    0    0 -0.00000000000E+00 -0.00000000000E+00 -0.45593999997E+02  0.45594000000E+02  0.51100000000E-03 0.  1.
    9900012    2    1    2    0    0  0.18051802831E+02 -0.18381543018E+01 -0.46319536866E+01  0.72460976968E+02  0.69999227078E+02 0.  0.
         12    1    1    2    0    0 -0.18051802831E+02  0.18381543018E+01  0.46319536866E+01  0.18727023032E+02  0.00000000000E+00 0. -1.
         11    1    3    3    0    0 -0.71685135286E+00 -0.21622310746E+01 -0.81879971691E+01  0.84989656420E+01  0.51100000000E-03 0. -1.
        -11    1    3    3    0    0 -0.18193092453E+01  0.27970686306E+02 -0.49360619902E+01  0.28461094265E+02  0.51100000000E-03 0.  1.
        -12    1    3    3    0    0  0.20587963429E+02 -0.27646609533E+02  0.84921054726E+01  0.35500917061E+02  0.00000000000E+00 0.  1.
</event>
<event>
 7    1  0.2886818E-013  0.7246159E+02  0.7816164E-02  0.1226708E+00
        -11   -1    0    0    0    0  0.00000000000E+00  0.00000000000E+00  0.45593999997E+02  0.45594000000E+02  0.51100000000E-03 0.  1.
         11   -1    0    0    0    0 -0.00000000000E+00 -0.00000000000E+00 -0.45593999997E+02  0.45594000000E+02  0.51100000000E-03 0. -1.
    9900012    2    1    2    0    0  0.16015178796E+02  0.75799454450E+01  0.60611019287E+01  0.72461588667E+02  0.70000023934E+02 0.  0.
         12    1    1    2    0    0 -0.16015178796E+02 -0.75799454450E+01 -0.60611019287E+01  0.18726411333E+02  0.00000000000E+00 0. -1.
         11    1    3    3    0    0  0.19578700160E+02  0.14315279338E+02 -0.18492459838E+02  0.30499570384E+02  0.51100000000E-03 0. -1.
        -11    1    3    3    0    0 -0.12030522320E+02  0.54553630128E+01 -0.71329743555E-01  0.13209827443E+02  0.51100000000E-03 0.  1.
        -12    1    3    3    0    0  0.84670009559E+01 -0.12190696905E+02  0.24624891510E+02  0.28752190841E+02  0.00000000000E+00 0.  1.
</event>
<event>
 7    1  0.2886818E-013  0.7246156E+02  0.7816164E-02  0.1226708E+00
        -11   -1    0    0    0    0  0.00000000000E+00  0.00000000000E+00  0.45593999997E+02  0.45594000000E+02  0.51100000000E-03 0. -1.
         11   -1    0    0    0    0 -0.00000000000E+00 -0.00000000000E+00 -0.45593999997E+02  0.45594000000E+02  0.51100000000E-03 0.  1.
    9900012    2    1    2    0    0  0.26368325878E+01 -0.17826735785E+02 -0.50925433437E+01  0.72461564340E+02  0.69999992243E+02 0.  0.
         12    1    1    2    0    0 -0.26368325878E+01  0.17826735785E+02  0.50925433437E+01  0.18726435660E+02  0.00000000000E+00 0. -1.
         11    1    3    3    0    0  0.49006980258E+01 -0.46649199350E+01  0.13662621744E+02  0.15246165168E+02  0.51100000000E-03 0. -1.
        -11    1    3    3    0    0 -0.90114836259E+01 -0.32092006795E+02 -0.74448823730E+01  0.34154502061E+02  0.51100000000E-03 0.  1.
         12    1    3    3    0    0  0.67476181880E+01  0.18930190945E+02 -0.11310282715E+02  0.23060897110E+02  0.00000000000E+00 0. -1.
</event>
<event>
 7    1  0.2886818E-013  0.7246144E+02  0.7816164E-02  0.1226708E+00
        -11   -1    0    0    0    0  0.00000000000E+00  0.00000000000E+00  0.45593999997E+02  0.45594000000E+02  0.51100000000E-03 0. -1.
         11   -1    0    0    0    0 -0.00000000000E+00 -0.00000000000E+00 -0.45593999997E+02  0.45594000000E+02  0.51100000000E-03 0.  1.
    9900012    2    1    2    0    0  0.13338995416E+02 -0.12014174905E+02 -0.53305418939E+01  0.72461444678E+02  0.69999836361E+02 0.  0.
         12    1    1    2    0    0 -0.13338995416E+02  0.12014174905E+02  0.53305418939E+01  0.18726555322E+02  0.00000000000E+00 0. -1.
         11    1    3    3    0    0 -0.12147163839E+02  0.15999405978E+02  0.70494223313E+01  0.21289174160E+02  0.51100000000E-03 0. -1.
        -11    1    3    3    0    0  0.89961982906E+01 -0.21358034041E+01 -0.17756503344E+02  0.20019656618E+02  0.51100000000E-03 0.  1.
         12    1    3    3    0    0  0.16489960964E+02 -0.25877777478E+02  0.53765391185E+01  0.31152613899E+02  0.00000000000E+00 0. -1.
</event>
<event>
 7    1  0.2886818E-013  0.7246161E+02  0.7816164E-02  0.1226708E+00
        -11   -1    0    0    0    0  0.00000000000E+00  0.00000000000E+00  0.45593999997E+02  0.45594000000E+02  0.51100000000E-03 0. -1.
         11   -1    0    0    0    0 -0.00000000000E+00 -0.00000000000E+00 -0.45593999997E+02  0.45594000000E+02  0.51100000000E-03 0.  1.
    9900012    2    1    2    0    0  0.18690072869E+02 -0.88385222470E+00 -0.76004956408E+00  0.72461609693E+02  0.70000051324E+02 0.  0.
         12    1    1    2    0    0 -0.18690072869E+02  0.88385222470E+00  0.76004956408E+00  0.18726390307E+02  0.00000000000E+00 0. -1.
         11    1    3    3    0    0  0.18919126203E+02  0.71714875808E+01  0.79680786500E+01  0.21745202874E+02  0.51100000000E-03 0. -1.
        -11    1    3    3    0    0 -0.16585120528E+02  0.32778825479E+01 -0.21288706186E+02  0.27184917662E+02  0.51100000000E-03 0.  1.
         12    1    3    3    0    0  0.16356067194E+02 -0.11333222353E+02  0.12560577972E+02  0.23531489157E+02  0.00000000000E+00 0. -1.
</event>
<event>
 7    1  0.2886818E-013  0.7246152E+02  0.7816164E-02  0.1226708E+00
        -11   -1    0    0    0    0  0.00000000000E+00  0.00000000000E+00  0.45593999997E+02  0.45594000000E+02  0.51100000000E-03 0. -1.
         11   -1    0    0    0    0 -0.00000000000E+00 -0.00000000000E+00 -0.45593999997E+02  0.45594000000E+02  0.51100000000E-03 0.  1.
    9900012    2    1    2    0    0 -0.48258301577E+01 -0.10407541025E+02 -0.14801201003E+02  0.72461518803E+02  0.69999932923E+02 0.  0.
         12    1    1    2    0    0  0.48258301577E+01  0.10407541025E+02  0.14801201003E+02  0.18726481197E+02  0.00000000000E+00 0. -1.
         11    1    3    3    0    0  0.55989158063E+01 -0.60543660950E+01  0.80976309343E+01  0.11557457940E+02  0.51100000000E-03 0. -1.
        -11    1    3    3    0    0 -0.12464073328E+02 -0.23949310886E+02 -0.29628420205E+02  0.40084484529E+02  0.51100000000E-03 0.  1.
         12    1    3    3    0    0  0.20393273641E+01  0.19596135956E+02  0.67295882681E+01  0.20819576334E+02  0.00000000000E+00 0. -1.
</event>
<event>
 7    1  0.2886818E-013  0.7246151E+02  0.7816164E-02  0.1226708E+00
        -11   -1    0    0    0    0  0.00000000000E+00  0.00000000000E+00  0.45593999997E+02  0.45594000000E+02  0.51100000000E-03 0.  1.
         11   -1    0    0    0    0 -0.00000000000E+00 -0.00000000000E+00 -0.45593999997E+02  0.45594000000E+02  0.51100000000E-03 0. -1.
    9900012    2    1    2    0    0  0.37034420409E+01  0.10333678960E+02 -0.15171716714E+02  0.72461510958E+02  0.69999922703E+02 0.  0.
         12    1    1    2    0    0 -0.37034420409E+01 -0.10333678960E+02  0.15171716714E+02  0.18726489042E+02  0.00000000000E+00 0. -1.
         11    1    3    3    0    0 -0.71048261879E+01  0.83455371758E+01 -0.12553870291E+01  0.11031887543E+02  0.51100000000E-03 0. -1.
        -11    1    3    3    0    0  0.10916390708E+02  0.28334700329E+02 -0.17169322538E+02  0.34882781791E+02  0.51100000000E-03 0.  1.
        -12    1    3    3    0    0 -0.10812247886E+00 -0.26346558545E+02  0.32529928529E+01  0.26546841623E+02  0.00000000000E+00 0.  1.
</event>
<event>
 7    1  0.2886818E-013  0.7246152E+02  0.7816164E-02  0.1226708E+00
        -11   -1    0    0    0    0  0.00000000000E+00  0.00000000000E+00  0.45593999997E+02  0.45594000000E+02  0.51100000000E-03 0.  1.
         11   -1    0    0    0    0 -0.00000000000E+00 -0.00000000000E+00 -0.45593999997E+02  0.45594000000E+02  0.51100000000E-03 0. -1.
    9900012    2    1    2    0    0  0.59859159035E+01  0.12549604895E+02 -0.12544217639E+02  0.72461516924E+02  0.69999930475E+02 0.  0.
         12    1    1    2    0    0 -0.59859159035E+01 -0.12549604895E+02  0.12544217639E+02  0.18726483076E+02  0.00000000000E+00 0. -1.
         11    1    3    3    0    0 -0.12442850941E+02  0.15451470553E+02  0.37905719326E+01  0.20197547317E+02  0.51100000000E-03 0. -1.
        -11    1    3    3    0    0 -0.65206460559E+01  0.14387963244E+02  0.32662184986E+01  0.16130731379E+02  0.51100000000E-03 0.  1.
         12    1    3    3    0    0  0.24949412900E+02 -0.17289828901E+02 -0.19601008070E+02  0.36133238228E+02  0.00000000000E+00 0. -1.
</event>
<event>
 7    1  0.2886818E-013  0.7246157E+02  0.7816164E-02  0.1226708E+00
        -11   -1    0    0    0    0  0.00000000000E+00  0.00000000000E+00  0.45593999997E+02  0.45594000000E+02  0.51100000000E-03 0.  1.
         11   -1    0    0    0    0 -0.00000000000E+00 -0.00000000000E+00 -0.45593999997E+02  0.45594000000E+02  0.51100000000E-03 0. -1.
    9900012    2    1    2    0    0  0.71936409000E+01  0.96704789064E+01  0.14332218186E+02  0.72461571888E+02  0.70000002077E+02 0.  0.
         12    1    1    2    0    0 -0.71936409000E+01 -0.96704789064E+01 -0.14332218186E+02  0.18726428112E+02  0.00000000000E+00 0. -1.
         11    1    3    3    0    0  0.55508626332E+01 -0.12735881032E+02  0.27224720534E+02  0.30564687959E+02  0.51100000000E-03 0.  1.
        -11    1    3    3    0    0 -0.13132655591E+02  0.10356917951E+02  0.31022164011E+01  0.17010471457E+02  0.51100000000E-03 0. -1.
         12    1    3    3    0    0  0.14775433858E+02  0.12049441988E+02 -0.15994718749E+02  0.24886412473E+02  0.00000000000E+00 0. -1.
</event>
<event>
 7    1  0.2886818E-013  0.7246159E+02  0.7816164E-02  0.1226708E+00
        -11   -1    0    0    0    0  0.00000000000E+00  0.00000000000E+00  0.45593999997E+02  0.45594000000E+02  0.51100000000E-03 0. -1.
         11   -1    0    0    0    0 -0.00000000000E+00 -0.00000000000E+00 -0.45593999997E+02  0.45594000000E+02  0.51100000000E-03 0.  1.
    9900012    2    1    2    0    0 -0.14439995433E+02  0.11819366246E+02 -0.15708852205E+01  0.72461586384E+02  0.70000020959E+02 0.  0.
         12    1    1    2    0    0  0.14439995433E+02 -0.11819366246E+02  0.15708852205E+01  0.18726413616E+02  0.00000000000E+00 0. -1.
         11    1    3    3    0    0 -0.27874928683E+02 -0.80561653102E+01  0.15887460777E+02  0.33080581294E+02  0.51100000000E-03 0. -1.
        -11    1    3    3    0    0 -0.25892198120E+01 -0.37279192031E+01 -0.82265864529E+01  0.93956461059E+01  0.51100000000E-03 0.  1.
        -12    1    3    3    0    0  0.16024153061E+02  0.23603450759E+02 -0.92317595449E+01  0.29985358983E+02  0.00000000000E+00 0.  1.
</event>
<event>
 7    1  0.2886818E-013  0.7246164E+02  0.7816164E-02  0.1226708E+00
        -11   -1    0    0    0    0  0.00000000000E+00  0.00000000000E+00  0.45593999997E+02  0.45594000000E+02  0.51100000000E-03 0.  1.
         11   -1    0    0    0    0 -0.00000000000E+00 -0.00000000000E+00 -0.45593999997E+02  0.45594000000E+02  0.51100000000E-03 0. -1.
    9900012    2    1    2    0    0  0.14239220098E+02  0.12061303413E+02  0.15639564087E+01  0.72461644544E+02  0.70000096724E+02 0.  0.
         12    1    1    2    0    0 -0.14239220098E+02 -0.12061303413E+02 -0.15639564087E+01  0.18726355456E+02  0.00000000000E+00 0. -1.
         11    1    3    3    0    0 -0.54888464052E+01  0.20449736577E+02  0.60557313888E+01  0.22022512206E+02  0.51100000000E-03 0. -1.
        -11    1    3    3    0    0  0.32748003616E+02  0.75552280302E-01  0.35697942320E+01  0.32942083725E+02  0.51100000000E-03 0.  1.
         12    1    3    3    0    0 -0.13019937113E+02 -0.84639854440E+01 -0.80615692121E+01  0.17497048614E+02  0.00000000000E+00 0. -1.
</event>
<event>
 7    1  0.2886818E-013  0.7246159E+02  0.7816164E-02  0.1226708E+00
        -11   -1    0    0    0    0  0.00000000000E+00  0.00000000000E+00  0.45593999997E+02  0.45594000000E+02  0.51100000000E-03 0. -1.
         11   -1    0    0    0    0 -0.00000000000E+00 -0.00000000000E+00 -0.45593999997E+02  0.45594000000E+02  0.51100000000E-03 0.  1.
    9900012    2    1    2    0    0  0.16635838054E+02  0.48825023092E+01  0.70773107742E+01  0.72461594463E+02  0.70000031484E+02 0.  0.
         12    1    1    2    0    0 -0.16635838054E+02 -0.48825023092E+01 -0.70773107742E+01  0.18726405537E+02  0.00000000000E+00 0. -1.
         11    1    3    3    0    0  0.14627444781E+02  0.18413577531E+02  0.73876592873E+01  0.24649533228E+02  0.51100000000E-03 0. -1.
        -11    1    3    3    0    0  0.17511315793E+02  0.90069244761E+01 -0.43323946240E+01  0.20162849818E+02  0.51100000000E-03 0.  1.
         12    1    3    3    0    0 -0.15502922521E+02 -0.22537999698E+02  0.40220461109E+01  0.27649211417E+02  0.00000000000E+00 0. -1.
</event>
<event>
 7    1  0.2886818E-013  0.7246158E+02  0.7816164E-02  0.1226708E+00
        -11   -1    0    0    0    0  0.00000000000E+00  0.00000000000E+00  0.45593999997E+02  0.45594000000E+02  0.51100000000E-03 0.  1.
         11   -1    0    0    0    0 -0.00000000000E+00 -0.00000000000E+00 -0.45593999997E+02  0.45594000000E+02  0.51100000000E-03 0. -1.
    9900012    2    1    2    0    0  0.27465157654E+01 -0.10928567499E+02  0.14956669180E+02  0.72461577774E+02  0.70000009744E+02 0.  0.
         12    1    1    2    0    0 -0.27465157654E+01  0.10928567499E+02 -0.14956669180E+02  0.18726422226E+02  0.00000000000E+00 0. -1.
         11    1    3    3    0    0  0.74232585047E+00 -0.53029701284E+01 -0.21888659443E+02  0.22534106424E+02  0.51100000000E-03 0. -1.
        -11    1    3    3    0    0 -0.95409721101E+01 -0.15226490137E+02  0.25074662349E+02  0.30848255103E+02  0.51100000000E-03 0.  1.
         12    1    3    3    0    0  0.11545162025E+02  0.96008927664E+01  0.11770666274E+02  0.19079216248E+02  0.00000000000E+00 0. -1.
</event>
<event>
 7    1  0.2886818E-013  0.7246135E+02  0.7816164E-02  0.1226709E+00
        -11   -1    0    0    0    0  0.00000000000E+00  0.00000000000E+00  0.45593999997E+02  0.45594000000E+02  0.51100000000E-03 0. -1.
         11   -1    0    0    0    0 -0.00000000000E+00 -0.00000000000E+00 -0.45593999997E+02  0.45594000000E+02  0.51100000000E-03 0.  1.
    9900012    2    1    2    0    0  0.14494761304E+02 -0.60467692193E+01 -0.10199310434E+02  0.72461349030E+02  0.69999711761E+02 0.  0.
         12    1    1    2    0    0 -0.14494761304E+02  0.60467692193E+01  0.10199310434E+02  0.18726650970E+02  0.00000000000E+00 0. -1.
         11    1    3    3    0    0 -0.89521034498E+01 -0.22279335794E+02  0.62425368227E+01  0.24808833625E+02  0.51100000000E-03 0. -1.
        -11    1    3    3    0    0  0.83758555771E+00 -0.55547568751E+01  0.66291565170E+01  0.86892226290E+01  0.51100000000E-03 0.  1.
        -12    1    3    3    0    0  0.22609279196E+02  0.21787323449E+02 -0.23071003773E+02  0.38963292776E+02  0.00000000000E+00 0.  1.
</event>
<event>
 7    1  0.2886818E-013  0.7246166E+02  0.7816164E-02  0.1226708E+00
        -11   -1    0    0    0    0  0.00000000000E+00  0.00000000000E+00  0.45593999997E+02  0.45594000000E+02  0.51100000000E-03 0.  1.
         11   -1    0    0    0    0 -0.00000000000E+00 -0.00000000000E+00 -0.45593999997E+02  0.45594000000E+02  0.51100000000E-03 0. -1.
    9900012    2    1    2    0    0 -0.10636171336E+02 -0.56498637040E+01  0.14339689927E+02  0.72461660054E+02  0.70000116929E+02 0.  0.
         12    1    1    2    0    0  0.10636171336E+02  0.56498637040E+01 -0.14339689927E+02  0.18726339946E+02  0.00000000000E+00 0. -1.
         11    1    3    3    0    0  0.14502184570E+02  0.26075863527E+01 -0.10415522047E+02  0.18044277865E+02  0.51100000000E-03 0. -1.
        -11    1    3    3    0    0  0.10441345748E+02 -0.73825551675E+01  0.51629078010E+01  0.13790556154E+02  0.51100000000E-03 0.  1.
         12    1    3    3    0    0 -0.35579701654E+02 -0.87489488917E+00  0.19592304173E+02  0.40626826035E+02  0.00000000000E+00 0. -1.
</event>
<event>
 7    1  0.2886818E-013  0.7246159E+02  0.7816164E-02  0.1226708E+00
        -11   -1    0    0    0    0  0.00000000000E+00  0.00000000000E+00  0.45593999997E+02  0.45594000000E+02  0.51100000000E-03 0. -1.
         11   -1    0    0    0    0 -0.00000000000E+00 -0.00000000000E+00 -0.45593999997E+02  0.45594000000E+02  0.51100000000E-03 0.  1.
    9900012    2    1    2    0    0  0.17296024879E+01 -0.38057956571E+00 -0.18642476404E+02  0.72461593723E+02  0.70000030520E+02 0.  0.
         12    1    1    2    0    0 -0.17296024879E+01  0.38057956571E+00  0.18642476404E+02  0.18726406277E+02  0.00000000000E+00 0. -1.
         11    1    3    3    0    0 -0.45300606312E+01 -0.45321692608E+01  0.73834465300E+01  0.97763638667E+01  0.51100000000E-03 0. -1.
        -11    1    3    3    0    0 -0.22621479565E+02  0.13655543360E+02 -0.94990957723E+01  0.28079138571E+02  0.51100000000E-03 0.  1.
         12    1    3    3    0    0  0.28881142684E+02 -0.95039536647E+01 -0.16526827162E+02  0.34606091285E+02  0.00000000000E+00 0. -1.
</event>
<event>
 7    1  0.2886818E-013  0.7246181E+02  0.7816164E-02  0.1226707E+00
        -11   -1    0    0    0    0  0.00000000000E+00  0.00000000000E+00  0.45593999997E+02  0.45594000000E+02  0.51100000000E-03 0. -1.
         11   -1    0    0    0    0 -0.00000000000E+00 -0.00000000000E+00 -0.45593999997E+02  0.45594000000E+02  0.51100000000E-03 0.  1.
    9900012    2    1    2    0    0 -0.44300484196E+01  0.11754310681E+02 -0.13888167473E+02  0.72461805930E+02  0.70000306959E+02 0.  0.
         12    1    1    2    0    0  0.44300484196E+01 -0.11754310681E+02  0.13888167473E+02  0.18726194070E+02  0.00000000000E+00 0. -1.
         11    1    3    3    0    0 -0.45144631585E+01  0.66949069939E+01 -0.65375273130E+01  0.10389486075E+02  0.51100000000E-03 0.  1.
        -11    1    3    3    0    0  0.14483842324E+02 -0.14438494820E+02 -0.24845138826E+02  0.32179694602E+02  0.51100000000E-03 0. -1.
         12    1    3    3    0    0 -0.14399427586E+02  0.19497898507E+02  0.17494498666E+02  0.29892625253E+02  0.00000000000E+00 0. -1.
</event>
<event>
 7    1  0.2886818E-013  0.7246138E+02  0.7816164E-02  0.1226709E+00
        -11   -1    0    0    0    0  0.00000000000E+00  0.00000000000E+00  0.45593999997E+02  0.45594000000E+02  0.51100000000E-03 0. -1.
         11   -1    0    0    0    0 -0.00000000000E+00 -0.00000000000E+00 -0.45593999997E+02  0.45594000000E+02  0.51100000000E-03 0.  1.
    9900012    2    1    2    0    0 -0.17032409517E+02  0.77260615789E+01  0.94400282939E+00  0.72461384107E+02  0.69999757456E+02 0.  0.
         12    1    1    2    0    0  0.17032409517E+02 -0.77260615789E+01 -0.94400282939E+00  0.18726615893E+02  0.00000000000E+00 0. -1.
         11    1    3    3    0    0  0.83112639345E+01 -0.16242567652E+02  0.58393906990E+01  0.19157155220E+02  0.51100000000E-03 0. -1.
        -11    1    3    3    0    0 -0.85051103362E+00  0.11584885978E+02 -0.19134628641E+02  0.22384525138E+02  0.51100000000E-03 0.  1.
        -12    1    3    3    0    0 -0.24493162417E+02  0.12383743254E+02  0.14239240772E+02  0.30919703749E+02  0.00000000000E+00 0.  1.
</event>
<event>
 7    1  0.2886818E-013  0.7246158E+02  0.7816164E-02  0.1226708E+00
        -11   -1    0    0    0    0  0.00000000000E+00  0.00000000000E+00  0.45593999997E+02  0.45594000000E+02  0.51100000000E-03 0. -1.
         11   -1    0    0    0    0 -0.00000000000E+00 -0.00000000000E+00 -0.45593999997E+02  0.45594000000E+02  0.51100000000E-03 0.  1.
    9900012    2    1    2    0    0 -0.17205143692E+01  0.53961663393E+01 -0.17849371093E+02  0.72461579380E+02  0.70000011835E+02 0.  0.
         12    1    1    2    0    0  0.17205143692E+01 -0.53961663393E+01  0.17849371093E+02  0.18726420620E+02  0.00000000000E+00 0. -1.
         11    1    3    3    0    0  0.10394394411E+02 -0.94038127463E+01  0.12434698399E+02  0.18737578655E+02  0.51100000000E-03 0. -1.
        -11    1    3    3    0    0  0.12772566113E+02  0.10215510611E+02 -0.21333706777E+02  0.26881632154E+02  0.51100000000E-03 0.  1.
        -12    1    3    3    0    0 -0.24887474893E+02  0.45844684747E+01 -0.89503627144E+01  0.26842368570E+02  0.00000000000E+00 0.  1.
</event>
<event>
 7    1  0.2886818E-013  0.7246158E+02  0.7816164E-02  0.1226708E+00
        -11   -1    0    0    0    0  0.00000000000E+00  0.00000000000E+00  0.45593999997E+02  0.45594000000E+02  0.51100000000E-03 0. -1.
         11   -1    0    0    0    0 -0.00000000000E+00 -0.00000000000E+00 -0.45593999997E+02  0.45594000000E+02  0.51100000000E-03 0.  1.
    9900012    2    1    2    0    0  0.78792227962E+01  0.16904282355E+02 -0.16858109406E+01  0.72461578229E+02  0.70000010336E+02 0.  0.
         12    1    1    2    0    0 -0.78792227962E+01 -0.16904282355E+02  0.16858109406E+01  0.18726421771E+02  0.00000000000E+00 0. -1.
         11    1    3    3    0    0  0.22967433411E+02  0.26674189164E+02  0.20008259379E+02  0.40488835606E+02  0.51100000000E-03 0. -1.
        -11    1    3    3    0    0 -0.46227033329E+01  0.40475790195E+01 -0.52946382825E+01  0.81108246700E+01  0.51100000000E-03 0.  1.
        -12    1    3    3    0    0 -0.10465507282E+02 -0.13817485828E+02 -0.16399432037E+02  0.23861917953E+02  0.00000000000E+00 0.  1.
</event>
<event>
 7    1  0.2886818E-013  0.7246157E+02  0.7816164E-02  0.1226708E+00
        -11   -1    0    0    0    0  0.00000000000E+00  0.00000000000E+00  0.45593999997E+02  0.45594000000E+02  0.51100000000E-03 0.  1.
         11   -1    0    0    0    0 -0.00000000000E+00 -0.00000000000E+00 -0.45593999997E+02  0.45594000000E+02  0.51100000000E-03 0. -1.
    9900012    2    1    2    0    0  0.18405857472E+02 -0.94136525385E+00 -0.33192619172E+01  0.72461567946E+02  0.69999996940E+02 0.  0.
         12    1    1    2    0    0 -0.18405857472E+02  0.94136525385E+00  0.33192619172E+01  0.18726432054E+02  0.00000000000E+00 0. -1.
         11    1    3    3    0    0 -0.87506717626E+01 -0.23210634910E+02 -0.83527468963E+01  0.26173960537E+02  0.51100000000E-03 0. -1.
        -11    1    3    3    0    0 -0.89225597201E+00 -0.60531829558E+01  0.71564369798E-01  0.61190086073E+01  0.51100000000E-03 0.  1.
         12    1    3    3    0    0  0.28048785206E+02  0.28322452612E+02  0.49619206094E+01  0.40168598801E+02  0.00000000000E+00 0. -1.
</event>
<event>
 7    1  0.2886818E-013  0.7246163E+02  0.7816164E-02  0.1226708E+00
        -11   -1    0    0    0    0  0.00000000000E+00  0.00000000000E+00  0.45593999997E+02  0.45594000000E+02  0.51100000000E-03 0.  1.
         11   -1    0    0    0    0 -0.00000000000E+00 -0.00000000000E+00 -0.45593999997E+02  0.45594000000E+02  0.51100000000E-03 0. -1.
    9900012    2    1    2    0    0  0.18272991325E+02  0.96606496863E+00  0.39801136765E+01  0.72461633604E+02  0.70000082473E+02 0.  0.
         12    1    1    2    0    0 -0.18272991325E+02 -0.96606496863E+00 -0.39801136765E+01  0.18726366396E+02  0.00000000000E+00 0. -1.
         11    1    3    3    0    0  0.15616322598E+02  0.20111888764E+01 -0.40279954159E+01  0.16252358583E+02  0.51100000000E-03 0. -1.
        -11    1    3    3    0    0  0.34239016632E+01 -0.26815944009E+02 -0.47424021577E+01  0.27446463054E+02  0.51100000000E-03 0.  1.
        -12    1    3    3    0    0 -0.76723293621E+00  0.25770820102E+02  0.12750511250E+02  0.28762811967E+02  0.00000000000E+00 0.  1.
</event>
<event>
 7    1  0.2886818E-013  0.7246160E+02  0.7816164E-02  0.1226708E+00
        -11   -1    0    0    0    0  0.00000000000E+00  0.00000000000E+00  0.45593999997E+02  0.45594000000E+02  0.51100000000E-03 0.  1.
         11   -1    0    0    0    0 -0.00000000000E+00 -0.00000000000E+00 -0.45593999997E+02  0.45594000000E+02  0.51100000000E-03 0. -1.
    9900012    2    1    2    0    0  0.13946034607E+02  0.83823023558E+01  0.92694858462E+01  0.72461595062E+02  0.70000032265E+02 0.  0.
         12    1    1    2    0    0 -0.13946034607E+02 -0.83823023558E+01 -0.92694858462E+01  0.18726404938E+02  0.00000000000E+00 0. -1.
         11    1    3    3    0    0 -0.64285813880E+01 -0.96488701572E+01  0.20443996223E+02  0.23502858034E+02  0.51100000000E-03 0. -1.
        -11    1    3    3    0    0  0.71131528477E+01  0.22905688920E+02  0.78722661005E+01  0.25243615077E+02  0.51100000000E-03 0.  1.
         12    1    3    3    0    0  0.13261463147E+02 -0.48745164065E+01 -0.19046776477E+02  0.23715121951E+02  0.00000000000E+00 0. -1.
</event>
<event>
 7    1  0.2886818E-013  0.7246187E+02  0.7816164E-02  0.1226707E+00
        -11   -1    0    0    0    0  0.00000000000E+00  0.00000000000E+00  0.45593999997E+02  0.45594000000E+02  0.51100000000E-03 0. -1.
         11   -1    0    0    0    0 -0.00000000000E+00 -0.00000000000E+00 -0.45593999997E+02  0.45594000000E+02  0.51100000000E-03 0.  1.
    9900012    2    1    2    0    0  0.30984545877E+01 -0.10007072045E+02 -0.15521797190E+02  0.72461865862E+02  0.70000385030E+02 0.  0.
         12    1    1    2    0    0 -0.30984545877E+01  0.10007072045E+02  0.15521797190E+02  0.18726134138E+02  0.00000000000E+00 0. -1.
         11    1    3    3    0    0  0.86975312804E-01 -0.32500896223E+01 -0.80527859059E+00  0.33494956528E+01  0.51100000000E-03 0. -1.
        -11    1    3    3    0    0  0.64388629876E+01 -0.27651109076E+02 -0.31270347270E+02  0.42235972918E+02  0.51100000000E-03 0.  1.
         12    1    3    3    0    0 -0.34273837127E+01  0.20894126653E+02  0.16553828670E+02  0.26876397291E+02  0.00000000000E+00 0. -1.
</event>
<event>
 7    1  0.2886818E-013  0.7246166E+02  0.7816164E-02  0.1226708E+00
        -11   -1    0    0    0    0  0.00000000000E+00  0.00000000000E+00  0.45593999997E+02  0.45594000000E+02  0.51100000000E-03 0.  1.
         11   -1    0    0    0    0 -0.00000000000E+00 -0.00000000000E+00 -0.45593999997E+02  0.45594000000E+02  0.51100000000E-03 0. -1.
    9900012    2    1    2    0    0 -0.52478778859E+01  0.17387229416E+02 -0.45628589852E+01  0.72461664234E+02  0.70000122374E+02 0.  0.
         12    1    1    2    0    0  0.52478778859E+01 -0.17387229416E+02  0.45628589852E+01  0.18726335766E+02  0.00000000000E+00 0. -1.
         11    1    3    3    0    0  0.22448679089E+01 -0.19948756011E+02 -0.14122132596E+02  0.24544386886E+02  0.51100000000E-03 0. -1.
        -11    1    3    3    0    0  0.10328538142E+02  0.15807711327E+02  0.55644976070E+01  0.19685681889E+02  0.51100000000E-03 0.  1.
        -12    1    3    3    0    0 -0.17821283937E+02  0.21528274100E+02  0.39947760034E+01  0.28231595460E+02  0.00000000000E+00 0.  1.
</event>
<event>
 7    1  0.2886818E-013  0.7246157E+02  0.7816164E-02  0.1226708E+00
        -11   -1    0    0    0    0  0.00000000000E+00  0.00000000000E+00  0.45593999997E+02  0.45594000000E+02  0.51100000000E-03 0.  1.
         11   -1    0    0    0    0 -0.00000000000E+00 -0.00000000000E+00 -0.45593999997E+02  0.45594000000E+02  0.51100000000E-03 0. -1.
    9900012    2    1    2    0    0 -0.98762100433E+01 -0.11282356244E+02  0.11218204412E+02  0.72461569549E+02  0.69999999029E+02 0.  0.
         12    1    1    2    0    0  0.98762100433E+01  0.11282356244E+02 -0.11218204412E+02  0.18726430451E+02  0.00000000000E+00 0. -1.
         11    1    3    3    0    0  0.13956454793E+02 -0.11797134969E+02 -0.81912168298E+01  0.20026259193E+02  0.51100000000E-03 0. -1.
        -11    1    3    3    0    0  0.46454331699E+01  0.12188515903E+02 -0.41362021131E+01  0.13683864126E+02  0.51100000000E-03 0.  1.
        -12    1    3    3    0    0 -0.28478098006E+02 -0.11673737177E+02  0.23545623354E+02  0.38751446229E+02  0.00000000000E+00 0.  1.
</event>
<event>
 7    1  0.2886818E-013  0.7246160E+02  0.7816164E-02  0.1226708E+00
        -11   -1    0    0    0    0  0.00000000000E+00  0.00000000000E+00  0.45593999997E+02  0.45594000000E+02  0.51100000000E-03 0.  1.
         11   -1    0    0    0    0 -0.00000000000E+00 -0.00000000000E+00 -0.45593999997E+02  0.45594000000E+02  0.51100000000E-03 0. -1.
    9900012    2    1    2    0    0  0.17032548420E+02  0.33968315893E+01 -0.70022885217E+01  0.72461595779E+02  0.70000033198E+02 0.  0.
         12    1    1    2    0    0 -0.17032548420E+02 -0.33968315893E+01  0.70022885217E+01  0.18726404221E+02  0.00000000000E+00 0. -1.
         11    1    3    3    0    0  0.49094661943E+01  0.34720478038E+01 -0.17161598727E+02  0.18184566132E+02  0.51100000000E-03 0. -1.
        -11    1    3    3    0    0  0.22850062012E+02  0.16560708582E+02  0.17453423270E+02  0.33181386149E+02  0.51100000000E-03 0.  1.
         12    1    3    3    0    0 -0.10726979787E+02 -0.16635924796E+02 -0.72941130648E+01  0.21095643497E+02  0.00000000000E+00 0. -1.
</event>
<event>
 7    1  0.2886818E-013  0.7246156E+02  0.7816164E-02  0.1226708E+00
        -11   -1    0    0    0    0  0.00000000000E+00  0.00000000000E+00  0.45593999997E+02  0.45594000000E+02  0.51100000000E-03 0. -1.
         11   -1    0    0    0    0 -0.00000000000E+00 -0.00000000000E+00 -0.45593999997E+02  0.45594000000E+02  0.51100000000E-03 0.  1.
    9900012    2    1    2    0    0 -0.43474287491E+01  0.43757466383E+01 -0.17681405204E+02  0.72461564531E+02  0.69999992492E+02 0.  0.
         12    1    1    2    0    0  0.43474287491E+01 -0.43757466383E+01  0.17681405204E+02  0.18726435469E+02  0.00000000000E+00 0. -1.
         11    1    3    3    0    0  0.27291597482E+02 -0.19143170313E+01 -0.73429092030E+01  0.28326916857E+02  0.51100000000E-03 0. -1.
        -11    1    3    3    0    0 -0.38368572058E+01  0.11929764050E+02 -0.95492088316E+01  0.15755257315E+02  0.51100000000E-03 0.  1.
         12    1    3    3    0    0 -0.27802169025E+02 -0.56397003803E+01 -0.78928716972E+00  0.28379390359E+02  0.00000000000E+00 0. -1.
</event>
<event>
 7    1  0.2886818E-013  0.7246151E+02  0.7816164E-02  0.1226708E+00
        -11   -1    0    0    0    0  0.00000000000E+00  0.00000000000E+00  0.45593999997E+02  0.45594000000E+02  0.51100000000E-03 0. -1.
         11   -1    0    0    0    0 -0.00000000000E+00 -0.00000000000E+00 -0.45593999997E+02  0.45594000000E+02  0.51100000000E-03 0.  1.
    9900012    2    1    2    0    0  0.11667625731E+02 -0.11340216870E+02 -0.92707871383E+01  0.72461507989E+02  0.69999918836E+02 0.  0.
         12    1    1    2    0    0 -0.11667625731E+02  0.11340216870E+02  0.92707871383E+01  0.18726492011E+02  0.00000000000E+00 0. -1.
         11    1    3    3    0    0 -0.55933662939E+00 -0.23526778764E+02 -0.28986347701E+01  0.23711268634E+02  0.51100000000E-03 0. -1.
        -11    1    3    3    0    0  0.24496788362E+02 -0.68356611774E+01 -0.59057421803E+01  0.26109321990E+02  0.51100000000E-03 0.  1.
         12    1    3    3    0    0 -0.12269826002E+02  0.19022223071E+02 -0.46641018791E+00  0.22640917365E+02  0.00000000000E+00 0. -1.
</event>
<event>
 7    1  0.2886818E-013  0.7246163E+02  0.7816164E-02  0.1226708E+00
        -11   -1    0    0    0    0  0.00000000000E+00  0.00000000000E+00  0.45593999997E+02  0.45594000000E+02  0.51100000000E-03 0.  1.
         11   -1    0    0    0    0 -0.00000000000E+00 -0.00000000000E+00 -0.45593999997E+02  0.45594000000E+02  0.51100000000E-03 0. -1.
    9900012    2    1    2    0    0  0.33648383446E+00 -0.81164951259E+01  0.16872648016E+02  0.72461629141E+02  0.70000076658E+02 0.  0.
         12    1    1    2    0    0 -0.33648383446E+00  0.81164951259E+01 -0.16872648016E+02  0.18726370859E+02  0.00000000000E+00 0. -1.
         11    1    3    3    0    0  0.11068975981E+02 -0.15367407856E+02 -0.17736113550E+01  0.19021702105E+02  0.51100000000E-03 0. -1.
        -11    1    3    3    0    0  0.16588422464E+02 -0.79934459356E+01  0.37645562676E+01  0.18794755171E+02  0.51100000000E-03 0.  1.
         12    1    3    3    0    0 -0.27320914611E+02  0.15244358666E+02  0.14881703103E+02  0.34645171865E+02  0.00000000000E+00 0. -1.
</event>
<event>
 7    1  0.2886818E-013  0.7246158E+02  0.7816164E-02  0.1226708E+00
        -11   -1    0    0    0    0  0.00000000000E+00  0.00000000000E+00  0.45593999997E+02  0.45594000000E+02  0.51100000000E-03 0.  1.
         11   -1    0    0    0    0 -0.00000000000E+00 -0.00000000000E+00 -0.45593999997E+02  0.45594000000E+02  0.51100000000E-03 0. -1.
    9900012    2    1    2    0    0  0.11840868532E+02  0.43424264047E+01  0.13842538959E+02  0.72461582310E+02  0.70000015653E+02 0.  0.
         12    1    1    2    0    0 -0.11840868532E+02 -0.43424264047E+01 -0.13842538959E+02  0.18726417690E+02  0.00000000000E+00 0. -1.
         11    1    3    3    0    0  0.89174878508E+00  0.14873056323E+01 -0.13911269643E+02  0.14018941375E+02  0.51100000000E-03 0. -1.
        -11    1    3    3    0    0 -0.95042549999E+01 -0.62119820093E+01 -0.96215569871E+01  0.14882672566E+02  0.51100000000E-03 0.  1.
        -12    1    3    3    0    0  0.20453374747E+02  0.90671027817E+01  0.37375365589E+02  0.43559968369E+02  0.00000000000E+00 0.  1.
</event>
<event>
 7    1  0.2886818E-013  0.7246156E+02  0.7816164E-02  0.1226708E+00
        -11   -1    0    0    0    0  0.00000000000E+00  0.00000000000E+00  0.45593999997E+02  0.45594000000E+02  0.51100000000E-03 0. -1.
         11   -1    0    0    0    0 -0.00000000000E+00 -0.00000000000E+00 -0.45593999997E+02  0.45594000000E+02  0.51100000000E-03 0.  1.
    9900012    2    1    2    0    0 -0.16383568734E+02  0.89446357600E+01  0.15005366130E+01  0.72461562980E+02  0.69999990472E+02 0.  0.
         12    1    1    2    0    0  0.16383568734E+02 -0.89446357600E+01 -0.15005366130E+01  0.18726437020E+02  0.00000000000E+00 0. -1.
         11    1    3    3    0    0 -0.46786574532E+01  0.25643346753E+02 -0.12939195655E+02  0.29101440732E+02  0.51100000000E-03 0. -1.
        -11    1    3    3    0    0 -0.25990265281E+01  0.77248077010E+01 -0.60950213412E+01  0.10177272637E+02  0.51100000000E-03 0.  1.
         12    1    3    3    0    0 -0.91058847528E+01 -0.24423518694E+02  0.20534753609E+02  0.33182849611E+02  0.00000000000E+00 0. -1.
</event>
<event>
 7    1  0.2886818E-013  0.7246157E+02  0.7816164E-02  0.1226708E+00
        -11   -1    0    0    0    0  0.00000000000E+00  0.00000000000E+00  0.45593999997E+02  0.45594000000E+02  0.51100000000E-03 0. -1.
         11   -1    0    0    0    0 -0.00000000000E+00 -0.00000000000E+00 -0.45593999997E+02  0.45594000000E+02  0.51100000000E-03 0.  1.
    9900012    2    1    2    0    0 -0.26054354703E+01  0.59892345814E+01 -0.17550497605E+02  0.72461569719E+02  0.69999999251E+02 0.  0.
         12    1    1    2    0    0  0.26054354703E+01 -0.59892345814E+01  0.17550497605E+02  0.18726430281E+02  0.00000000000E+00 0. -1.
         11    1    3    3    0    0 -0.20119380513E+01 -0.20146779698E+01 -0.16159270950E+02  0.16408194902E+02  0.51100000000E-03 0. -1.
        -11    1    3    3    0    0  0.21394141545E+02  0.19082445910E+02 -0.93886551600E+01  0.30166137975E+02  0.51100000000E-03 0.  1.
         12    1    3    3    0    0 -0.21987638964E+02 -0.11078533359E+02  0.79974285053E+01  0.25887236842E+02  0.00000000000E+00 0. -1.
</event>
<event>
 7    1  0.2886818E-013  0.7246160E+02  0.7816164E-02  0.1226708E+00
        -11   -1    0    0    0    0  0.00000000000E+00  0.00000000000E+00  0.45593999997E+02  0.45594000000E+02  0.51100000000E-03 0.  1.
         11   -1    0    0    0    0 -0.00000000000E+00 -0.00000000000E+00 -0.45593999997E+02  0.45594000000E+02  0.51100000000E-03 0. -1.
    9900012    2    1    2    0    0 -0.15510149951E+02  0.24175035416E+01 -0.10211217036E+02  0.72461600767E+02  0.70000039697E+02 0.  0.
         12    1    1    2    0    0  0.15510149951E+02 -0.24175035416E+01  0.10211217036E+02  0.18726399233E+02  0.00000000000E+00 0. -1.
         11    1    3    3    0    0  0.17282056115E+02  0.15055872889E+02 -0.10193756995E+02  0.25085084292E+02  0.51100000000E-03 0. -1.
        -11    1    3    3    0    0 -0.87989791385E+01  0.61596238849E+01  0.10609268106E+02  0.15097005342E+02  0.51100000000E-03 0.  1.
        -12    1    3    3    0    0 -0.23993226927E+02 -0.18797993232E+02 -0.10626728147E+02  0.32279511134E+02  0.00000000000E+00 0.  1.
</event>
<event>
 7    1  0.2886818E-013  0.7246155E+02  0.7816164E-02  0.1226708E+00
        -11   -1    0    0    0    0  0.00000000000E+00  0.00000000000E+00  0.45593999997E+02  0.45594000000E+02  0.51100000000E-03 0.  1.
         11   -1    0    0    0    0 -0.00000000000E+00 -0.00000000000E+00 -0.45593999997E+02  0.45594000000E+02  0.51100000000E-03 0. -1.
    9900012    2    1    2    0    0  0.14512749930E+02  0.22445526250E+01  0.11619904861E+02  0.72461545023E+02  0.69999967080E+02 0.  0.
         12    1    1    2    0    0 -0.14512749930E+02 -0.22445526250E+01 -0.11619904861E+02  0.18726454977E+02  0.00000000000E+00 0. -1.
         11    1    3    3    0    0 -0.46094399018E+01  0.16588231734E+02 -0.95940992260E+01  0.19709467484E+02  0.51100000000E-03 0. -1.
        -11    1    3    3    0    0 -0.13085820682E+02 -0.76310515968E+01  0.42354574242E+01  0.15729295956E+02  0.51100000000E-03 0.  1.
        -12    1    3    3    0    0  0.32208010514E+02 -0.67126275124E+01  0.16978546663E+02  0.37022781584E+02  0.00000000000E+00 0.  1.
</event>
<event>
 7    1  0.2886818E-013  0.7246157E+02  0.7816164E-02  0.1226708E+00
        -11   -1    0    0    0    0  0.00000000000E+00  0.00000000000E+00  0.45593999997E+02  0.45594000000E+02  0.51100000000E-03 0. -1.
         11   -1    0    0    0    0 -0.00000000000E+00 -0.00000000000E+00 -0.45593999997E+02  0.45594000000E+02  0.51100000000E-03 0.  1.
    9900012    2    1    2    0    0  0.41834734017E+01 -0.16184349775E+02 -0.84406462160E+01  0.72461571192E+02  0.70000001170E+02 0.  0.
         12    1    1    2    0    0 -0.41834734017E+01  0.16184349775E+02  0.84406462160E+01  0.18726428808E+02  0.00000000000E+00 0. -1.
         11    1    3    3    0    0  0.58260396550E+01 -0.34611221819E+01 -0.81862456921E+01  0.10627169125E+02  0.51100000000E-03 0. -1.
        -11    1    3    3    0    0  0.49369997970E+01 -0.36645789089E+02  0.10186785781E+01  0.36990884435E+02  0.51100000000E-03 0.  1.
         12    1    3    3    0    0 -0.65795660503E+01  0.23922561496E+02 -0.12730791020E+01  0.24843517632E+02  0.00000000000E+00 0. -1.
</event>
<event>
 7    1  0.2886818E-013  0.7246152E+02  0.7816164E-02  0.1226708E+00
        -11   -1    0    0    0    0  0.00000000000E+00  0.00000000000E+00  0.45593999997E+02  0.45594000000E+02  0.51100000000E-03 0. -1.
         11   -1    0    0    0    0 -0.00000000000E+00 -0.00000000000E+00 -0.45593999997E+02  0.45594000000E+02  0.51100000000E-03 0.  1.
    9900012    2    1    2    0    0  0.50241831145E+00 -0.16172258539E+02 -0.94279737766E+01  0.72461519820E+02  0.69999934247E+02 0.  0.
         12    1    1    2    0    0 -0.50241831145E+00  0.16172258539E+02  0.94279737766E+01  0.18726480180E+02  0.00000000000E+00 0. -1.
         11    1    3    3    0    0 -0.24520455402E+02 -0.13634380669E+02 -0.11162284438E+01  0.28078373093E+02  0.51100000000E-03 0. -1.
        -11    1    3    3    0    0  0.73272772228E+01 -0.18411307226E+02 -0.32983218088E+01  0.20088408406E+02  0.51100000000E-03 0.  1.
         12    1    3    3    0    0  0.17695596490E+02  0.15873429356E+02 -0.50134235240E+01  0.24294738321E+02  0.00000000000E+00 0. -1.
</event>
<event>
 7    1  0.2886818E-013  0.7246158E+02  0.7816164E-02  0.1226708E+00
        -11   -1    0    0    0    0  0.00000000000E+00  0.00000000000E+00  0.45593999997E+02  0.45594000000E+02  0.51100000000E-03 0.  1.
         11   -1    0    0    0    0 -0.00000000000E+00 -0.00000000000E+00 -0.45593999997E+02  0.45594000000E+02  0.51100000000E-03 0. -1.
    9900012    2    1    2    0    0  0.10039030065E+02 -0.96180376363E+01  0.12545524276E+02  0.72461576103E+02  0.70000007567E+02 0.  0.
         12    1    1    2    0    0 -0.10039030065E+02  0.96180376363E+01 -0.12545524276E+02  0.18726423897E+02  0.00000000000E+00 0. -1.
         11    1    3    3    0    0 -0.15197210897E+02 -0.11703039406E+02 -0.33203237726E+01  0.19466404409E+02  0.51100000000E-03 0. -1.
        -11    1    3    3    0    0 -0.19381415655E+01 -0.17136392298E+02  0.45031892923E+01  0.17823889805E+02  0.51100000000E-03 0.  1.
        -12    1    3    3    0    0  0.27174382527E+02  0.19221394069E+02  0.11362658756E+02  0.35171281889E+02  0.00000000000E+00 0.  1.
</event>
<event>
 7    1  0.2886818E-013  0.7246154E+02  0.7816164E-02  0.1226708E+00
        -11   -1    0    0    0    0  0.00000000000E+00  0.00000000000E+00  0.45593999997E+02  0.45594000000E+02  0.51100000000E-03 0.  1.
         11   -1    0    0    0    0 -0.00000000000E+00 -0.00000000000E+00 -0.45593999997E+02  0.45594000000E+02  0.51100000000E-03 0. -1.
    9900012    2    1    2    0    0 -0.17042592401E+02  0.68449368726E+01  0.36574894131E+01  0.72461538900E+02  0.69999959103E+02 0.  0.
         12    1    1    2    0    0  0.17042592401E+02 -0.68449368726E+01 -0.36574894131E+01  0.18726461100E+02  0.00000000000E+00 0. -1.
         11    1    3    3    0    0  0.14822469422E+02 -0.13624475501E+02  0.97215464575E+01  0.22357110686E+02  0.51100000000E-03 0. -1.
        -11    1    3    3    0    0  0.55135475054E+01  0.74108919952E+01 -0.49838708934E+01  0.10495689382E+02  0.51100000000E-03 0.  1.
        -12    1    3    3    0    0 -0.37378609328E+02  0.13058520378E+02 -0.10801861510E+01  0.39608738832E+02  0.00000000000E+00 0.  1.
</event>
<event>
 7    1  0.2886818E-013  0.7246156E+02  0.7816164E-02  0.1226708E+00
        -11   -1    0    0    0    0  0.00000000000E+00  0.00000000000E+00  0.45593999997E+02  0.45594000000E+02  0.51100000000E-03 0. -1.
         11   -1    0    0    0    0 -0.00000000000E+00 -0.00000000000E+00 -0.45593999997E+02  0.45594000000E+02  0.51100000000E-03 0.  1.
    9900012    2    1    2    0    0 -0.12823156466E+02  0.85099382829E+01 -0.10668984148E+02  0.72461558425E+02  0.69999984538E+02 0.  0.
         12    1    1    2    0    0  0.12823156466E+02 -0.85099382829E+01  0.10668984148E+02  0.18726441575E+02  0.00000000000E+00 0. -1.
         11    1    3    3    0    0 -0.33498685992E+02  0.10893182061E+02 -0.15416422813E+02  0.38451130948E+02  0.51100000000E-03 0. -1.
        -11    1    3    3    0    0 -0.56052632454E+01 -0.32386092704E+01 -0.21584766657E+01  0.68239715587E+01  0.51100000000E-03 0.  1.
         12    1    3    3    0    0  0.26280792771E+02  0.85536549252E+00  0.69059153317E+01  0.27186455918E+02  0.00000000000E+00 0. -1.
</event>
<event>
 7    1  0.2886818E-013  0.7246155E+02  0.7816164E-02  0.1226708E+00
        -11   -1    0    0    0    0  0.00000000000E+00  0.00000000000E+00  0.45593999997E+02  0.45594000000E+02  0.51100000000E-03 0. -1.
         11   -1    0    0    0    0 -0.00000000000E+00 -0.00000000000E+00 -0.45593999997E+02  0.45594000000E+02  0.51100000000E-03 0.  1.
    9900012    2    1    2    0    0  0.14829999562E+02  0.11328902086E+02 -0.15514448243E+01  0.72461551043E+02  0.69999974922E+02 0.  0.
         12    1    1    2    0    0 -0.14829999562E+02 -0.11328902086E+02  0.15514448243E+01  0.18726448957E+02  0.00000000000E+00 0. -1.
         11    1    3    3    0    0 -0.15338200671E+02 -0.80546550216E+01  0.15547151244E+02  0.23277709926E+02  0.51100000000E-03 0. -1.
        -11    1    3    3    0    0 -0.16786379753E+01 -0.34156582642E+01 -0.81691730035E+01  0.90122103090E+01  0.51100000000E-03 0.  1.
        -12    1    3    3    0    0  0.31846838209E+02  0.22799215372E+02 -0.89294230648E+01  0.40171630808E+02  0.00000000000E+00 0.  1.
</event>
<event>
 7    1  0.2886818E-013  0.7246131E+02  0.7816164E-02  0.1226709E+00
        -11   -1    0    0    0    0  0.00000000000E+00  0.00000000000E+00  0.45593999997E+02  0.45594000000E+02  0.51100000000E-03 0. -1.
         11   -1    0    0    0    0 -0.00000000000E+00 -0.00000000000E+00 -0.45593999997E+02  0.45594000000E+02  0.51100000000E-03 0.  1.
    9900012    2    1    2    0    0  0.11059946677E+02 -0.77733766981E+00 -0.15091792924E+02  0.72461310811E+02  0.69999661973E+02 0.  0.
         12    1    1    2    0    0 -0.11059946677E+02  0.77733766981E+00  0.15091792924E+02  0.18726689189E+02  0.00000000000E+00 0. -1.
         11    1    3    3    0    0  0.54032978992E+01  0.14043816684E+02 -0.37470205832E+01  0.15506920350E+02  0.51100000000E-03 0. -1.
        -11    1    3    3    0    0 -0.48561919060E+01  0.18841948983E+02  0.12714162423E+01  0.19499183081E+02  0.51100000000E-03 0.  1.
         12    1    3    3    0    0  0.10512840683E+02 -0.33663103337E+02 -0.12616188583E+02  0.37455207379E+02  0.00000000000E+00 0. -1.
</event>
<event>
 7    1  0.2886818E-013  0.7246170E+02  0.7816164E-02  0.1226708E+00
        -11   -1    0    0    0    0  0.00000000000E+00  0.00000000000E+00  0.45593999997E+02  0.45594000000E+02  0.51100000000E-03 0.  1.
         11   -1    0    0    0    0 -0.00000000000E+00 -0.00000000000E+00 -0.45593999997E+02  0.45594000000E+02  0.51100000000E-03 0. -1.
    9900012    2    1    2    0    0 -0.14032110659E+02 -0.19239684804E+00  0.12399083916E+02  0.72461696893E+02  0.70000164918E+02 0.  0.
         12    1    1    2    0    0  0.14032110659E+02  0.19239684804E+00 -0.12399083916E+02  0.18726303107E+02  0.00000000000E+00 0. -1.
         11    1    3    3    0    0 -0.15748438093E+02  0.40545666199E+01 -0.76735339995E+01  0.17981544348E+02  0.51100000000E-03 0. -1.
        -11    1    3    3    0    0 -0.14128504840E+02  0.96481489381E+01 -0.83977947680E+01  0.19058446531E+02  0.51100000000E-03 0.  1.
        -12    1    3    3    0    0  0.15844832274E+02 -0.13895112406E+02  0.28470412684E+02  0.35421706014E+02  0.00000000000E+00 0.  1.
</event>
<event>
 7    1  0.2886818E-013  0.7246155E+02  0.7816164E-02  0.1226708E+00
        -11   -1    0    0    0    0  0.00000000000E+00  0.00000000000E+00  0.45593999997E+02  0.45594000000E+02  0.51100000000E-03 0. -1.
         11   -1    0    0    0    0 -0.00000000000E+00 -0.00000000000E+00 -0.45593999997E+02  0.45594000000E+02  0.51100000000E-03 0.  1.
    9900012    2    1    2    0    0  0.10619900192E+02 -0.74478160144E+01 -0.13506582041E+02  0.72461548069E+02  0.69999971048E+02 0.  0.
         12    1    1    2    0    0 -0.10619900192E+02  0.74478160144E+01  0.13506582041E+02  0.18726451931E+02  0.00000000000E+00 0. -1.
         11    1    3    3    0    0 -0.12077496042E+02 -0.81058626298E+00 -0.25565924524E+02  0.28286736428E+02  0.51100000000E-03 0. -1.
        -11    1    3    3    0    0 -0.29025409153E+01 -0.66524231517E+01 -0.86180278060E+01  0.11267203783E+02  0.51100000000E-03 0.  1.
        -12    1    3    3    0    0  0.25599937150E+02  0.15193400288E-01  0.20677370289E+02  0.32907607858E+02  0.00000000000E+00 0.  1.
</event>
<event>
 7    1  0.2886818E-013  0.7246159E+02  0.7816164E-02  0.1226708E+00
        -11   -1    0    0    0    0  0.00000000000E+00  0.00000000000E+00  0.45593999997E+02  0.45594000000E+02  0.51100000000E-03 0. -1.
         11   -1    0    0    0    0 -0.00000000000E+00 -0.00000000000E+00 -0.45593999997E+02  0.45594000000E+02  0.51100000000E-03 0.  1.
    9900012    2    1    2    0    0 -0.11743426740E+02  0.29591104066E+01  0.14283344805E+02  0.72461592314E+02  0.70000028685E+02 0.  0.
         12    1    1    2    0    0  0.11743426740E+02 -0.29591104066E+01 -0.14283344805E+02  0.18726407686E+02  0.00000000000E+00 0. -1.
         11    1    3    3    0    0  0.47664205801E+01 -0.58709867036E+00 -0.52185828318E+01  0.70920418095E+01  0.51100000000E-03 0. -1.
        -11    1    3    3    0    0 -0.20311440697E+02 -0.19485502642E+02  0.28774619578E+02  0.40251933724E+02  0.51100000000E-03 0.  1.
         12    1    3    3    0    0  0.38015933770E+01  0.23031711719E+02 -0.92726919413E+01  0.25117616781E+02  0.00000000000E+00 0. -1.
</event>
<event>
 7    1  0.2886818E-013  0.7246159E+02  0.7816164E-02  0.1226708E+00
        -11   -1    0    0    0    0  0.00000000000E+00  0.00000000000E+00  0.45593999997E+02  0.45594000000E+02  0.51100000000E-03 0.  1.
         11   -1    0    0    0    0 -0.00000000000E+00 -0.00000000000E+00 -0.45593999997E+02  0.45594000000E+02  0.51100000000E-03 0. -1.
    9900012    2    1    2    0    0  0.14945320040E+02 -0.28850895366E+01  0.10908354342E+02  0.72461587445E+02  0.70000022341E+02 0.  0.
         12    1    1    2    0    0 -0.14945320040E+02  0.28850895366E+01 -0.10908354342E+02  0.18726412555E+02  0.00000000000E+00 0. -1.
         11    1    3    3    0    0  0.15823301821E+02 -0.97901119454E+01  0.34189081085E+02  0.38924496633E+02  0.51100000000E-03 0.  1.
        -11    1    3    3    0    0  0.30087020585E+01 -0.45255666969E+01 -0.20418266862E+02  0.21129095199E+02  0.51100000000E-03 0. -1.
        -12    1    3    3    0    0 -0.38866838391E+01  0.11430589106E+02 -0.28624598808E+01  0.12407995613E+02  0.00000000000E+00 0.  1.
</event>
<event>
 7    1  0.2886818E-013  0.7246169E+02  0.7816164E-02  0.1226708E+00
        -11   -1    0    0    0    0  0.00000000000E+00  0.00000000000E+00  0.45593999997E+02  0.45594000000E+02  0.51100000000E-03 0. -1.
         11   -1    0    0    0    0 -0.00000000000E+00 -0.00000000000E+00 -0.45593999997E+02  0.45594000000E+02  0.51100000000E-03 0.  1.
    9900012    2    1    2    0    0 -0.93125154426E+01 -0.16152301174E+02  0.17477933433E+01  0.72461693406E+02  0.70000160376E+02 0.  0.
         12    1    1    2    0    0  0.93125154426E+01  0.16152301174E+02 -0.17477933433E+01  0.18726306594E+02  0.00000000000E+00 0. -1.
         11    1    3    3    0    0 -0.19449972921E+02 -0.27471420373E+02  0.12873137071E+02  0.36037453326E+02  0.51100000000E-03 0. -1.
        -11    1    3    3    0    0 -0.31796613996E+01 -0.88987591102E+01 -0.72407390309E+01  0.11904892368E+02  0.51100000000E-03 0.  1.
         12    1    3    3    0    0  0.13317118878E+02  0.20217878310E+02 -0.38846046967E+01  0.24519347712E+02  0.00000000000E+00 0. -1.
</event>
<event>
 7    1  0.2886818E-013  0.7246164E+02  0.7816164E-02  0.1226708E+00
        -11   -1    0    0    0    0  0.00000000000E+00  0.00000000000E+00  0.45593999997E+02  0.45594000000E+02  0.51100000000E-03 0. -1.
         11   -1    0    0    0    0 -0.00000000000E+00 -0.00000000000E+00 -0.45593999997E+02  0.45594000000E+02  0.51100000000E-03 0.  1.
    9900012    2    1    2    0    0  0.16632881603E+02 -0.12509498713E+01 -0.85122787306E+01  0.72461641166E+02  0.70000092324E+02 0.  0.
         12    1    1    2    0    0 -0.16632881603E+02  0.12509498713E+01  0.85122787306E+01  0.18726358834E+02  0.00000000000E+00 0. -1.
         11    1    3    3    0    0  0.22735112144E+02  0.17979616936E+02 -0.14046998568E+02  0.32209782961E+02  0.51100000000E-03 0. -1.
        -11    1    3    3    0    0 -0.79127139890E+01  0.78259783454E+01 -0.35046160605E+01  0.11667875288E+02  0.51100000000E-03 0.  1.
        -12    1    3    3    0    0  0.18104834480E+01 -0.27056545153E+02  0.90393358979E+01  0.28583982917E+02  0.00000000000E+00 0.  1.
</event>
<event>
 7    1  0.2886818E-013  0.7246181E+02  0.7816164E-02  0.1226707E+00
        -11   -1    0    0    0    0  0.00000000000E+00  0.00000000000E+00  0.45593999997E+02  0.45594000000E+02  0.51100000000E-03 0.  1.
         11   -1    0    0    0    0 -0.00000000000E+00 -0.00000000000E+00 -0.45593999997E+02  0.45594000000E+02  0.51100000000E-03 0. -1.
    9900012    2    1    2    0    0 -0.11116991832E+02 -0.34535662749E+01  0.14668175916E+02  0.72461814801E+02  0.70000318515E+02 0.  0.
         12    1    1    2    0    0  0.11116991832E+02  0.34535662749E+01 -0.14668175916E+02  0.18726185199E+02  0.00000000000E+00 0. -1.
         11    1    3    3    0    0 -0.19917966637E+02 -0.26822253055E+02 -0.94314834295E+01  0.34714716387E+02  0.51100000000E-03 0. -1.
        -11    1    3    3    0    0  0.89467829868E+00  0.12535054804E+01 -0.20725730072E+01  0.25821085142E+01  0.51100000000E-03 0.  1.
        -12    1    3    3    0    0  0.79062965063E+01  0.22115181299E+02  0.26172232353E+02  0.35164989900E+02  0.00000000000E+00 0.  1.
</event>
<event>
 7    1  0.2886818E-013  0.7246156E+02  0.7816164E-02  0.1226708E+00
        -11   -1    0    0    0    0  0.00000000000E+00  0.00000000000E+00  0.45593999997E+02  0.45594000000E+02  0.51100000000E-03 0. -1.
         11   -1    0    0    0    0 -0.00000000000E+00 -0.00000000000E+00 -0.45593999997E+02  0.45594000000E+02  0.51100000000E-03 0.  1.
    9900012    2    1    2    0    0 -0.48666319305E+01  0.15296833914E+02  0.96437668321E+01  0.72461562195E+02  0.69999989450E+02 0.  0.
         12    1    1    2    0    0  0.48666319305E+01 -0.15296833914E+02 -0.96437668321E+01  0.18726437805E+02  0.00000000000E+00 0. -1.
         11    1    3    3    0    0  0.16651285685E+00  0.22740452633E+01  0.28033214899E+02  0.28125791477E+02  0.51100000000E-03 0. -1.
        -11    1    3    3    0    0  0.58914751929E+01 -0.65948658674E+01  0.63792183053E+01  0.10903951678E+02  0.51100000000E-03 0.  1.
        -12    1    3    3    0    0 -0.10924619980E+02  0.19617654518E+02 -0.24768666372E+02  0.33431819040E+02  0.00000000000E+00 0.  1.
</event>
<event>
 7    1  0.2886818E-013  0.7246157E+02  0.7816164E-02  0.1226708E+00
        -11   -1    0    0    0    0  0.00000000000E+00  0.00000000000E+00  0.45593999997E+02  0.45594000000E+02  0.51100000000E-03 0.  1.
         11   -1    0    0    0    0 -0.00000000000E+00 -0.00000000000E+00 -0.45593999997E+02  0.45594000000E+02  0.51100000000E-03 0. -1.
    9900012    2    1    2    0    0  0.38208830268E+01 -0.11771258007E+02  0.14054098661E+02  0.72461565440E+02  0.69999993676E+02 0.  0.
         12    1    1    2    0    0 -0.38208830268E+01  0.11771258007E+02 -0.14054098661E+02  0.18726434560E+02  0.00000000000E+00 0. -1.
         11    1    3    3    0    0  0.90548250583E+01 -0.20662383645E+01 -0.34948326080E+01  0.99233589593E+01  0.51100000000E-03 0. -1.
        -11    1    3    3    0    0 -0.13007807026E+02 -0.32435549046E+02  0.46018291406E+01  0.35248329283E+02  0.51100000000E-03 0.  1.
         12    1    3    3    0    0  0.77738649946E+01  0.22730529404E+02  0.12947102128E+02  0.27289877197E+02  0.00000000000E+00 0. -1.
</event>
<event>
 7    1  0.2886818E-013  0.7246176E+02  0.7816164E-02  0.1226708E+00
        -11   -1    0    0    0    0  0.00000000000E+00  0.00000000000E+00  0.45593999997E+02  0.45594000000E+02  0.51100000000E-03 0. -1.
         11   -1    0    0    0    0 -0.00000000000E+00 -0.00000000000E+00 -0.45593999997E+02  0.45594000000E+02  0.51100000000E-03 0.  1.
    9900012    2    1    2    0    0  0.16723397250E+02  0.46854949168E+01 -0.70033002389E+01  0.72461759255E+02  0.70000246156E+02 0.  0.
         12    1    1    2    0    0 -0.16723397250E+02 -0.46854949168E+01  0.70033002389E+01  0.18726240745E+02  0.00000000000E+00 0. -1.
         11    1    3    3    0    0  0.13008514277E+02  0.93081990859E+00 -0.11585750714E+01  0.13093134303E+02  0.51100000000E-03 0. -1.
        -11    1    3    3    0    0 -0.71086033594E+01  0.26076329669E+02 -0.17251609458E+02  0.32064392087E+02  0.51100000000E-03 0.  1.
         12    1    3    3    0    0  0.10823486332E+02 -0.22321654661E+02  0.11406884290E+02  0.27304232866E+02  0.00000000000E+00 0. -1.
</event>
<event>
 7    1  0.2886818E-013  0.7246155E+02  0.7816164E-02  0.1226708E+00
        -11   -1    0    0    0    0  0.00000000000E+00  0.00000000000E+00  0.45593999997E+02  0.45594000000E+02  0.51100000000E-03 0.  1.
         11   -1    0    0    0    0 -0.00000000000E+00 -0.00000000000E+00 -0.45593999997E+02  0.45594000000E+02  0.51100000000E-03 0. -1.
    9900012    2    1    2    0    0 -0.17377321927E+02  0.85507398630E+00 -0.69265722131E+01  0.72461551551E+02  0.69999975584E+02 0.  0.
         12    1    1    2    0    0  0.17377321927E+02 -0.85507398630E+00  0.69265722131E+01  0.18726448449E+02  0.00000000000E+00 0. -1.
         11    1    3    3    0    0 -0.10777641195E+02  0.11898472945E+02  0.13072901595E+02  0.20703428811E+02  0.51100000000E-03 0. -1.
        -11    1    3    3    0    0  0.13899687405E+02  0.84539237535E+00  0.72056759473E+01  0.15679214405E+02  0.51100000000E-03 0.  1.
         12    1    3    3    0    0 -0.20499368138E+02 -0.11888791334E+02 -0.27205149756E+02  0.36078908335E+02  0.00000000000E+00 0. -1.
</event>
<event>
 7    1  0.2886818E-013  0.7246159E+02  0.7816164E-02  0.1226708E+00
        -11   -1    0    0    0    0  0.00000000000E+00  0.00000000000E+00  0.45593999997E+02  0.45594000000E+02  0.51100000000E-03 0. -1.
         11   -1    0    0    0    0 -0.00000000000E+00 -0.00000000000E+00 -0.45593999997E+02  0.45594000000E+02  0.51100000000E-03 0.  1.
    9900012    2    1    2    0    0 -0.15008435769E+02 -0.10891198125E+02 -0.26090134932E+01  0.72461593719E+02  0.70000030514E+02 0.  0.
         12    1    1    2    0    0  0.15008435769E+02  0.10891198125E+02  0.26090134932E+01  0.18726406281E+02  0.00000000000E+00 0. -1.
         11    1    3    3    0    0 -0.29895047213E+01 -0.22778926125E+01 -0.43225119946E+01  0.57280051883E+01  0.51100000000E-03 0. -1.
        -11    1    3    3    0    0 -0.18105831456E+02 -0.35036971815E+02  0.32645623556E+01  0.39573575708E+02  0.51100000000E-03 0.  1.
         12    1    3    3    0    0  0.60869004082E+01  0.26423666303E+02 -0.15510638543E+01  0.27160012823E+02  0.00000000000E+00 0. -1.
</event>
<event>
 7    1  0.2886818E-013  0.7246159E+02  0.7816164E-02  0.1226708E+00
        -11   -1    0    0    0    0  0.00000000000E+00  0.00000000000E+00  0.45593999997E+02  0.45594000000E+02  0.51100000000E-03 0. -1.
         11   -1    0    0    0    0 -0.00000000000E+00 -0.00000000000E+00 -0.45593999997E+02  0.45594000000E+02  0.51100000000E-03 0.  1.
    9900012    2    1    2    0    0  0.40006138910E+01  0.10685901530E+02 -0.14848737218E+02  0.72461590841E+02  0.70000026766E+02 0.  0.
         12    1    1    2    0    0 -0.40006138910E+01 -0.10685901530E+02  0.14848737218E+02  0.18726409159E+02  0.00000000000E+00 0. -1.
         11    1    3    3    0    0 -0.52759859903E+01  0.11945341003E+02  0.11766126991E+02  0.17577512466E+02  0.51100000000E-03 0. -1.
        -11    1    3    3    0    0  0.13369011779E+02  0.15629217150E+02  0.27626930699E+01  0.20751756020E+02  0.51100000000E-03 0.  1.
        -12    1    3    3    0    0 -0.40924118976E+01 -0.16888656623E+02 -0.29377557279E+02  0.34132322355E+02  0.00000000000E+00 0.  1.
</event>
<event>
 7    1  0.2886818E-013  0.7246157E+02  0.7816164E-02  0.1226708E+00
        -11   -1    0    0    0    0  0.00000000000E+00  0.00000000000E+00  0.45593999997E+02  0.45594000000E+02  0.51100000000E-03 0.  1.
         11   -1    0    0    0    0 -0.00000000000E+00 -0.00000000000E+00 -0.45593999997E+02  0.45594000000E+02  0.51100000000E-03 0. -1.
    9900012    2    1    2    0    0 -0.11256297541E+02 -0.14489729204E+02 -0.37446870808E+01  0.72461570333E+02  0.70000000050E+02 0.  0.
         12    1    1    2    0    0  0.11256297541E+02  0.14489729204E+02  0.37446870808E+01  0.18726429667E+02  0.00000000000E+00 0. -1.
         11    1    3    3    0    0 -0.16500087305E+02 -0.18269137861E+02  0.73571175821E+01  0.25693218145E+02  0.51100000000E-03 0. -1.
        -11    1    3    3    0    0  0.10367422735E+02  0.56917994586E+01  0.15563815642E+02  0.19547695333E+02  0.51100000000E-03 0.  1.
         12    1    3    3    0    0 -0.51236329708E+01 -0.19123908014E+01 -0.26665620305E+02  0.27220656855E+02  0.00000000000E+00 0. -1.
</event>
<event>
 7    1  0.2886818E-013  0.7246164E+02  0.7816164E-02  0.1226708E+00
        -11   -1    0    0    0    0  0.00000000000E+00  0.00000000000E+00  0.45593999997E+02  0.45594000000E+02  0.51100000000E-03 0.  1.
         11   -1    0    0    0    0 -0.00000000000E+00 -0.00000000000E+00 -0.45593999997E+02  0.45594000000E+02  0.51100000000E-03 0. -1.
    9900012    2    1    2    0    0 -0.44014369725E+01 -0.11334924223E+02  0.14241612833E+02  0.72461636481E+02  0.70000086220E+02 0.  0.
         12    1    1    2    0    0  0.44014369725E+01  0.11334924223E+02 -0.14241612833E+02  0.18726363519E+02  0.00000000000E+00 0. -1.
         11    1    3    3    0    0 -0.24466783787E+02  0.14833409954E+02  0.26255886529E+01  0.28732338501E+02  0.51100000000E-03 0. -1.
        -11    1    3    3    0    0  0.12418723670E+02 -0.14561800273E+02  0.19850798301E+02  0.27573989886E+02  0.51100000000E-03 0.  1.
        -12    1    3    3    0    0  0.76466231438E+01 -0.11606533904E+02 -0.82347741210E+01  0.16155308093E+02  0.00000000000E+00 0.  1.
</event>
<event>
 7    1  0.2886818E-013  0.7246161E+02  0.7816164E-02  0.1226708E+00
        -11   -1    0    0    0    0  0.00000000000E+00  0.00000000000E+00  0.45593999997E+02  0.45594000000E+02  0.51100000000E-03 0.  1.
         11   -1    0    0    0    0 -0.00000000000E+00 -0.00000000000E+00 -0.45593999997E+02  0.45594000000E+02  0.51100000000E-03 0. -1.
    9900012    2    1    2    0    0  0.15291342080E+02 -0.43946145440E+01 -0.98762314145E+01  0.72461608822E+02  0.70000050190E+02 0.  0.
         12    1    1    2    0    0 -0.15291342080E+02  0.43946145440E+01  0.98762314145E+01  0.18726391178E+02  0.00000000000E+00 0. -1.
         11    1    3    3    0    0 -0.42440568905E+01  0.10464701126E+02 -0.24958992865E+01  0.11565098446E+02  0.51100000000E-03 0.  1.
        -11    1    3    3    0    0 -0.13600502316E+02 -0.22469624051E+02 -0.86580844806E+00  0.26279408151E+02  0.51100000000E-03 0. -1.
        -12    1    3    3    0    0  0.33135901286E+02  0.76103083809E+01 -0.65145236800E+01  0.34617102225E+02  0.00000000000E+00 0.  1.
</event>
<event>
 7    1  0.2886818E-013  0.7246159E+02  0.7816164E-02  0.1226708E+00
        -11   -1    0    0    0    0  0.00000000000E+00  0.00000000000E+00  0.45593999997E+02  0.45594000000E+02  0.51100000000E-03 0.  1.
         11   -1    0    0    0    0 -0.00000000000E+00 -0.00000000000E+00 -0.45593999997E+02  0.45594000000E+02  0.51100000000E-03 0. -1.
    9900012    2    1    2    0    0  0.14603173200E+02  0.11705957095E+02 -0.62951619338E+00  0.72461591117E+02  0.70000027126E+02 0.  0.
         12    1    1    2    0    0 -0.14603173200E+02 -0.11705957095E+02  0.62951619338E+00  0.18726408883E+02  0.00000000000E+00 0. -1.
         11    1    3    3    0    0  0.52909962428E+01 -0.61273400778E+01  0.58044584996E+01  0.99614595519E+01  0.51100000000E-03 0. -1.
        -11    1    3    3    0    0  0.28839882718E+02  0.27383707116E+02 -0.84885193137E+01  0.40665233444E+02  0.51100000000E-03 0.  1.
         12    1    3    3    0    0 -0.19527705762E+02 -0.95504099433E+01  0.20545446208E+01  0.21834898122E+02  0.00000000000E+00 0. -1.
</event>
<event>
 7    1  0.2886818E-013  0.7246155E+02  0.7816164E-02  0.1226708E+00
        -11   -1    0    0    0    0  0.00000000000E+00  0.00000000000E+00  0.45593999997E+02  0.45594000000E+02  0.51100000000E-03 0.  1.
         11   -1    0    0    0    0 -0.00000000000E+00 -0.00000000000E+00 -0.45593999997E+02  0.45594000000E+02  0.51100000000E-03 0. -1.
    9900012    2    1    2    0    0  0.14174586829E+02  0.12234921584E+02  0.26012975426E+00  0.72461551179E+02  0.69999975099E+02 0.  0.
         12    1    1    2    0    0 -0.14174586829E+02 -0.12234921584E+02 -0.26012975426E+00  0.18726448821E+02  0.00000000000E+00 0. -1.
         11    1    3    3    0    0 -0.77913886908E+01 -0.37657061690E+01 -0.10431051175E+02  0.13553343114E+02  0.51100000000E-03 0. -1.
        -11    1    3    3    0    0 -0.72521248471E+01  0.23491483646E+02  0.14441082424E+02  0.28512944087E+02  0.51100000000E-03 0.  1.
        -12    1    3    3    0    0  0.29218100367E+02 -0.74908558929E+01 -0.37499014941E+01  0.30395263978E+02  0.00000000000E+00 0.  1.
</event>
<event>
 7    1  0.2886818E-013  0.7246161E+02  0.7816164E-02  0.1226708E+00
        -11   -1    0    0    0    0  0.00000000000E+00  0.00000000000E+00  0.45593999997E+02  0.45594000000E+02  0.51100000000E-03 0. -1.
         11   -1    0    0    0    0 -0.00000000000E+00 -0.00000000000E+00 -0.45593999997E+02  0.45594000000E+02  0.51100000000E-03 0.  1.
    9900012    2    1    2    0    0 -0.14709347206E+02  0.55584328885E+01  0.10169393807E+02  0.72461611084E+02  0.70000053137E+02 0.  0.
         12    1    1    2    0    0  0.14709347206E+02 -0.55584328885E+01 -0.10169393807E+02  0.18726388916E+02  0.00000000000E+00 0. -1.
         11    1    3    3    0    0 -0.96671802094E+01  0.26304285853E+02  0.58745383217E+00  0.28030607016E+02  0.51100000000E-03 0. -1.
        -11    1    3    3    0    0  0.13406189320E+01  0.24822157736E+01 -0.11854165730E+02  0.12185232853E+02  0.51100000000E-03 0.  1.
         12    1    3    3    0    0 -0.63827859290E+01 -0.23228068738E+02  0.21436105704E+02  0.32245771216E+02  0.00000000000E+00 0. -1.
</event>
<event>
 7    1  0.2886818E-013  0.7246150E+02  0.7816164E-02  0.1226708E+00
        -11   -1    0    0    0    0  0.00000000000E+00  0.00000000000E+00  0.45593999997E+02  0.45594000000E+02  0.51100000000E-03 0.  1.
         11   -1    0    0    0    0 -0.00000000000E+00 -0.00000000000E+00 -0.45593999997E+02  0.45594000000E+02  0.51100000000E-03 0. -1.
    9900012    2    1    2    0    0 -0.17464317782E+02  0.65964566175E+01 -0.14717833338E+01  0.72461500549E+02  0.69999909144E+02 0.  0.
         12    1    1    2    0    0  0.17464317782E+02 -0.65964566175E+01  0.14717833338E+01  0.18726499451E+02  0.00000000000E+00 0. -1.
         11    1    3    3    0    0 -0.12893823034E+00 -0.17943066206E+01  0.50613731390E+01  0.53715602602E+01  0.51100000000E-03 0. -1.
        -11    1    3    3    0    0 -0.10821599172E+02  0.17048431311E+02  0.25930775560E+02  0.32865805029E+02  0.51100000000E-03 0.  1.
         12    1    3    3    0    0 -0.65137803800E+01 -0.86576680724E+01 -0.32463932033E+02  0.34224135260E+02  0.00000000000E+00 0. -1.
</event>
<event>
 7    1  0.2886818E-013  0.7246155E+02  0.7816164E-02  0.1226708E+00
        -11   -1    0    0    0    0  0.00000000000E+00  0.00000000000E+00  0.45593999997E+02  0.45594000000E+02  0.51100000000E-03 0.  1.
         11   -1    0    0    0    0 -0.00000000000E+00 -0.00000000000E+00 -0.45593999997E+02  0.45594000000E+02  0.51100000000E-03 0. -1.
    9900012    2    1    2    0    0  0.52938492605E+01 -0.52881983460E+01  0.17166543493E+02  0.72461545524E+02  0.69999967732E+02 0.  0.
         12    1    1    2    0    0 -0.52938492605E+01  0.52881983460E+01 -0.17166543493E+02  0.18726454476E+02  0.00000000000E+00 0. -1.
         11    1    3    3    0    0  0.88757957253E+01 -0.14555024280E+02 -0.23670195645E+01  0.17211370178E+02  0.51100000000E-03 0. -1.
        -11    1    3    3    0    0  0.77298666316E+00 -0.20451808956E+02  0.13766329514E+02  0.24665478437E+02  0.51100000000E-03 0.  1.
         12    1    3    3    0    0 -0.43549331280E+01  0.29718634890E+02  0.57672335436E+01  0.30584696909E+02  0.00000000000E+00 0. -1.
</event>
<event>
 7    1  0.2886818E-013  0.7246158E+02  0.7816164E-02  0.1226708E+00
        -11   -1    0    0    0    0  0.00000000000E+00  0.00000000000E+00  0.45593999997E+02  0.45594000000E+02  0.51100000000E-03 0.  1.
         11   -1    0    0    0    0 -0.00000000000E+00 -0.00000000000E+00 -0.45593999997E+02  0.45594000000E+02  0.51100000000E-03 0. -1.
    9900012    2    1    2    0    0 -0.13710015466E+02 -0.65669755154E+00  0.12739036649E+02  0.72461579347E+02  0.70000011793E+02 0.  0.
         12    1    1    2    0    0  0.13710015466E+02  0.65669755154E+00 -0.12739036649E+02  0.18726420653E+02  0.00000000000E+00 0. -1.
         11    1    3    3    0    0  0.78557492492E+01 -0.10775014277E+02 -0.23515624964E+01  0.13540442215E+02  0.51100000000E-03 0. -1.
        -11    1    3    3    0    0  0.94319370266E+01  0.48049221760E+01  0.24002559413E+02  0.26233024450E+02  0.51100000000E-03 0.  1.
        -12    1    3    3    0    0 -0.30997701742E+02  0.53133945493E+01 -0.89119602676E+01  0.32688112682E+02  0.00000000000E+00 0.  1.
</event>
<event>
 7    1  0.2886818E-013  0.7246151E+02  0.7816164E-02  0.1226708E+00
        -11   -1    0    0    0    0  0.00000000000E+00  0.00000000000E+00  0.45593999997E+02  0.45594000000E+02  0.51100000000E-03 0.  1.
         11   -1    0    0    0    0 -0.00000000000E+00 -0.00000000000E+00 -0.45593999997E+02  0.45594000000E+02  0.51100000000E-03 0. -1.
    9900012    2    1    2    0    0 -0.70622547133E+01  0.86312242928E+00  0.17322271346E+02  0.72461507895E+02  0.69999918714E+02 0.  0.
         12    1    1    2    0    0  0.70622547133E+01 -0.86312242928E+00 -0.17322271346E+02  0.18726492105E+02  0.00000000000E+00 0. -1.
         11    1    3    3    0    0 -0.25897709421E+02 -0.10200858909E+02 -0.20335750856E+01  0.27908498771E+02  0.51100000000E-03 0. -1.
        -11    1    3    3    0    0  0.22577568949E+01  0.14803660556E+02 -0.41574854929E+01  0.15541252135E+02  0.51100000000E-03 0.  1.
        -12    1    3    3    0    0  0.16577697813E+02 -0.37396792174E+01  0.23513331925E+02  0.29011756990E+02  0.00000000000E+00 0.  1.
</event>
<event>
 7    1  0.2886818E-013  0.7246157E+02  0.7816164E-02  0.1226708E+00
        -11   -1    0    0    0    0  0.00000000000E+00  0.00000000000E+00  0.45593999997E+02  0.45594000000E+02  0.51100000000E-03 0. -1.
         11   -1    0    0    0    0 -0.00000000000E+00 -0.00000000000E+00 -0.45593999997E+02  0.45594000000E+02  0.51100000000E-03 0.  1.
    9900012    2    1    2    0    0 -0.17423983495E+02 -0.68603602742E+01 -0.13974225359E+00  0.72461567563E+02  0.69999996442E+02 0.  0.
         12    1    1    2    0    0  0.17423983495E+02  0.68603602742E+01  0.13974225359E+00  0.18726432437E+02  0.00000000000E+00 0. -1.
         11    1    3    3    0    0  0.42397115109E+01  0.17213257616E+00 -0.87680562662E+01  0.97408210264E+01  0.51100000000E-03 0. -1.
        -11    1    3    3    0    0 -0.57701164310E+01  0.10503713442E+02 -0.21375728160E+02  0.24505999150E+02  0.51100000000E-03 0.  1.
         12    1    3    3    0    0 -0.15893578575E+02 -0.17536206293E+02  0.30004042173E+02  0.38214747386E+02  0.00000000000E+00 0. -1.
</event>
<event>
 7    1  0.2886818E-013  0.7246160E+02  0.7816164E-02  0.1226708E+00
        -11   -1    0    0    0    0  0.00000000000E+00  0.00000000000E+00  0.45593999997E+02  0.45594000000E+02  0.51100000000E-03 0. -1.
         11   -1    0    0    0    0 -0.00000000000E+00 -0.00000000000E+00 -0.45593999997E+02  0.45594000000E+02  0.51100000000E-03 0.  1.
    9900012    2    1    2    0    0  0.14018974676E+02  0.50052692015E+01 -0.11361945759E+02  0.72461596657E+02  0.70000034342E+02 0.  0.
         12    1    1    2    0    0 -0.14018974676E+02 -0.50052692015E+01  0.11361945759E+02  0.18726403343E+02  0.00000000000E+00 0. -1.
         11    1    3    3    0    0  0.36416521074E+02  0.16513662273E+02 -0.81883415279E+01  0.40815597338E+02  0.51100000000E-03 0.  1.
        -11    1    3    3    0    0  0.88644694868E+00 -0.16778797847E+01  0.47856900489E+01  0.51481936900E+01  0.51100000000E-03 0. -1.
        -12    1    3    3    0    0 -0.23283993348E+02 -0.98305132865E+01 -0.79592942805E+01  0.26497805629E+02  0.00000000000E+00 0.  1.
</event>
<event>
 7    1  0.2886818E-013  0.7246156E+02  0.7816164E-02  0.1226708E+00
        -11   -1    0    0    0    0  0.00000000000E+00  0.00000000000E+00  0.45593999997E+02  0.45594000000E+02  0.51100000000E-03 0.  1.
         11   -1    0    0    0    0 -0.00000000000E+00 -0.00000000000E+00 -0.45593999997E+02  0.45594000000E+02  0.51100000000E-03 0. -1.
    9900012    2    1    2    0    0  0.13580087715E+02  0.32905477117E+01  0.12467280423E+02  0.72461559662E+02  0.69999986150E+02 0.  0.
         12    1    1    2    0    0 -0.13580087715E+02 -0.32905477117E+01 -0.12467280423E+02  0.18726440338E+02  0.00000000000E+00 0. -1.
         11    1    3    3    0    0  0.85520395656E+01  0.28216079018E+02 -0.69381081251E+01  0.30288972259E+02  0.51100000000E-03 0. -1.
        -11    1    3    3    0    0  0.33434739948E+01 -0.12727483936E+02 -0.55987208375E+01  0.14300816094E+02  0.51100000000E-03 0.  1.
        -12    1    3    3    0    0  0.16845741542E+01 -0.12198047370E+02  0.25004109386E+02  0.27871771309E+02  0.00000000000E+00 0.  1.
</event>
