<event>
 7    1  0.2755991E-011  0.5052886E+02  0.7816164E-02  0.1300439E+00
        -11   -1    0    0    0    0  0.00000000000E+00  0.00000000000E+00  0.45593999997E+02  0.45594000000E+02  0.51100000000E-03 0. -1.
         11   -1    0    0    0    0 -0.00000000000E+00 -0.00000000000E+00 -0.45593999997E+02  0.45594000000E+02  0.51100000000E-03 0.  1.
    9900012    2    1    2    0    0 -0.18252454035E+02  0.53358126294E+01 -0.35938038603E+02  0.50528860888E+02  0.30000003155E+02 0.  0.
         12    1    1    2    0    0  0.18252454035E+02 -0.53358126294E+01  0.35938038603E+02  0.40659139112E+02  0.00000000000E+00 0. -1.
         11    1    3    3    0    0 -0.68181343766E+01 -0.17846428924E+01  0.33302646908E+01  0.77950349456E+01  0.51100000000E-03 0. -1.
        -11    1    3    3    0    0 -0.17189846467E+01 -0.22558709869E+01 -0.35183803908E+01  0.45191661797E+01  0.51100000000E-03 0.  1.
        -12    1    3    3    0    0 -0.97153350116E+01  0.93763265087E+01 -0.35749922903E+02  0.38214659762E+02  0.00000000000E+00 0.  1.
</event>
<event>
 7    1  0.2755991E-011  0.5052889E+02  0.7816164E-02  0.1300439E+00
        -11   -1    0    0    0    0  0.00000000000E+00  0.00000000000E+00  0.45593999997E+02  0.45594000000E+02  0.51100000000E-03 0.  1.
         11   -1    0    0    0    0 -0.00000000000E+00 -0.00000000000E+00 -0.45593999997E+02  0.45594000000E+02  0.51100000000E-03 0. -1.
    9900012    2    1    2    0    0  0.14145271604E+02  0.58769786901E+01  0.37663454520E+02  0.50528887938E+02  0.30000085375E+02 0.  0.
         12    1    1    2    0    0 -0.14145271604E+02 -0.58769786901E+01 -0.37663454520E+02  0.40659112062E+02  0.00000000000E+00 0. -1.
         11    1    3    3    0    0  0.30287065131E+01 -0.21748597802E+01  0.14412886427E+02  0.14887389752E+02  0.51100000000E-03 0.  1.
        -11    1    3    3    0    0 -0.19597062931E+01 -0.39003687828E+01  0.15853707418E+02  0.16443642071E+02  0.51100000000E-03 0. -1.
         12    1    3    3    0    0  0.13076271384E+02  0.11952207253E+02  0.73968606744E+01  0.19197856114E+02  0.00000000000E+00 0. -1.
</event>
<event>
 7    1  0.2755991E-011  0.5052886E+02  0.7816164E-02  0.1300439E+00
        -11   -1    0    0    0    0  0.00000000000E+00  0.00000000000E+00  0.45593999997E+02  0.45594000000E+02  0.51100000000E-03 0.  1.
         11   -1    0    0    0    0 -0.00000000000E+00 -0.00000000000E+00 -0.45593999997E+02  0.45594000000E+02  0.51100000000E-03 0. -1.
    9900012    2    1    2    0    0 -0.33484504167E+02 -0.16617275917E+02  0.15994359104E+02  0.50528863248E+02  0.30000010330E+02 0.  0.
         12    1    1    2    0    0  0.33484504167E+02  0.16617275917E+02 -0.15994359104E+02  0.40659136752E+02  0.00000000000E+00 0. -1.
         11    1    3    3    0    0 -0.68804829412E+01  0.74370422024E+00  0.21183097469E+01  0.72374980426E+01  0.51100000000E-03 0. -1.
        -11    1    3    3    0    0 -0.98150141071E+01  0.22050233021E+01 -0.51004180561E+01  0.11278780710E+02  0.51100000000E-03 0.  1.
         12    1    3    3    0    0 -0.16789007119E+02 -0.19566003440E+02  0.18976467414E+02  0.32012584496E+02  0.00000000000E+00 0. -1.
</event>
<event>
 7    1  0.2755991E-011  0.5052886E+02  0.7816164E-02  0.1300439E+00
        -11   -1    0    0    0    0  0.00000000000E+00  0.00000000000E+00  0.45593999997E+02  0.45594000000E+02  0.51100000000E-03 0. -1.
         11   -1    0    0    0    0 -0.00000000000E+00 -0.00000000000E+00 -0.45593999997E+02  0.45594000000E+02  0.51100000000E-03 0.  1.
    9900012    2    1    2    0    0  0.25357782789E+02 -0.48403905997E+01 -0.31412087984E+02  0.50528858338E+02  0.29999995406E+02 0.  0.
         12    1    1    2    0    0 -0.25357782789E+02  0.48403905997E+01  0.31412087984E+02  0.40659141662E+02  0.00000000000E+00 0. -1.
         11    1    3    3    0    0  0.97613838819E+01 -0.16169436183E+01 -0.94387106384E+01  0.13674369482E+02  0.51100000000E-03 0. -1.
        -11    1    3    3    0    0  0.18190119596E+02  0.40051262251E+01 -0.67636878702E+01  0.19815876485E+02  0.51100000000E-03 0.  1.
         12    1    3    3    0    0 -0.25937206889E+01 -0.72285732065E+01 -0.15209689476E+02  0.17038612372E+02  0.00000000000E+00 0. -1.
</event>
<event>
 7    1  0.2755991E-011  0.5052885E+02  0.7816164E-02  0.1300439E+00
        -11   -1    0    0    0    0  0.00000000000E+00  0.00000000000E+00  0.45593999997E+02  0.45594000000E+02  0.51100000000E-03 0.  1.
         11   -1    0    0    0    0 -0.00000000000E+00 -0.00000000000E+00 -0.45593999997E+02  0.45594000000E+02  0.51100000000E-03 0. -1.
    9900012    2    1    2    0    0  0.29370832886E+02  0.69111468556E+01  0.27253561339E+02  0.50528851202E+02  0.29999973714E+02 0.  0.
         12    1    1    2    0    0 -0.29370832886E+02 -0.69111468556E+01 -0.27253561339E+02  0.40659148798E+02  0.00000000000E+00 0. -1.
         11    1    3    3    0    0  0.91887027938E+01  0.55910489691E+01  0.11695849091E+02  0.15889775764E+02  0.51100000000E-03 0. -1.
        -11    1    3    3    0    0  0.24975521790E+02  0.41316955276E+01  0.13670094311E+02  0.28770107323E+02  0.51100000000E-03 0.  1.
         12    1    3    3    0    0 -0.47933916979E+01 -0.28115976411E+01  0.18876179375E+01  0.58689681157E+01  0.00000000000E+00 0. -1.
</event>
<event>
 7    1  0.2755991E-011  0.5052886E+02  0.7816164E-02  0.1300439E+00
        -11   -1    0    0    0    0  0.00000000000E+00  0.00000000000E+00  0.45593999997E+02  0.45594000000E+02  0.51100000000E-03 0. -1.
         11   -1    0    0    0    0 -0.00000000000E+00 -0.00000000000E+00 -0.45593999997E+02  0.45594000000E+02  0.51100000000E-03 0.  1.
    9900012    2    1    2    0    0 -0.35139785792E+02  0.10954452640E+02 -0.17273131061E+02  0.50528860378E+02  0.30000001604E+02 0.  0.
         12    1    1    2    0    0  0.35139785792E+02 -0.10954452640E+02  0.17273131061E+02  0.40659139622E+02  0.00000000000E+00 0. -1.
         11    1    3    3    0    0  0.13262463211E+01  0.14770291320E+01 -0.19141323605E+01  0.27576162379E+01  0.51100000000E-03 0. -1.
        -11    1    3    3    0    0 -0.90628240995E+01  0.14707058968E+02 -0.46642614379E+01  0.17893789402E+02  0.51100000000E-03 0.  1.
        -12    1    3    3    0    0 -0.27403208014E+02 -0.52296354599E+01 -0.10694737263E+02  0.29877454738E+02  0.00000000000E+00 0.  1.
</event>
<event>
 7    1  0.2755991E-011  0.5052885E+02  0.7816164E-02  0.1300439E+00
        -11   -1    0    0    0    0  0.00000000000E+00  0.00000000000E+00  0.45593999997E+02  0.45594000000E+02  0.51100000000E-03 0.  1.
         11   -1    0    0    0    0 -0.00000000000E+00 -0.00000000000E+00 -0.45593999997E+02  0.45594000000E+02  0.51100000000E-03 0. -1.
    9900012    2    1    2    0    0  0.11583934174E+02  0.26046832161E+02  0.28992093092E+02  0.50528850250E+02  0.29999970819E+02 0.  0.
         12    1    1    2    0    0 -0.11583934174E+02 -0.26046832161E+02 -0.28992093092E+02  0.40659149750E+02  0.00000000000E+00 0. -1.
         11    1    3    3    0    0  0.72320550600E+01  0.14460969405E+02 -0.19469950844E+01  0.16285362957E+02  0.51100000000E-03 0. -1.
        -11    1    3    3    0    0 -0.18887877441E+01  0.40132398567E+01  0.13785594091E+02  0.14481582027E+02  0.51100000000E-03 0.  1.
        -12    1    3    3    0    0  0.62406668578E+01  0.75726228993E+01  0.17153494085E+02  0.19761905266E+02  0.00000000000E+00 0.  1.
</event>
<event>
 7    1  0.2755991E-011  0.5052886E+02  0.7816164E-02  0.1300439E+00
        -11   -1    0    0    0    0  0.00000000000E+00  0.00000000000E+00  0.45593999997E+02  0.45594000000E+02  0.51100000000E-03 0.  1.
         11   -1    0    0    0    0 -0.00000000000E+00 -0.00000000000E+00 -0.45593999997E+02  0.45594000000E+02  0.51100000000E-03 0. -1.
    9900012    2    1    2    0    0  0.88988592854E+01  0.15706785912E+02  0.36431758145E+02  0.50528858079E+02  0.29999994617E+02 0.  0.
         12    1    1    2    0    0 -0.88988592854E+01 -0.15706785912E+02 -0.36431758145E+02  0.40659141921E+02  0.00000000000E+00 0. -1.
         11    1    3    3    0    0  0.65224108403E+01  0.42270497288E+01 -0.36682890994E+00  0.77810254009E+01  0.51100000000E-03 0. -1.
        -11    1    3    3    0    0 -0.34664943598E+01  0.80421223031E+01  0.46955493042E+01  0.99368253388E+01  0.51100000000E-03 0.  1.
        -12    1    3    3    0    0  0.58429428049E+01  0.34376138797E+01  0.32103037750E+02  0.32811007339E+02  0.00000000000E+00 0.  1.
</event>
<event>
 7    1  0.3639344E-011  0.5052886E+02  0.7816164E-02  0.1300439E+00
        -11   -1    0    0    0    0  0.00000000000E+00  0.00000000000E+00  0.45593999997E+02  0.45594000000E+02  0.51100000000E-03 0.  1.
         11   -1    0    0    0    0 -0.00000000000E+00 -0.00000000000E+00 -0.45593999997E+02  0.45594000000E+02  0.51100000000E-03 0. -1.
    9900012    2    1    2    0    0  0.28740391278E+02  0.19131401085E+02  0.21474293327E+02  0.50528857459E+02  0.29999992732E+02 0.  0.
         12    1    1    2    0    0 -0.28740391278E+02 -0.19131401085E+02 -0.21474293327E+02  0.40659142541E+02  0.00000000000E+00 0. -1.
         11    1    3    3    0    0  0.20480584483E+01 -0.50663378825E+00 -0.44658058263E+01  0.49390933523E+01  0.51100000000E-03 0. -1.
        -11    1    3    3    0    0  0.11452421031E+01  0.90704082923E+01  0.10505635314E+02  0.13926674394E+02  0.51100000000E-03 0.  1.
        -12    1    3    3    0    0  0.25547090727E+02  0.10567626581E+02  0.15434463839E+02  0.31663089713E+02  0.00000000000E+00 0.  1.
</event>
<event>
 7    1  0.2755991E-011  0.5052885E+02  0.7816164E-02  0.1300439E+00
        -11   -1    0    0    0    0  0.00000000000E+00  0.00000000000E+00  0.45593999997E+02  0.45594000000E+02  0.51100000000E-03 0. -1.
         11   -1    0    0    0    0 -0.00000000000E+00 -0.00000000000E+00 -0.45593999997E+02  0.45594000000E+02  0.51100000000E-03 0.  1.
    9900012    2    1    2    0    0  0.17454758214E+02  0.23633383020E+02 -0.28106241968E+02  0.50528853245E+02  0.29999979924E+02 0.  0.
         12    1    1    2    0    0 -0.17454758214E+02 -0.23633383020E+02  0.28106241968E+02  0.40659146755E+02  0.00000000000E+00 0. -1.
         11    1    3    3    0    0  0.12596583074E+02  0.22527060658E+01 -0.37926137403E+01  0.13346629125E+02  0.51100000000E-03 0. -1.
        -11    1    3    3    0    0  0.26200994993E+00 -0.17031632151E+01  0.14744079070E+01  0.22678829530E+01  0.51100000000E-03 0.  1.
        -12    1    3    3    0    0  0.45961651892E+01  0.23083840169E+02 -0.25788036135E+02  0.34914341167E+02  0.00000000000E+00 0.  1.
</event>
<event>
 7    1  0.2755991E-011  0.5052885E+02  0.7816164E-02  0.1300439E+00
        -11   -1    0    0    0    0  0.00000000000E+00  0.00000000000E+00  0.45593999997E+02  0.45594000000E+02  0.51100000000E-03 0. -1.
         11   -1    0    0    0    0 -0.00000000000E+00 -0.00000000000E+00 -0.45593999997E+02  0.45594000000E+02  0.51100000000E-03 0.  1.
    9900012    2    1    2    0    0  0.39525798305E+02 -0.26874502603E+01  0.91463310554E+01  0.50528849833E+02  0.29999969553E+02 0.  0.
         12    1    1    2    0    0 -0.39525798305E+02  0.26874502603E+01 -0.91463310554E+01  0.40659150167E+02  0.00000000000E+00 0. -1.
         11    1    3    3    0    0  0.42275750864E+01  0.48585755883E+01  0.52478466908E+01  0.83077098534E+01  0.51100000000E-03 0. -1.
        -11    1    3    3    0    0  0.10514273245E+02 -0.46909364386E+01  0.11367252745E+02  0.16179284959E+02  0.51100000000E-03 0.  1.
        -12    1    3    3    0    0  0.24783949973E+02 -0.28550894100E+01 -0.74687683805E+01  0.26041855021E+02  0.00000000000E+00 0.  1.
</event>
<event>
 7    1  0.2755991E-011  0.5052886E+02  0.7816164E-02  0.1300439E+00
        -11   -1    0    0    0    0  0.00000000000E+00  0.00000000000E+00  0.45593999997E+02  0.45594000000E+02  0.51100000000E-03 0.  1.
         11   -1    0    0    0    0 -0.00000000000E+00 -0.00000000000E+00 -0.45593999997E+02  0.45594000000E+02  0.51100000000E-03 0. -1.
    9900012    2    1    2    0    0 -0.23789115122E+01 -0.20199317222E+02  0.35206450325E+02  0.50528858583E+02  0.29999996150E+02 0.  0.
         12    1    1    2    0    0  0.23789115122E+01  0.20199317222E+02 -0.35206450325E+02  0.40659141417E+02  0.00000000000E+00 0. -1.
         11    1    3    3    0    0 -0.63017491473E+01 -0.13492657354E+01 -0.29749138429E+00  0.64514387330E+01  0.51100000000E-03 0. -1.
        -11    1    3    3    0    0  0.85258026580E+00  0.34745456583E+01  0.44900718842E+01  0.57410893067E+01  0.51100000000E-03 0.  1.
        -12    1    3    3    0    0  0.30702573694E+01 -0.22324597145E+02  0.31013869825E+02  0.38336330544E+02  0.00000000000E+00 0.  1.
</event>
<event>
 7    1  0.2755991E-011  0.5052886E+02  0.7816164E-02  0.1300439E+00
        -11   -1    0    0    0    0  0.00000000000E+00  0.00000000000E+00  0.45593999997E+02  0.45594000000E+02  0.51100000000E-03 0. -1.
         11   -1    0    0    0    0 -0.00000000000E+00 -0.00000000000E+00 -0.45593999997E+02  0.45594000000E+02  0.51100000000E-03 0.  1.
    9900012    2    1    2    0    0  0.16206278500E+02 -0.32327162206E+02 -0.18587015134E+02  0.50528855755E+02  0.29999987554E+02 0.  0.
         12    1    1    2    0    0 -0.16206278500E+02  0.32327162206E+02  0.18587015134E+02  0.40659144245E+02  0.00000000000E+00 0. -1.
         11    1    3    3    0    0  0.87009587554E+00  0.66181748213E+00 -0.58715493211E+01  0.59724501592E+01  0.51100000000E-03 0.  1.
        -11    1    3    3    0    0 -0.17764620900E+01 -0.21898445939E+02 -0.37833118647E+01  0.22293748025E+02  0.51100000000E-03 0. -1.
         12    1    3    3    0    0  0.17112644714E+02 -0.11090533750E+02 -0.89321539482E+01  0.22262657571E+02  0.00000000000E+00 0. -1.
</event>
<event>
 7    1  0.2755991E-011  0.5052887E+02  0.7816164E-02  0.1300439E+00
        -11   -1    0    0    0    0  0.00000000000E+00  0.00000000000E+00  0.45593999997E+02  0.45594000000E+02  0.51100000000E-03 0.  1.
         11   -1    0    0    0    0 -0.00000000000E+00 -0.00000000000E+00 -0.45593999997E+02  0.45594000000E+02  0.51100000000E-03 0. -1.
    9900012    2    1    2    0    0  0.64079544041E+01 -0.38913416914E+02  0.98918556993E+01  0.50528871815E+02  0.30000036369E+02 0.  0.
         12    1    1    2    0    0 -0.64079544041E+01  0.38913416914E+02 -0.98918556993E+01  0.40659128185E+02  0.00000000000E+00 0. -1.
         11    1    3    3    0    0 -0.30495547664E+01 -0.13583362171E+02  0.16828758441E+01  0.14022823664E+02  0.51100000000E-03 0. -1.
        -11    1    3    3    0    0  0.48465012626E+01 -0.28437576541E+02  0.10203198707E+02  0.30598849621E+02  0.51100000000E-03 0.  1.
         12    1    3    3    0    0  0.46110079080E+01  0.31075217976E+01 -0.19942188516E+01  0.59071985304E+01  0.00000000000E+00 0. -1.
</event>
<event>
 7    1  0.2755991E-011  0.5052887E+02  0.7816164E-02  0.1300439E+00
        -11   -1    0    0    0    0  0.00000000000E+00  0.00000000000E+00  0.45593999997E+02  0.45594000000E+02  0.51100000000E-03 0.  1.
         11   -1    0    0    0    0 -0.00000000000E+00 -0.00000000000E+00 -0.45593999997E+02  0.45594000000E+02  0.51100000000E-03 0. -1.
    9900012    2    1    2    0    0 -0.21613982389E+02  0.29289851424E+02  0.18113680883E+02  0.50528867370E+02  0.30000022856E+02 0.  0.
         12    1    1    2    0    0  0.21613982389E+02 -0.29289851424E+02 -0.18113680883E+02  0.40659132630E+02  0.00000000000E+00 0. -1.
         11    1    3    3    0    0 -0.20918128768E+02  0.85663953393E+01  0.35221754383E+01  0.22876996313E+02  0.51100000000E-03 0. -1.
        -11    1    3    3    0    0 -0.49611325748E+01  0.16543578269E+02  0.12515705745E+02  0.21329456367E+02  0.51100000000E-03 0.  1.
        -12    1    3    3    0    0  0.42652789536E+01  0.41798778154E+01  0.20757996998E+01  0.63224146888E+01  0.00000000000E+00 0.  1.
</event>
<event>
 7    1  0.2755991E-011  0.5052885E+02  0.7816164E-02  0.1300439E+00
        -11   -1    0    0    0    0  0.00000000000E+00  0.00000000000E+00  0.45593999997E+02  0.45594000000E+02  0.51100000000E-03 0.  1.
         11   -1    0    0    0    0 -0.00000000000E+00 -0.00000000000E+00 -0.45593999997E+02  0.45594000000E+02  0.51100000000E-03 0. -1.
    9900012    2    1    2    0    0 -0.16223284413E+02 -0.22620289608E+02  0.29636023982E+02  0.50528851256E+02  0.29999973879E+02 0.  0.
         12    1    1    2    0    0  0.16223284413E+02  0.22620289608E+02 -0.29636023982E+02  0.40659148744E+02  0.00000000000E+00 0. -1.
         11    1    3    3    0    0 -0.75110340936E+01 -0.51939960770E+01  0.33700205216E+01  0.97339748809E+01  0.51100000000E-03 0.  1.
        -11    1    3    3    0    0 -0.50378652225E+01 -0.13672951665E+02  0.58610826794E+00  0.14583319800E+02  0.51100000000E-03 0. -1.
        -12    1    3    3    0    0 -0.36743850965E+01 -0.37533418664E+01  0.25679895193E+02  0.26211556575E+02  0.00000000000E+00 0.  1.
</event>
<event>
 7    1  0.2755991E-011  0.5052886E+02  0.7816164E-02  0.1300439E+00
        -11   -1    0    0    0    0  0.00000000000E+00  0.00000000000E+00  0.45593999997E+02  0.45594000000E+02  0.51100000000E-03 0.  1.
         11   -1    0    0    0    0 -0.00000000000E+00 -0.00000000000E+00 -0.45593999997E+02  0.45594000000E+02  0.51100000000E-03 0. -1.
    9900012    2    1    2    0    0 -0.24545496689E+02  0.11974068687E+02  0.30121514954E+02  0.50528863367E+02  0.30000010691E+02 0.  0.
         12    1    1    2    0    0  0.24545496689E+02 -0.11974068687E+02 -0.30121514954E+02  0.40659136633E+02  0.00000000000E+00 0. -1.
         11    1    3    3    0    0 -0.10457788539E+02 -0.39374884221E+01  0.83807771144E+01  0.13968055752E+02  0.51100000000E-03 0. -1.
        -11    1    3    3    0    0 -0.77171777719E+01 -0.95292526387E+00  0.15748255814E+02  0.17563327155E+02  0.51100000000E-03 0.  1.
         12    1    3    3    0    0 -0.63705303778E+01  0.16864482373E+02  0.59924820254E+01  0.18997480460E+02  0.00000000000E+00 0. -1.
</event>
<event>
 7    1  0.2755991E-011  0.5052883E+02  0.7816164E-02  0.1300439E+00
        -11   -1    0    0    0    0  0.00000000000E+00  0.00000000000E+00  0.45593999997E+02  0.45594000000E+02  0.51100000000E-03 0.  1.
         11   -1    0    0    0    0 -0.00000000000E+00 -0.00000000000E+00 -0.45593999997E+02  0.45594000000E+02  0.51100000000E-03 0. -1.
    9900012    2    1    2    0    0 -0.35781919883E+02  0.19133399670E+02  0.25952522960E+01  0.50528829965E+02  0.29999909161E+02 0.  0.
         12    1    1    2    0    0  0.35781919883E+02 -0.19133399670E+02 -0.25952522960E+01  0.40659170035E+02  0.00000000000E+00 0. -1.
         11    1    3    3    0    0 -0.10795970292E+02  0.96559224455E+01 -0.34217188689E+01  0.14882807971E+02  0.51100000000E-03 0. -1.
        -11    1    3    3    0    0 -0.23233085967E+02  0.10909481477E+02  0.12666189905E+02  0.28622114469E+02  0.51100000000E-03 0.  1.
         12    1    3    3    0    0 -0.17528636235E+01 -0.14320042529E+01 -0.66492187406E+01  0.70239075252E+01  0.00000000000E+00 0. -1.
</event>
<event>
 7    1  0.2755991E-011  0.5052883E+02  0.7816164E-02  0.1300439E+00
        -11   -1    0    0    0    0  0.00000000000E+00  0.00000000000E+00  0.45593999997E+02  0.45594000000E+02  0.51100000000E-03 0.  1.
         11   -1    0    0    0    0 -0.00000000000E+00 -0.00000000000E+00 -0.45593999997E+02  0.45594000000E+02  0.51100000000E-03 0. -1.
    9900012    2    1    2    0    0  0.16855448858E+02  0.34210244441E+02  0.14096836930E+02  0.50528833846E+02  0.29999920958E+02 0.  0.
         12    1    1    2    0    0 -0.16855448858E+02 -0.34210244441E+02 -0.14096836930E+02  0.40659166154E+02  0.00000000000E+00 0. -1.
         11    1    3    3    0    0  0.45791617427E+01  0.61846323339E+00  0.32377997850E+01  0.56422129298E+01  0.51100000000E-03 0. -1.
        -11    1    3    3    0    0  0.49484522698E+01  0.40085377519E+01  0.12853001149E+02  0.14344169323E+02  0.51100000000E-03 0.  1.
        -12    1    3    3    0    0  0.73278348451E+01  0.29583243456E+02 -0.19939640035E+01  0.30542451593E+02  0.00000000000E+00 0.  1.
</event>
<event>
 7    1  0.2755991E-011  0.5052886E+02  0.7816164E-02  0.1300439E+00
        -11   -1    0    0    0    0  0.00000000000E+00  0.00000000000E+00  0.45593999997E+02  0.45594000000E+02  0.51100000000E-03 0. -1.
         11   -1    0    0    0    0 -0.00000000000E+00 -0.00000000000E+00 -0.45593999997E+02  0.45594000000E+02  0.51100000000E-03 0.  1.
    9900012    2    1    2    0    0 -0.26534524917E+02  0.85892152716E+01 -0.29585640703E+02  0.50528858747E+02  0.29999996648E+02 0.  0.
         12    1    1    2    0    0  0.26534524917E+02 -0.85892152716E+01  0.29585640703E+02  0.40659141253E+02  0.00000000000E+00 0. -1.
         11    1    3    3    0    0 -0.89269734833E+01 -0.48864512755E+01 -0.42196747040E+01  0.11016983095E+02  0.51100000000E-03 0. -1.
        -11    1    3    3    0    0 -0.16926135921E+02  0.97079095964E+00 -0.99793678546E+01  0.19672933064E+02  0.51100000000E-03 0.  1.
         12    1    3    3    0    0 -0.68141551319E+00  0.12504875587E+02 -0.15386598145E+02  0.19838942589E+02  0.00000000000E+00 0. -1.
</event>
<event>
 7    1  0.2755991E-011  0.5052886E+02  0.7816164E-02  0.1300439E+00
        -11   -1    0    0    0    0  0.00000000000E+00  0.00000000000E+00  0.45593999997E+02  0.45594000000E+02  0.51100000000E-03 0.  1.
         11   -1    0    0    0    0 -0.00000000000E+00 -0.00000000000E+00 -0.45593999997E+02  0.45594000000E+02  0.51100000000E-03 0. -1.
    9900012    2    1    2    0    0  0.16654741838E+02  0.18286410595E+02  0.32270606485E+02  0.50528864728E+02  0.30000014827E+02 0.  0.
         12    1    1    2    0    0 -0.16654741838E+02 -0.18286410595E+02 -0.32270606485E+02  0.40659135272E+02  0.00000000000E+00 0. -1.
         11    1    3    3    0    0 -0.30851320957E+01 -0.71481767627E+00  0.36117177508E+01  0.48034893286E+01  0.51100000000E-03 0.  1.
        -11    1    3    3    0    0 -0.34151838785E+01  0.54038433457E+00 -0.12112585202E+01  0.36636926205E+01  0.51100000000E-03 0. -1.
        -12    1    3    3    0    0  0.23155057812E+02  0.18460843937E+02  0.29870147255E+02  0.42061682779E+02  0.00000000000E+00 0.  1.
</event>
<event>
 7    1  0.2755991E-011  0.5052887E+02  0.7816164E-02  0.1300439E+00
        -11   -1    0    0    0    0  0.00000000000E+00  0.00000000000E+00  0.45593999997E+02  0.45594000000E+02  0.51100000000E-03 0.  1.
         11   -1    0    0    0    0 -0.00000000000E+00 -0.00000000000E+00 -0.45593999997E+02  0.45594000000E+02  0.51100000000E-03 0. -1.
    9900012    2    1    2    0    0  0.14990247258E+02 -0.29171145984E+02  0.24031264494E+02  0.50528868872E+02  0.30000027424E+02 0.  0.
         12    1    1    2    0    0 -0.14990247258E+02  0.29171145984E+02 -0.24031264494E+02  0.40659131128E+02  0.00000000000E+00 0. -1.
         11    1    3    3    0    0  0.16404029640E+02 -0.22762985547E+02  0.20474655493E+02  0.34734093011E+02  0.51100000000E-03 0. -1.
        -11    1    3    3    0    0  0.46882230101E+01 -0.26900269199E+01  0.61550047591E+01  0.81914445410E+01  0.51100000000E-03 0.  1.
         12    1    3    3    0    0 -0.61020053924E+01 -0.37181335169E+01 -0.25983957576E+01  0.76033313207E+01  0.00000000000E+00 0. -1.
</event>
<event>
 7    1  0.2755991E-011  0.5052885E+02  0.7816164E-02  0.1300439E+00
        -11   -1    0    0    0    0  0.00000000000E+00  0.00000000000E+00  0.45593999997E+02  0.45594000000E+02  0.51100000000E-03 0.  1.
         11   -1    0    0    0    0 -0.00000000000E+00 -0.00000000000E+00 -0.45593999997E+02  0.45594000000E+02  0.51100000000E-03 0. -1.
    9900012    2    1    2    0    0 -0.33694773439E+02 -0.43675781990E+01 -0.22332780900E+02  0.50528848519E+02  0.29999965557E+02 0.  0.
         12    1    1    2    0    0  0.33694773439E+02  0.43675781990E+01  0.22332780900E+02  0.40659151481E+02  0.00000000000E+00 0. -1.
         11    1    3    3    0    0 -0.19864572263E+02  0.28059624392E+01 -0.22397708749E+02  0.30068788034E+02  0.51100000000E-03 0. -1.
        -11    1    3    3    0    0 -0.12576841585E+02 -0.55364106619E+01 -0.52879446904E+01  0.14723829209E+02  0.51100000000E-03 0.  1.
        -12    1    3    3    0    0 -0.12533595917E+01 -0.16371299764E+01  0.53528725391E+01  0.57362312754E+01  0.00000000000E+00 0.  1.
</event>
<event>
 7    1  0.2755991E-011  0.5052885E+02  0.7816164E-02  0.1300439E+00
        -11   -1    0    0    0    0  0.00000000000E+00  0.00000000000E+00  0.45593999997E+02  0.45594000000E+02  0.51100000000E-03 0.  1.
         11   -1    0    0    0    0 -0.00000000000E+00 -0.00000000000E+00 -0.45593999997E+02  0.45594000000E+02  0.51100000000E-03 0. -1.
    9900012    2    1    2    0    0 -0.24295097066E+02  0.79156538179E-01  0.32602279171E+02  0.50528848332E+02  0.29999964991E+02 0.  0.
         12    1    1    2    0    0  0.24295097066E+02 -0.79156538179E-01 -0.32602279171E+02  0.40659151668E+02  0.00000000000E+00 0. -1.
         11    1    3    3    0    0 -0.95908174808E+01 -0.61440141515E+01  0.18980569380E+02  0.22135823999E+02  0.51100000000E-03 0.  1.
        -11    1    3    3    0    0  0.57161975354E+00 -0.54295319292E+01  0.14491997799E+01  0.56486057019E+01  0.51100000000E-03 0. -1.
        -12    1    3    3    0    0 -0.15275899338E+02  0.11652702619E+02  0.12172510011E+02  0.22744418632E+02  0.00000000000E+00 0.  1.
</event>
<event>
 7    1  0.2755991E-011  0.5052886E+02  0.7816164E-02  0.1300439E+00
        -11   -1    0    0    0    0  0.00000000000E+00  0.00000000000E+00  0.45593999997E+02  0.45594000000E+02  0.51100000000E-03 0.  1.
         11   -1    0    0    0    0 -0.00000000000E+00 -0.00000000000E+00 -0.45593999997E+02  0.45594000000E+02  0.51100000000E-03 0. -1.
    9900012    2    1    2    0    0  0.13342911486E+02  0.37682376585E+01  0.38222150198E+02  0.50528859973E+02  0.30000000373E+02 0.  0.
         12    1    1    2    0    0 -0.13342911486E+02 -0.37682376585E+01 -0.38222150198E+02  0.40659140027E+02  0.00000000000E+00 0. -1.
         11    1    3    3    0    0 -0.35817263338E+01  0.92822573304E+01  0.17068443810E+02  0.19756539146E+02  0.51100000000E-03 0. -1.
        -11    1    3    3    0    0  0.12112925204E+02  0.12397955262E+01  0.61777565667E+01  0.13653744043E+02  0.51100000000E-03 0.  1.
        -12    1    3    3    0    0  0.48117126163E+01 -0.67538151981E+01  0.14975949821E+02  0.17118576783E+02  0.00000000000E+00 0.  1.
</event>
<event>
 7    1  0.2755991E-011  0.5052884E+02  0.7816164E-02  0.1300439E+00
        -11   -1    0    0    0    0  0.00000000000E+00  0.00000000000E+00  0.45593999997E+02  0.45594000000E+02  0.51100000000E-03 0. -1.
         11   -1    0    0    0    0 -0.00000000000E+00 -0.00000000000E+00 -0.45593999997E+02  0.45594000000E+02  0.51100000000E-03 0.  1.
    9900012    2    1    2    0    0  0.38212940955E+02  0.47919783715E+01 -0.13037446458E+02  0.50528844533E+02  0.29999953441E+02 0.  0.
         12    1    1    2    0    0 -0.38212940955E+02 -0.47919783715E+01  0.13037446458E+02  0.40659155467E+02  0.00000000000E+00 0. -1.
         11    1    3    3    0    0  0.95728672382E+01  0.72467014477E+01 -0.18998681344E+01  0.12155820343E+02  0.51100000000E-03 0.  1.
        -11    1    3    3    0    0  0.26116719365E+02 -0.10571551030E+02 -0.93591142444E+01  0.29688949817E+02  0.51100000000E-03 0. -1.
         12    1    3    3    0    0  0.25233543527E+01  0.81168279536E+01 -0.17784640796E+01  0.86840743721E+01  0.00000000000E+00 0. -1.
</event>
<event>
 7    1  0.2755991E-011  0.5052886E+02  0.7816164E-02  0.1300439E+00
        -11   -1    0    0    0    0  0.00000000000E+00  0.00000000000E+00  0.45593999997E+02  0.45594000000E+02  0.51100000000E-03 0.  1.
         11   -1    0    0    0    0 -0.00000000000E+00 -0.00000000000E+00 -0.45593999997E+02  0.45594000000E+02  0.51100000000E-03 0. -1.
    9900012    2    1    2    0    0  0.37667900709E+02 -0.10147571961E+01  0.15273023518E+02  0.50528859289E+02  0.29999998294E+02 0.  0.
         12    1    1    2    0    0 -0.37667900709E+02  0.10147571961E+01 -0.15273023518E+02  0.40659140711E+02  0.00000000000E+00 0. -1.
         11    1    3    3    0    0 -0.12001793024E+01 -0.49361335431E+00 -0.21322091116E+01  0.24960770136E+01  0.51100000000E-03 0. -1.
        -11    1    3    3    0    0  0.25701806790E+02  0.40134168842E+01  0.35115940534E+00  0.26015643382E+02  0.51100000000E-03 0.  1.
         12    1    3    3    0    0  0.13166273221E+02 -0.45345607260E+01  0.17054073224E+02  0.22017138893E+02  0.00000000000E+00 0. -1.
</event>
<event>
 7    1  0.2755991E-011  0.5052886E+02  0.7816164E-02  0.1300439E+00
        -11   -1    0    0    0    0  0.00000000000E+00  0.00000000000E+00  0.45593999997E+02  0.45594000000E+02  0.51100000000E-03 0.  1.
         11   -1    0    0    0    0 -0.00000000000E+00 -0.00000000000E+00 -0.45593999997E+02  0.45594000000E+02  0.51100000000E-03 0. -1.
    9900012    2    1    2    0    0  0.20810778709E+02 -0.37729128059E+01  0.34725240784E+02  0.50528859219E+02  0.29999998082E+02 0.  0.
         12    1    1    2    0    0 -0.20810778709E+02  0.37729128059E+01 -0.34725240784E+02  0.40659140781E+02  0.00000000000E+00 0. -1.
         11    1    3    3    0    0 -0.32723828586E+01  0.15477428978E+01  0.60878333072E+01  0.70827757474E+01  0.51100000000E-03 0. -1.
        -11    1    3    3    0    0 -0.18516972403E+01  0.37020529492E+01  0.83015959819E+01  0.92763395160E+01  0.51100000000E-03 0.  1.
        -12    1    3    3    0    0  0.25934858808E+02 -0.90227086528E+01  0.20335811495E+02  0.34169743956E+02  0.00000000000E+00 0.  1.
</event>
<event>
 7    1  0.2755991E-011  0.5052886E+02  0.7816164E-02  0.1300439E+00
        -11   -1    0    0    0    0  0.00000000000E+00  0.00000000000E+00  0.45593999997E+02  0.45594000000E+02  0.51100000000E-03 0.  1.
         11   -1    0    0    0    0 -0.00000000000E+00 -0.00000000000E+00 -0.45593999997E+02  0.45594000000E+02  0.51100000000E-03 0. -1.
    9900012    2    1    2    0    0 -0.34006708224E+01  0.66142717691E+01  0.39973151309E+02  0.50528856149E+02  0.29999988752E+02 0.  0.
         12    1    1    2    0    0  0.34006708224E+01 -0.66142717691E+01 -0.39973151309E+02  0.40659143851E+02  0.00000000000E+00 0. -1.
         11    1    3    3    0    0  0.68905229678E+01 -0.11993272329E+01  0.79859528853E+01  0.10615702347E+02  0.51100000000E-03 0. -1.
        -11    1    3    3    0    0  0.34483524681E+01  0.68814141062E+01  0.38935416227E+01  0.86258136702E+01  0.51100000000E-03 0.  1.
        -12    1    3    3    0    0 -0.13739546258E+02  0.93218489576E+00  0.28093656801E+02  0.31287340132E+02  0.00000000000E+00 0.  1.
</event>
<event>
 7    1  0.2755991E-011  0.5052885E+02  0.7816164E-02  0.1300439E+00
        -11   -1    0    0    0    0  0.00000000000E+00  0.00000000000E+00  0.45593999997E+02  0.45594000000E+02  0.51100000000E-03 0. -1.
         11   -1    0    0    0    0 -0.00000000000E+00 -0.00000000000E+00 -0.45593999997E+02  0.45594000000E+02  0.51100000000E-03 0.  1.
    9900012    2    1    2    0    0 -0.10241811973E+02  0.19744372724E+02 -0.34035733372E+02  0.50528854498E+02  0.29999983733E+02 0.  0.
         12    1    1    2    0    0  0.10241811973E+02 -0.19744372724E+02  0.34035733372E+02  0.40659145502E+02  0.00000000000E+00 0. -1.
         11    1    3    3    0    0 -0.31863009777E+01  0.55937336246E+01 -0.22316287891E+01  0.68134086255E+01  0.51100000000E-03 0. -1.
        -11    1    3    3    0    0  0.51705946319E+01  0.76869336881E+01 -0.25420503161E+00  0.92676112797E+01  0.51100000000E-03 0.  1.
        -12    1    3    3    0    0 -0.12226105627E+02  0.64637054111E+01 -0.31549899552E+02  0.34447834593E+02  0.00000000000E+00 0.  1.
</event>
<event>
 7    1  0.2755991E-011  0.5052886E+02  0.7816164E-02  0.1300439E+00
        -11   -1    0    0    0    0  0.00000000000E+00  0.00000000000E+00  0.45593999997E+02  0.45594000000E+02  0.51100000000E-03 0.  1.
         11   -1    0    0    0    0 -0.00000000000E+00 -0.00000000000E+00 -0.45593999997E+02  0.45594000000E+02  0.51100000000E-03 0. -1.
    9900012    2    1    2    0    0  0.49603325992E+01 -0.30765740964E+01  0.40237984416E+02  0.50528860836E+02  0.30000002998E+02 0.  0.
         12    1    1    2    0    0 -0.49603325992E+01  0.30765740964E+01 -0.40237984416E+02  0.40659139164E+02  0.00000000000E+00 0. -1.
         11    1    3    3    0    0  0.72849701949E+01 -0.69648080283E+01  0.17543808487E+02  0.20232759527E+02  0.51100000000E-03 0. -1.
        -11    1    3    3    0    0  0.85363569682E+01  0.13227422269E+00  0.87217326052E+01  0.12204732961E+02  0.51100000000E-03 0.  1.
         12    1    3    3    0    0 -0.10860994564E+02  0.37559597092E+01  0.13972443324E+02  0.18091368348E+02  0.00000000000E+00 0. -1.
</event>
<event>
 7    1  0.2755991E-011  0.5052883E+02  0.7816164E-02  0.1300439E+00
        -11   -1    0    0    0    0  0.00000000000E+00  0.00000000000E+00  0.45593999997E+02  0.45594000000E+02  0.51100000000E-03 0. -1.
         11   -1    0    0    0    0 -0.00000000000E+00 -0.00000000000E+00 -0.45593999997E+02  0.45594000000E+02  0.51100000000E-03 0.  1.
    9900012    2    1    2    0    0 -0.19121560386E+02  0.28619203311E+02 -0.21644287724E+02  0.50528830544E+02  0.29999910923E+02 0.  0.
         12    1    1    2    0    0  0.19121560386E+02 -0.28619203311E+02  0.21644287724E+02  0.40659169456E+02  0.00000000000E+00 0. -1.
         11    1    3    3    0    0 -0.26815427876E+01  0.94180901431E+01  0.49556168853E+01  0.10974936567E+02  0.51100000000E-03 0. -1.
        -11    1    3    3    0    0 -0.14973654612E+02  0.63028406234E+01 -0.13675531743E+02  0.21235731706E+02  0.51100000000E-03 0.  1.
        -12    1    3    3    0    0 -0.14663629864E+01  0.12898272544E+02 -0.12924372867E+02  0.18318162272E+02  0.00000000000E+00 0.  1.
</event>
<event>
 7    1  0.2755991E-011  0.5052886E+02  0.7816164E-02  0.1300439E+00
        -11   -1    0    0    0    0  0.00000000000E+00  0.00000000000E+00  0.45593999997E+02  0.45594000000E+02  0.51100000000E-03 0.  1.
         11   -1    0    0    0    0 -0.00000000000E+00 -0.00000000000E+00 -0.45593999997E+02  0.45594000000E+02  0.51100000000E-03 0. -1.
    9900012    2    1    2    0    0 -0.36038410015E+02 -0.18364433418E+02 -0.41408039982E+01  0.50528859959E+02  0.30000000331E+02 0.  0.
         12    1    1    2    0    0  0.36038410015E+02  0.18364433418E+02  0.41408039982E+01  0.40659140041E+02  0.00000000000E+00 0. -1.
         11    1    3    3    0    0 -0.67784709311E+01 -0.14126057963E+02  0.83987164228E+00  0.15690715929E+02  0.51100000000E-03 0. -1.
        -11    1    3    3    0    0 -0.12993210842E+02 -0.10485357151E+02 -0.49446376755E+01  0.17413089461E+02  0.51100000000E-03 0.  1.
        -12    1    3    3    0    0 -0.16266728241E+02  0.62469816959E+01 -0.36037965033E-01  0.17425054568E+02  0.00000000000E+00 0.  1.
</event>
<event>
 7    1  0.2755991E-011  0.5052886E+02  0.7816164E-02  0.1300439E+00
        -11   -1    0    0    0    0  0.00000000000E+00  0.00000000000E+00  0.45593999997E+02  0.45594000000E+02  0.51100000000E-03 0. -1.
         11   -1    0    0    0    0 -0.00000000000E+00 -0.00000000000E+00 -0.45593999997E+02  0.45594000000E+02  0.51100000000E-03 0.  1.
    9900012    2    1    2    0    0  0.36297851386E+02 -0.58521312127E+01 -0.17360424810E+02  0.50528858291E+02  0.29999995260E+02 0.  0.
         12    1    1    2    0    0 -0.36297851386E+02  0.58521312127E+01  0.17360424810E+02  0.40659141709E+02  0.00000000000E+00 0. -1.
         11    1    3    3    0    0  0.15472037169E+02 -0.16215249650E+00  0.26794767536E+01  0.15703178772E+02  0.51100000000E-03 0. -1.
        -11    1    3    3    0    0  0.18204581745E+02 -0.57510837311E+01 -0.52429691462E+01  0.19798244526E+02  0.51100000000E-03 0.  1.
         12    1    3    3    0    0  0.26212324716E+01  0.61105014871E-01 -0.14796932418E+02  0.15027434993E+02  0.00000000000E+00 0. -1.
</event>
<event>
 7    1  0.2755991E-011  0.5052887E+02  0.7816164E-02  0.1300439E+00
        -11   -1    0    0    0    0  0.00000000000E+00  0.00000000000E+00  0.45593999997E+02  0.45594000000E+02  0.51100000000E-03 0.  1.
         11   -1    0    0    0    0 -0.00000000000E+00 -0.00000000000E+00 -0.45593999997E+02  0.45594000000E+02  0.51100000000E-03 0. -1.
    9900012    2    1    2    0    0 -0.10522723380E+02 -0.33085222948E+02  0.21161408089E+02  0.50528869696E+02  0.30000029926E+02 0.  0.
         12    1    1    2    0    0  0.10522723380E+02  0.33085222948E+02 -0.21161408089E+02  0.40659130304E+02  0.00000000000E+00 0. -1.
         11    1    3    3    0    0  0.30697417010E+01 -0.60203661862E+00 -0.42798123709E+01  0.53011844330E+01  0.51100000000E-03 0. -1.
        -11    1    3    3    0    0  0.20356422203E+00  0.66672050992E-01  0.37388033117E+01  0.37449344479E+01  0.51100000000E-03 0.  1.
        -12    1    3    3    0    0 -0.13796029303E+02 -0.32549858380E+02  0.21702417148E+02  0.41482750815E+02  0.00000000000E+00 0.  1.
</event>
<event>
 7    1  0.2755991E-011  0.5052886E+02  0.7816164E-02  0.1300439E+00
        -11   -1    0    0    0    0  0.00000000000E+00  0.00000000000E+00  0.45593999997E+02  0.45594000000E+02  0.51100000000E-03 0.  1.
         11   -1    0    0    0    0 -0.00000000000E+00 -0.00000000000E+00 -0.45593999997E+02  0.45594000000E+02  0.51100000000E-03 0. -1.
    9900012    2    1    2    0    0 -0.27003563019E+02  0.19502846993E+02  0.23315492935E+02  0.50528859978E+02  0.30000000388E+02 0.  0.
         12    1    1    2    0    0  0.27003563019E+02 -0.19502846993E+02 -0.23315492935E+02  0.40659140022E+02  0.00000000000E+00 0. -1.
         11    1    3    3    0    0  0.52552045602E+01  0.19080881226E+01  0.18747078579E+01  0.58968216071E+01  0.51100000000E-03 0. -1.
        -11    1    3    3    0    0 -0.13596759473E+02  0.45103832813E+01  0.15442860749E+02  0.21064125282E+02  0.51100000000E-03 0.  1.
         12    1    3    3    0    0 -0.18662008106E+02  0.13084375589E+02  0.59979243283E+01  0.23567913089E+02  0.00000000000E+00 0. -1.
</event>
<event>
 7    1  0.2755991E-011  0.5052887E+02  0.7816164E-02  0.1300439E+00
        -11   -1    0    0    0    0  0.00000000000E+00  0.00000000000E+00  0.45593999997E+02  0.45594000000E+02  0.51100000000E-03 0.  1.
         11   -1    0    0    0    0 -0.00000000000E+00 -0.00000000000E+00 -0.45593999997E+02  0.45594000000E+02  0.51100000000E-03 0. -1.
    9900012    2    1    2    0    0  0.38084895632E+01 -0.36878862990E+02 -0.16691618577E+02  0.50528865000E+02  0.30000015654E+02 0.  0.
         12    1    1    2    0    0 -0.38084895632E+01  0.36878862990E+02  0.16691618577E+02  0.40659135000E+02  0.00000000000E+00 0. -1.
         11    1    3    3    0    0 -0.10968360783E+01 -0.12986824690E+02  0.75760839466E+01  0.15075069259E+02  0.51100000000E-03 0. -1.
        -11    1    3    3    0    0 -0.23056283847E+01 -0.80711858958E+01 -0.67366998512E+01  0.10763042746E+02  0.51100000000E-03 0.  1.
        -12    1    3    3    0    0  0.72109540261E+01 -0.15820852404E+02 -0.17531002673E+02  0.24690752995E+02  0.00000000000E+00 0.  1.
</event>
<event>
 7    1  0.2755991E-011  0.5052887E+02  0.7816164E-02  0.1300439E+00
        -11   -1    0    0    0    0  0.00000000000E+00  0.00000000000E+00  0.45593999997E+02  0.45594000000E+02  0.51100000000E-03 0.  1.
         11   -1    0    0    0    0 -0.00000000000E+00 -0.00000000000E+00 -0.45593999997E+02  0.45594000000E+02  0.51100000000E-03 0. -1.
    9900012    2    1    2    0    0 -0.32449995336E+02  0.22050734034E+02 -0.10673713666E+02  0.50528865329E+02  0.30000016656E+02 0.  0.
         12    1    1    2    0    0  0.32449995336E+02 -0.22050734034E+02  0.10673713666E+02  0.40659134671E+02  0.00000000000E+00 0. -1.
         11    1    3    3    0    0 -0.14350049211E+02  0.11913208475E+02 -0.53516933524E+01  0.19403326275E+02  0.51100000000E-03 0. -1.
        -11    1    3    3    0    0 -0.51562992047E+01  0.56927878958E+01  0.86497860135E+01  0.11567802464E+02  0.51100000000E-03 0.  1.
         12    1    3    3    0    0 -0.12943646920E+02  0.44447376626E+01 -0.13971806327E+02  0.19557736590E+02  0.00000000000E+00 0. -1.
</event>
<event>
 7    1  0.2755991E-011  0.5052886E+02  0.7816164E-02  0.1300439E+00
        -11   -1    0    0    0    0  0.00000000000E+00  0.00000000000E+00  0.45593999997E+02  0.45594000000E+02  0.51100000000E-03 0.  1.
         11   -1    0    0    0    0 -0.00000000000E+00 -0.00000000000E+00 -0.45593999997E+02  0.45594000000E+02  0.51100000000E-03 0. -1.
    9900012    2    1    2    0    0 -0.29884450727E+02 -0.21147294321E+02  0.17688336772E+02  0.50528859452E+02  0.29999998791E+02 0.  0.
         12    1    1    2    0    0  0.29884450727E+02  0.21147294321E+02 -0.17688336772E+02  0.40659140548E+02  0.00000000000E+00 0. -1.
         11    1    3    3    0    0 -0.17937154802E+01  0.45333795276E+01 -0.42329324697E+00  0.48936819062E+01  0.51100000000E-03 0. -1.
        -11    1    3    3    0    0  0.19599226735E+01 -0.15395777149E+00  0.26115602136E+01  0.32688295906E+01  0.51100000000E-03 0.  1.
        -12    1    3    3    0    0 -0.30050657920E+02 -0.25526716077E+02  0.15500069806E+02  0.42366347955E+02  0.00000000000E+00 0.  1.
</event>
<event>
 7    1  0.2755991E-011  0.5052899E+02  0.7816164E-02  0.1300438E+00
        -11   -1    0    0    0    0  0.00000000000E+00  0.00000000000E+00  0.45593999997E+02  0.45594000000E+02  0.51100000000E-03 0.  1.
         11   -1    0    0    0    0 -0.00000000000E+00 -0.00000000000E+00 -0.45593999997E+02  0.45594000000E+02  0.51100000000E-03 0. -1.
    9900012    2    1    2    0    0  0.16911419953E+02 -0.26690468139E+02  0.25588633830E+02  0.50528986294E+02  0.30000384336E+02 0.  0.
         12    1    1    2    0    0 -0.16911419953E+02  0.26690468139E+02 -0.25588633830E+02  0.40659013706E+02  0.00000000000E+00 0. -1.
         11    1    3    3    0    0  0.12720396011E+02 -0.16573664824E+02  0.89730991585E+01  0.22737883568E+02  0.51100000000E-03 0. -1.
        -11    1    3    3    0    0  0.95046537176E+01 -0.48556363971E+01  0.13056364822E+01  0.10752689617E+02  0.51100000000E-03 0.  1.
         12    1    3    3    0    0 -0.53136297756E+01 -0.52611669178E+01  0.15309898189E+02  0.17038413109E+02  0.00000000000E+00 0. -1.
</event>
<event>
 7    1  0.2755991E-011  0.5052884E+02  0.7816164E-02  0.1300439E+00
        -11   -1    0    0    0    0  0.00000000000E+00  0.00000000000E+00  0.45593999997E+02  0.45594000000E+02  0.51100000000E-03 0. -1.
         11   -1    0    0    0    0 -0.00000000000E+00 -0.00000000000E+00 -0.45593999997E+02  0.45594000000E+02  0.51100000000E-03 0.  1.
    9900012    2    1    2    0    0 -0.38560818132E+02 -0.12780609384E+02  0.16989146849E+01  0.50528843807E+02  0.29999951235E+02 0.  0.
         12    1    1    2    0    0  0.38560818132E+02  0.12780609384E+02 -0.16989146849E+01  0.40659156193E+02  0.00000000000E+00 0. -1.
         11    1    3    3    0    0 -0.34450417330E+01  0.60931920371E+01 -0.19673821400E+01  0.72708936513E+01  0.51100000000E-03 0. -1.
        -11    1    3    3    0    0  0.40529084496E+00  0.90606583334E+00 -0.19760429842E+01  0.22113258692E+01  0.51100000000E-03 0.  1.
        -12    1    3    3    0    0 -0.35521067244E+02 -0.19779867255E+02  0.56423398091E+01  0.41046624286E+02  0.00000000000E+00 0.  1.
</event>
<event>
 7    1  0.2755991E-011  0.5052886E+02  0.7816164E-02  0.1300439E+00
        -11   -1    0    0    0    0  0.00000000000E+00  0.00000000000E+00  0.45593999997E+02  0.45594000000E+02  0.51100000000E-03 0.  1.
         11   -1    0    0    0    0 -0.00000000000E+00 -0.00000000000E+00 -0.45593999997E+02  0.45594000000E+02  0.51100000000E-03 0. -1.
    9900012    2    1    2    0    0 -0.34188275594E+02  0.69129001079E+01  0.20893530484E+02  0.50528855984E+02  0.29999988250E+02 0.  0.
         12    1    1    2    0    0  0.34188275594E+02 -0.69129001079E+01 -0.20893530484E+02  0.40659144016E+02  0.00000000000E+00 0. -1.
         11    1    3    3    0    0 -0.31986168446E+01  0.20917277142E+01 -0.26666302285E+01  0.46601922263E+01  0.51100000000E-03 0. -1.
        -11    1    3    3    0    0 -0.13145073426E+02  0.67596494051E+01 -0.17019963100E+01  0.14878931653E+02  0.51100000000E-03 0.  1.
        -12    1    3    3    0    0 -0.17844585324E+02 -0.19384770113E+01  0.25262157022E+02  0.30989732105E+02  0.00000000000E+00 0.  1.
</event>
<event>
 7    1  0.2755991E-011  0.5052886E+02  0.7816164E-02  0.1300439E+00
        -11   -1    0    0    0    0  0.00000000000E+00  0.00000000000E+00  0.45593999997E+02  0.45594000000E+02  0.51100000000E-03 0. -1.
         11   -1    0    0    0    0 -0.00000000000E+00 -0.00000000000E+00 -0.45593999997E+02  0.45594000000E+02  0.51100000000E-03 0.  1.
    9900012    2    1    2    0    0 -0.21714699613E+02 -0.10178274834E+02 -0.32833519417E+02  0.50528862586E+02  0.30000008318E+02 0.  0.
         12    1    1    2    0    0  0.21714699613E+02  0.10178274834E+02  0.32833519417E+02  0.40659137414E+02  0.00000000000E+00 0. -1.
         11    1    3    3    0    0  0.59353529921E+00  0.22865623037E+01 -0.18370734747E+00  0.23694725089E+01  0.51100000000E-03 0. -1.
        -11    1    3    3    0    0 -0.28650193145E+01  0.55171610256E+01 -0.15257165436E+02  0.16475087218E+02  0.51100000000E-03 0.  1.
        -12    1    3    3    0    0 -0.19443215598E+02 -0.17981998163E+02 -0.17392646634E+02  0.31684302859E+02  0.00000000000E+00 0.  1.
</event>
<event>
 7    1  0.2755991E-011  0.5052886E+02  0.7816164E-02  0.1300439E+00
        -11   -1    0    0    0    0  0.00000000000E+00  0.00000000000E+00  0.45593999997E+02  0.45594000000E+02  0.51100000000E-03 0.  1.
         11   -1    0    0    0    0 -0.00000000000E+00 -0.00000000000E+00 -0.45593999997E+02  0.45594000000E+02  0.51100000000E-03 0. -1.
    9900012    2    1    2    0    0  0.26638507027E+02  0.77570514516E+01  0.29721779050E+02  0.50528855226E+02  0.29999985946E+02 0.  0.
         12    1    1    2    0    0 -0.26638507027E+02 -0.77570514516E+01 -0.29721779050E+02  0.40659144774E+02  0.00000000000E+00 0. -1.
         11    1    3    3    0    0  0.10207148747E+02  0.16048908234E+01  0.57793362872E+01  0.11839015511E+02  0.51100000000E-03 0. -1.
        -11    1    3    3    0    0  0.15405344279E+02  0.14116610405E+02  0.22172652095E+02  0.30466864342E+02  0.51100000000E-03 0.  1.
        -12    1    3    3    0    0  0.10260140008E+01 -0.79644497765E+01  0.17697906680E+01  0.82229753728E+01  0.00000000000E+00 0.  1.
</event>
<event>
 7    1  0.2755991E-011  0.5052885E+02  0.7816164E-02  0.1300439E+00
        -11   -1    0    0    0    0  0.00000000000E+00  0.00000000000E+00  0.45593999997E+02  0.45594000000E+02  0.51100000000E-03 0.  1.
         11   -1    0    0    0    0 -0.00000000000E+00 -0.00000000000E+00 -0.45593999997E+02  0.45594000000E+02  0.51100000000E-03 0. -1.
    9900012    2    1    2    0    0  0.26784506944E+02  0.29893328956E+02 -0.64919312658E+01  0.50528854659E+02  0.29999984222E+02 0.  0.
         12    1    1    2    0    0 -0.26784506944E+02 -0.29893328956E+02  0.64919312658E+01  0.40659145341E+02  0.00000000000E+00 0. -1.
         11    1    3    3    0    0  0.18700008341E+02  0.21186103580E+02 -0.36175164586E+01  0.28489080758E+02  0.51100000000E-03 0. -1.
        -11    1    3    3    0    0  0.12225088999E+02  0.86656528695E+01  0.25658011344E+01  0.15202949596E+02  0.51100000000E-03 0.  1.
         12    1    3    3    0    0 -0.41405903956E+01  0.41572506398E-01 -0.54402159416E+01  0.68368243058E+01  0.00000000000E+00 0. -1.
</event>
<event>
 7    1  0.2755991E-011  0.5052886E+02  0.7816164E-02  0.1300439E+00
        -11   -1    0    0    0    0  0.00000000000E+00  0.00000000000E+00  0.45593999997E+02  0.45594000000E+02  0.51100000000E-03 0.  1.
         11   -1    0    0    0    0 -0.00000000000E+00 -0.00000000000E+00 -0.45593999997E+02  0.45594000000E+02  0.51100000000E-03 0. -1.
    9900012    2    1    2    0    0  0.19345557149E+02 -0.32756301273E+02  0.14350603903E+02  0.50528859738E+02  0.29999999659E+02 0.  0.
         12    1    1    2    0    0 -0.19345557149E+02  0.32756301273E+02 -0.14350603903E+02  0.40659140262E+02  0.00000000000E+00 0. -1.
         11    1    3    3    0    0  0.93631865769E+00 -0.12552756466E+02  0.13353664962E+01  0.12658261787E+02  0.51100000000E-03 0. -1.
        -11    1    3    3    0    0  0.21157100369E+02 -0.74003435081E+01  0.71938520496E+01  0.23540167536E+02  0.51100000000E-03 0.  1.
         12    1    3    3    0    0 -0.27478618774E+01 -0.12803201299E+02  0.58213853569E+01  0.14330430414E+02  0.00000000000E+00 0. -1.
</event>
<event>
 7    1  0.2755991E-011  0.5052886E+02  0.7816164E-02  0.1300439E+00
        -11   -1    0    0    0    0  0.00000000000E+00  0.00000000000E+00  0.45593999997E+02  0.45594000000E+02  0.51100000000E-03 0.  1.
         11   -1    0    0    0    0 -0.00000000000E+00 -0.00000000000E+00 -0.45593999997E+02  0.45594000000E+02  0.51100000000E-03 0. -1.
    9900012    2    1    2    0    0 -0.49968238043E+01 -0.39944071571E+02 -0.57156220078E+01  0.50528862814E+02  0.30000009008E+02 0.  0.
         12    1    1    2    0    0  0.49968238043E+01  0.39944071571E+02  0.57156220078E+01  0.40659137186E+02  0.00000000000E+00 0. -1.
         11    1    3    3    0    0 -0.23377791538E+01 -0.10754189254E+01 -0.18591347290E+01  0.31746053989E+01  0.51100000000E-03 0. -1.
        -11    1    3    3    0    0 -0.11637804301E+02 -0.16289504696E+02 -0.98726970657E+01  0.22321662120E+02  0.51100000000E-03 0.  1.
         12    1    3    3    0    0  0.89787596504E+01 -0.22579147949E+02  0.60162097869E+01  0.25032595294E+02  0.00000000000E+00 0. -1.
</event>
<event>
 7    1  0.2755991E-011  0.5052887E+02  0.7816164E-02  0.1300439E+00
        -11   -1    0    0    0    0  0.00000000000E+00  0.00000000000E+00  0.45593999997E+02  0.45594000000E+02  0.51100000000E-03 0. -1.
         11   -1    0    0    0    0 -0.00000000000E+00 -0.00000000000E+00 -0.45593999997E+02  0.45594000000E+02  0.51100000000E-03 0.  1.
    9900012    2    1    2    0    0  0.11617327803E+02 -0.30876076721E+02 -0.23766995892E+02  0.50528874177E+02  0.30000043548E+02 0.  0.
         12    1    1    2    0    0 -0.11617327803E+02  0.30876076721E+02  0.23766995892E+02  0.40659125823E+02  0.00000000000E+00 0. -1.
         11    1    3    3    0    0 -0.85098181123E+01 -0.67309335249E+01 -0.10148642967E+02  0.14856561674E+02  0.51100000000E-03 0. -1.
        -11    1    3    3    0    0  0.53081303911E+01 -0.41337868264E+01  0.99344213336E+00  0.68008359272E+01  0.51100000000E-03 0.  1.
        -12    1    3    3    0    0  0.14819015524E+02 -0.20011356370E+02 -0.14611795058E+02  0.28871476576E+02  0.00000000000E+00 0.  1.
</event>
<event>
 7    1  0.2755991E-011  0.5052888E+02  0.7816164E-02  0.1300439E+00
        -11   -1    0    0    0    0  0.00000000000E+00  0.00000000000E+00  0.45593999997E+02  0.45594000000E+02  0.51100000000E-03 0.  1.
         11   -1    0    0    0    0 -0.00000000000E+00 -0.00000000000E+00 -0.45593999997E+02  0.45594000000E+02  0.51100000000E-03 0. -1.
    9900012    2    1    2    0    0 -0.15792158895E+02  0.31018836832E+02  0.21014356156E+02  0.50528884348E+02  0.30000074463E+02 0.  0.
         12    1    1    2    0    0  0.15792158895E+02 -0.31018836832E+02 -0.21014356156E+02  0.40659115652E+02  0.00000000000E+00 0. -1.
         11    1    3    3    0    0  0.35543505173E+01  0.28521100976E+00 -0.89719412453E+00  0.36769158921E+01  0.51100000000E-03 0. -1.
        -11    1    3    3    0    0 -0.49945030803E+00  0.45582251237E+01 -0.35171903517E+01  0.57790565942E+01  0.51100000000E-03 0.  1.
        -12    1    3    3    0    0 -0.18847059104E+02  0.26175400698E+02  0.25428740633E+02  0.41072911861E+02  0.00000000000E+00 0.  1.
</event>
<event>
 7    1  0.2755991E-011  0.5052886E+02  0.7816164E-02  0.1300439E+00
        -11   -1    0    0    0    0  0.00000000000E+00  0.00000000000E+00  0.45593999997E+02  0.45594000000E+02  0.51100000000E-03 0.  1.
         11   -1    0    0    0    0 -0.00000000000E+00 -0.00000000000E+00 -0.45593999997E+02  0.45594000000E+02  0.51100000000E-03 0. -1.
    9900012    2    1    2    0    0 -0.19131370763E+02  0.17427469523E+02  0.31359842651E+02  0.50528858687E+02  0.29999996465E+02 0.  0.
         12    1    1    2    0    0  0.19131370763E+02 -0.17427469523E+02 -0.31359842651E+02  0.40659141313E+02  0.00000000000E+00 0. -1.
         11    1    3    3    0    0 -0.78873531541E+01  0.75628801712E+01  0.23510203495E+01  0.11177423371E+02  0.51100000000E-03 0. -1.
        -11    1    3    3    0    0 -0.34641740300E+01  0.15954058752E+01 -0.33389865708E+01  0.50689893665E+01  0.51100000000E-03 0.  1.
        -12    1    3    3    0    0 -0.77798435786E+01  0.82691834765E+01  0.32347808872E+02  0.34282445950E+02  0.00000000000E+00 0.  1.
</event>
<event>
 7    1  0.2755991E-011  0.5052899E+02  0.7816164E-02  0.1300438E+00
        -11   -1    0    0    0    0  0.00000000000E+00  0.00000000000E+00  0.45593999997E+02  0.45594000000E+02  0.51100000000E-03 0. -1.
         11   -1    0    0    0    0 -0.00000000000E+00 -0.00000000000E+00 -0.45593999997E+02  0.45594000000E+02  0.51100000000E-03 0.  1.
    9900012    2    1    2    0    0  0.49631444942E+01  0.17204111375E+02 -0.36503987933E+02  0.50528986405E+02  0.30000384675E+02 0.  0.
         12    1    1    2    0    0 -0.49631444942E+01 -0.17204111375E+02  0.36503987933E+02  0.40659013595E+02  0.00000000000E+00 0. -1.
         11    1    3    3    0    0  0.87280897497E+01  0.80505919298E+01 -0.33435624672E+01  0.12335760671E+02  0.51100000000E-03 0. -1.
        -11    1    3    3    0    0  0.58035568101E+01  0.22683129264E+01 -0.17608576359E+02  0.18678556605E+02  0.51100000000E-03 0.  1.
        -12    1    3    3    0    0 -0.95685020656E+01  0.68852065186E+01 -0.15551849107E+02  0.19514669129E+02  0.00000000000E+00 0.  1.
</event>
<event>
 7    1  0.2755991E-011  0.5052889E+02  0.7816164E-02  0.1300439E+00
        -11   -1    0    0    0    0  0.00000000000E+00  0.00000000000E+00  0.45593999997E+02  0.45594000000E+02  0.51100000000E-03 0. -1.
         11   -1    0    0    0    0 -0.00000000000E+00 -0.00000000000E+00 -0.45593999997E+02  0.45594000000E+02  0.51100000000E-03 0.  1.
    9900012    2    1    2    0    0 -0.25536854938E+02  0.19734591758E+02 -0.24730112320E+02  0.50528886294E+02  0.30000080380E+02 0.  0.
         12    1    1    2    0    0  0.25536854938E+02 -0.19734591758E+02  0.24730112320E+02  0.40659113706E+02  0.00000000000E+00 0. -1.
         11    1    3    3    0    0 -0.21041600604E+01  0.63334553897E+01 -0.14457077193E+02  0.15923166393E+02  0.51100000000E-03 0. -1.
        -11    1    3    3    0    0 -0.31033136002E+01  0.10360374474E+02 -0.88965309802E+01  0.14004148610E+02  0.51100000000E-03 0.  1.
         12    1    3    3    0    0 -0.20329381278E+02  0.30407618944E+01 -0.13765041461E+01  0.20601571292E+02  0.00000000000E+00 0. -1.
</event>
<event>
 7    1  0.2755991E-011  0.5052886E+02  0.7816164E-02  0.1300439E+00
        -11   -1    0    0    0    0  0.00000000000E+00  0.00000000000E+00  0.45593999997E+02  0.45594000000E+02  0.51100000000E-03 0.  1.
         11   -1    0    0    0    0 -0.00000000000E+00 -0.00000000000E+00 -0.45593999997E+02  0.45594000000E+02  0.51100000000E-03 0. -1.
    9900012    2    1    2    0    0 -0.20173023027E+02  0.87044946673E+01  0.34211787212E+02  0.50528862408E+02  0.30000007776E+02 0.  0.
         12    1    1    2    0    0  0.20173023027E+02 -0.87044946673E+01 -0.34211787212E+02  0.40659137592E+02  0.00000000000E+00 0. -1.
         11    1    3    3    0    0 -0.13595055222E+02  0.11771421796E+02  0.10919444850E+02  0.21038682794E+02  0.51100000000E-03 0. -1.
        -11    1    3    3    0    0 -0.10478700175E+02  0.92125764408E+00  0.80105708403E+01  0.13221993740E+02  0.51100000000E-03 0.  1.
         12    1    3    3    0    0  0.39007323702E+01 -0.39881847733E+01  0.15281771521E+02  0.16268185874E+02  0.00000000000E+00 0. -1.
</event>
<event>
 7    1  0.2755991E-011  0.5052886E+02  0.7816164E-02  0.1300439E+00
        -11   -1    0    0    0    0  0.00000000000E+00  0.00000000000E+00  0.45593999997E+02  0.45594000000E+02  0.51100000000E-03 0.  1.
         11   -1    0    0    0    0 -0.00000000000E+00 -0.00000000000E+00 -0.45593999997E+02  0.45594000000E+02  0.51100000000E-03 0. -1.
    9900012    2    1    2    0    0  0.32933127611E+02 -0.20939786389E+02  0.11406137201E+02  0.50528861862E+02  0.30000006116E+02 0.  0.
         12    1    1    2    0    0 -0.32933127611E+02  0.20939786389E+02 -0.11406137201E+02  0.40659138138E+02  0.00000000000E+00 0. -1.
         11    1    3    3    0    0  0.18208539322E+02 -0.17136540179E+02  0.86395683345E+00  0.25019159362E+02  0.51100000000E-03 0. -1.
        -11    1    3    3    0    0  0.89744317073E+01 -0.79698309211E+01  0.13279057522E+02  0.17899497152E+02  0.51100000000E-03 0.  1.
        -12    1    3    3    0    0  0.57501565823E+01  0.41665847106E+01 -0.27368771542E+01  0.76102053473E+01  0.00000000000E+00 0.  1.
</event>
<event>
 7    1  0.2755991E-011  0.5052881E+02  0.7816164E-02  0.1300439E+00
        -11   -1    0    0    0    0  0.00000000000E+00  0.00000000000E+00  0.45593999997E+02  0.45594000000E+02  0.51100000000E-03 0. -1.
         11   -1    0    0    0    0 -0.00000000000E+00 -0.00000000000E+00 -0.45593999997E+02  0.45594000000E+02  0.51100000000E-03 0.  1.
    9900012    2    1    2    0    0 -0.93568384217E+00 -0.34460982650E+02 -0.21557705102E+02  0.50528813108E+02  0.29999857923E+02 0.  0.
         12    1    1    2    0    0  0.93568384217E+00  0.34460982650E+02  0.21557705102E+02  0.40659186892E+02  0.00000000000E+00 0. -1.
         11    1    3    3    0    0  0.81813806623E+00  0.11937202916E+01 -0.19100803199E+01  0.23963983641E+01  0.51100000000E-03 0. -1.
        -11    1    3    3    0    0  0.77003327751E+01 -0.12993032379E+02 -0.18036293969E+02  0.23524921161E+02  0.51100000000E-03 0.  1.
        -12    1    3    3    0    0 -0.94541546835E+01 -0.22661670562E+02 -0.16113308135E+01  0.24607493583E+02  0.00000000000E+00 0.  1.
</event>
<event>
 7    1  0.2755991E-011  0.5052885E+02  0.7816164E-02  0.1300439E+00
        -11   -1    0    0    0    0  0.00000000000E+00  0.00000000000E+00  0.45593999997E+02  0.45594000000E+02  0.51100000000E-03 0.  1.
         11   -1    0    0    0    0 -0.00000000000E+00 -0.00000000000E+00 -0.45593999997E+02  0.45594000000E+02  0.51100000000E-03 0. -1.
    9900012    2    1    2    0    0 -0.49391242091E+01 -0.78824282423E+01  0.39580786839E+02  0.50528852078E+02  0.29999976377E+02 0.  0.
         12    1    1    2    0    0  0.49391242091E+01  0.78824282423E+01 -0.39580786839E+02  0.40659147922E+02  0.00000000000E+00 0. -1.
         11    1    3    3    0    0  0.65307236107E+01  0.44821944954E+01  0.12081449070E+02  0.14446516199E+02  0.51100000000E-03 0. -1.
        -11    1    3    3    0    0  0.37962269123E+01 -0.52117680443E+01  0.87355434314E+01  0.10857420698E+02  0.51100000000E-03 0.  1.
        -12    1    3    3    0    0 -0.15266074732E+02 -0.71528546934E+01  0.18763794337E+02  0.25224915181E+02  0.00000000000E+00 0.  1.
</event>
<event>
 7    1  0.2755991E-011  0.5052885E+02  0.7816164E-02  0.1300439E+00
        -11   -1    0    0    0    0  0.00000000000E+00  0.00000000000E+00  0.45593999997E+02  0.45594000000E+02  0.51100000000E-03 0.  1.
         11   -1    0    0    0    0 -0.00000000000E+00 -0.00000000000E+00 -0.45593999997E+02  0.45594000000E+02  0.51100000000E-03 0. -1.
    9900012    2    1    2    0    0  0.39204273243E+01 -0.25999615608E+02  0.31013165448E+02  0.50528853510E+02  0.29999980730E+02 0.  0.
         12    1    1    2    0    0 -0.39204273243E+01  0.25999615608E+02 -0.31013165448E+02  0.40659146490E+02  0.00000000000E+00 0. -1.
         11    1    3    3    0    0  0.23987175223E+01  0.38602739722E+00 -0.45617011098E+00  0.24720344525E+01  0.51100000000E-03 0. -1.
        -11    1    3    3    0    0  0.10839670774E+02 -0.39236837971E+01  0.13887578067E+02  0.18048783390E+02  0.51100000000E-03 0.  1.
        -12    1    3    3    0    0 -0.93179609717E+01 -0.22461959208E+02  0.17581757491E+02  0.30008035668E+02  0.00000000000E+00 0.  1.
</event>
<event>
 7    1  0.2755991E-011  0.5052891E+02  0.7816164E-02  0.1300439E+00
        -11   -1    0    0    0    0  0.00000000000E+00  0.00000000000E+00  0.45593999997E+02  0.45594000000E+02  0.51100000000E-03 0.  1.
         11   -1    0    0    0    0 -0.00000000000E+00 -0.00000000000E+00 -0.45593999997E+02  0.45594000000E+02  0.51100000000E-03 0. -1.
    9900012    2    1    2    0    0  0.12576563320E+02  0.83411886528E+01  0.37754685493E+02  0.50528909384E+02  0.30000150563E+02 0.  0.
         12    1    1    2    0    0 -0.12576563320E+02 -0.83411886528E+01 -0.37754685493E+02  0.40659090616E+02  0.00000000000E+00 0. -1.
         11    1    3    3    0    0  0.66473855310E-01 -0.12612665465E-01  0.83037370258E+00  0.83312580072E+00  0.51100000000E-03 0. -1.
        -11    1    3    3    0    0  0.13289958774E+02  0.18780225911E+01  0.40211012935E+02  0.42391927706E+02  0.51100000000E-03 0.  1.
         12    1    3    3    0    0 -0.77986930976E+00  0.64757787272E+01 -0.32867011451E+01  0.73038558776E+01  0.00000000000E+00 0. -1.
</event>
<event>
 7    1  0.2755991E-011  0.5052890E+02  0.7816164E-02  0.1300439E+00
        -11   -1    0    0    0    0  0.00000000000E+00  0.00000000000E+00  0.45593999997E+02  0.45594000000E+02  0.51100000000E-03 0.  1.
         11   -1    0    0    0    0 -0.00000000000E+00 -0.00000000000E+00 -0.45593999997E+02  0.45594000000E+02  0.51100000000E-03 0. -1.
    9900012    2    1    2    0    0 -0.33658450702E+02  0.15342841171E+02  0.16878034250E+02  0.50528903613E+02  0.30000133022E+02 0.  0.
         12    1    1    2    0    0  0.33658450702E+02 -0.15342841171E+02 -0.16878034250E+02  0.40659096387E+02  0.00000000000E+00 0. -1.
         11    1    3    3    0    0 -0.71502806524E+00 -0.16302521040E+01  0.86897177818E+01  0.88701850288E+01  0.51100000000E-03 0.  1.
        -11    1    3    3    0    0 -0.13300664897E+02  0.12835760006E+02  0.10812207305E+02  0.21414206702E+02  0.51100000000E-03 0. -1.
         12    1    3    3    0    0 -0.19642757740E+02  0.41373332691E+01 -0.26238908365E+01  0.20244511882E+02  0.00000000000E+00 0. -1.
</event>
<event>
 7    1  0.2755991E-011  0.5052886E+02  0.7816164E-02  0.1300439E+00
        -11   -1    0    0    0    0  0.00000000000E+00  0.00000000000E+00  0.45593999997E+02  0.45594000000E+02  0.51100000000E-03 0.  1.
         11   -1    0    0    0    0 -0.00000000000E+00 -0.00000000000E+00 -0.45593999997E+02  0.45594000000E+02  0.51100000000E-03 0. -1.
    9900012    2    1    2    0    0 -0.23236066865E+02  0.29640040317E+02  0.15320542537E+02  0.50528858137E+02  0.29999994793E+02 0.  0.
         12    1    1    2    0    0  0.23236066865E+02 -0.29640040317E+02 -0.15320542537E+02  0.40659141863E+02  0.00000000000E+00 0. -1.
         11    1    3    3    0    0 -0.78616156815E+01  0.37855682430E+01  0.11387857224E+01  0.87995659682E+01  0.51100000000E-03 0. -1.
        -11    1    3    3    0    0 -0.17001873673E+02  0.13308072234E+02  0.18426245697E+02  0.28384767494E+02  0.51100000000E-03 0.  1.
        -12    1    3    3    0    0  0.16274224887E+01  0.12546399841E+02 -0.42444888821E+01  0.13344524675E+02  0.00000000000E+00 0.  1.
</event>
<event>
 7    1  0.2755991E-011  0.5052886E+02  0.7816164E-02  0.1300439E+00
        -11   -1    0    0    0    0  0.00000000000E+00  0.00000000000E+00  0.45593999997E+02  0.45594000000E+02  0.51100000000E-03 0.  1.
         11   -1    0    0    0    0 -0.00000000000E+00 -0.00000000000E+00 -0.45593999997E+02  0.45594000000E+02  0.51100000000E-03 0. -1.
    9900012    2    1    2    0    0  0.24627225573E+02  0.42904775687E+01  0.32066447129E+02  0.50528862421E+02  0.30000007816E+02 0.  0.
         12    1    1    2    0    0 -0.24627225573E+02 -0.42904775687E+01 -0.32066447129E+02  0.40659137579E+02  0.00000000000E+00 0. -1.
         11    1    3    3    0    0 -0.21332221883E+01 -0.10788297947E+01 -0.17400774934E+01  0.29567516931E+01  0.51100000000E-03 0. -1.
        -11    1    3    3    0    0  0.10808693930E+02 -0.66660987496E+01  0.83032569831E+01  0.15172633713E+02  0.51100000000E-03 0.  1.
        -12    1    3    3    0    0  0.15951753831E+02  0.12035406113E+02  0.25503267639E+02  0.32399477015E+02  0.00000000000E+00 0.  1.
</event>
<event>
 7    1  0.2755991E-011  0.5052886E+02  0.7816164E-02  0.1300439E+00
        -11   -1    0    0    0    0  0.00000000000E+00  0.00000000000E+00  0.45593999997E+02  0.45594000000E+02  0.51100000000E-03 0. -1.
         11   -1    0    0    0    0 -0.00000000000E+00 -0.00000000000E+00 -0.45593999997E+02  0.45594000000E+02  0.51100000000E-03 0.  1.
    9900012    2    1    2    0    0  0.37333368160E+02 -0.15981069224E+02  0.19976742465E+01  0.50528860141E+02  0.30000000884E+02 0.  0.
         12    1    1    2    0    0 -0.37333368160E+02  0.15981069224E+02 -0.19976742465E+01  0.40659139859E+02  0.00000000000E+00 0. -1.
         11    1    3    3    0    0  0.12325594034E+02 -0.11786976535E+02 -0.10912621369E+02  0.20246935312E+02  0.51100000000E-03 0.  1.
        -11    1    3    3    0    0  0.19048449538E+02 -0.32084284644E+01  0.43423005925E+01  0.19798813543E+02  0.51100000000E-03 0. -1.
        -12    1    3    3    0    0  0.59593245874E+01 -0.98566422415E+00  0.85679950231E+01  0.10483111285E+02  0.00000000000E+00 0.  1.
</event>
<event>
 7    1  0.2755991E-011  0.5052888E+02  0.7816164E-02  0.1300439E+00
        -11   -1    0    0    0    0  0.00000000000E+00  0.00000000000E+00  0.45593999997E+02  0.45594000000E+02  0.51100000000E-03 0. -1.
         11   -1    0    0    0    0 -0.00000000000E+00 -0.00000000000E+00 -0.45593999997E+02  0.45594000000E+02  0.51100000000E-03 0.  1.
    9900012    2    1    2    0    0 -0.40572658357E+02 -0.20662082452E+01  0.16596632761E+01  0.50528876733E+02  0.30000051318E+02 0.  0.
         12    1    1    2    0    0  0.40572658357E+02  0.20662082452E+01 -0.16596632761E+01  0.40659123267E+02  0.00000000000E+00 0. -1.
         11    1    3    3    0    0 -0.18878106387E+02 -0.26155286337E+01 -0.32636999717E+01  0.19335863791E+02  0.51100000000E-03 0. -1.
        -11    1    3    3    0    0 -0.25996479749E+02  0.25477252691E+00  0.61394337539E+01  0.26712815566E+02  0.51100000000E-03 0.  1.
         12    1    3    3    0    0  0.43019277789E+01  0.29454786158E+00 -0.12160705061E+01  0.44801973766E+01  0.00000000000E+00 0. -1.
</event>
<event>
 7    1  0.2755991E-011  0.5052886E+02  0.7816164E-02  0.1300439E+00
        -11   -1    0    0    0    0  0.00000000000E+00  0.00000000000E+00  0.45593999997E+02  0.45594000000E+02  0.51100000000E-03 0.  1.
         11   -1    0    0    0    0 -0.00000000000E+00 -0.00000000000E+00 -0.45593999997E+02  0.45594000000E+02  0.51100000000E-03 0. -1.
    9900012    2    1    2    0    0  0.28797966633E+02 -0.23618822570E+02 -0.16309329751E+02  0.50528857132E+02  0.29999991739E+02 0.  0.
         12    1    1    2    0    0 -0.28797966633E+02  0.23618822570E+02  0.16309329751E+02  0.40659142868E+02  0.00000000000E+00 0. -1.
         11    1    3    3    0    0  0.56171886989E+01 -0.69638519170E+01 -0.28697764720E+01  0.93959384662E+01  0.51100000000E-03 0. -1.
        -11    1    3    3    0    0  0.19139061328E+02 -0.23248405314E+02 -0.14328950884E+02  0.33348326073E+02  0.51100000000E-03 0.  1.
         12    1    3    3    0    0  0.40417166061E+01  0.65934346605E+01  0.88939760448E+00  0.77845925934E+01  0.00000000000E+00 0. -1.
</event>
<event>
 7    1  0.2755991E-011  0.5052886E+02  0.7816164E-02  0.1300439E+00
        -11   -1    0    0    0    0  0.00000000000E+00  0.00000000000E+00  0.45593999997E+02  0.45594000000E+02  0.51100000000E-03 0. -1.
         11   -1    0    0    0    0 -0.00000000000E+00 -0.00000000000E+00 -0.45593999997E+02  0.45594000000E+02  0.51100000000E-03 0.  1.
    9900012    2    1    2    0    0 -0.21569179000E+02 -0.77862137537E+01 -0.33575452931E+02  0.50528860229E+02  0.30000001153E+02 0.  0.
         12    1    1    2    0    0  0.21569179000E+02  0.77862137537E+01  0.33575452931E+02  0.40659139771E+02  0.00000000000E+00 0. -1.
         11    1    3    3    0    0 -0.13714362832E+02  0.48346392472E+01 -0.14637261955E+02  0.20632666390E+02  0.51100000000E-03 0. -1.
        -11    1    3    3    0    0 -0.10552120953E+02 -0.10356720641E+02 -0.21099477967E+02  0.25764256049E+02  0.51100000000E-03 0.  1.
         12    1    3    3    0    0  0.26973047850E+01 -0.22641323600E+01  0.21612869906E+01  0.41319377902E+01  0.00000000000E+00 0. -1.
</event>
<event>
 7    1  0.2755991E-011  0.5052887E+02  0.7816164E-02  0.1300439E+00
        -11   -1    0    0    0    0  0.00000000000E+00  0.00000000000E+00  0.45593999997E+02  0.45594000000E+02  0.51100000000E-03 0. -1.
         11   -1    0    0    0    0 -0.00000000000E+00 -0.00000000000E+00 -0.45593999997E+02  0.45594000000E+02  0.51100000000E-03 0.  1.
    9900012    2    1    2    0    0  0.37390622308E+02  0.79032423104E+01 -0.13879670580E+02  0.50528866574E+02  0.30000020437E+02 0.  0.
         12    1    1    2    0    0 -0.37390622308E+02 -0.79032423104E+01  0.13879670580E+02  0.40659133426E+02  0.00000000000E+00 0. -1.
         11    1    3    3    0    0 -0.21444904098E+01  0.50741180729E+00 -0.10173690583E+01  0.24272094928E+01  0.51100000000E-03 0. -1.
        -11    1    3    3    0    0 -0.64975514506E+00 -0.43982837583E+01 -0.16979390849E+01  0.47592099307E+01  0.51100000000E-03 0.  1.
         12    1    3    3    0    0  0.40184867862E+02  0.11794114261E+02 -0.11164362437E+02  0.43342447150E+02  0.00000000000E+00 0. -1.
</event>
<event>
 7    1  0.2755991E-011  0.5052886E+02  0.7816164E-02  0.1300439E+00
        -11   -1    0    0    0    0  0.00000000000E+00  0.00000000000E+00  0.45593999997E+02  0.45594000000E+02  0.51100000000E-03 0. -1.
         11   -1    0    0    0    0 -0.00000000000E+00 -0.00000000000E+00 -0.45593999997E+02  0.45594000000E+02  0.51100000000E-03 0.  1.
    9900012    2    1    2    0    0  0.38197282234E+01  0.25200017395E+02 -0.31678614229E+02  0.50528858348E+02  0.29999995434E+02 0.  0.
         12    1    1    2    0    0 -0.38197282234E+01 -0.25200017395E+02  0.31678614229E+02  0.40659141652E+02  0.00000000000E+00 0. -1.
         11    1    3    3    0    0  0.50987666015E+00 -0.23001721595E+01  0.29590527594E+01  0.37824277476E+01  0.51100000000E-03 0. -1.
        -11    1    3    3    0    0 -0.37245655314E+01  0.36726310766E+01 -0.17214355597E+01  0.55067184484E+01  0.51100000000E-03 0.  1.
        -12    1    3    3    0    0  0.70344170947E+01  0.23827558478E+02 -0.32916231429E+02  0.41239712152E+02  0.00000000000E+00 0.  1.
</event>
<event>
 7    1  0.2755991E-011  0.5052886E+02  0.7816164E-02  0.1300439E+00
        -11   -1    0    0    0    0  0.00000000000E+00  0.00000000000E+00  0.45593999997E+02  0.45594000000E+02  0.51100000000E-03 0.  1.
         11   -1    0    0    0    0 -0.00000000000E+00 -0.00000000000E+00 -0.45593999997E+02  0.45594000000E+02  0.51100000000E-03 0. -1.
    9900012    2    1    2    0    0  0.94393355109E+01 -0.97114529597E+01  0.38337349884E+02  0.50528858721E+02  0.29999996567E+02 0.  0.
         12    1    1    2    0    0 -0.94393355109E+01  0.97114529597E+01 -0.38337349884E+02  0.40659141279E+02  0.00000000000E+00 0. -1.
         11    1    3    3    0    0  0.63316396463E+01  0.66054360815E+01  0.72728348105E+01  0.11688266462E+02  0.51100000000E-03 0. -1.
        -11    1    3    3    0    0 -0.66248201517E+01 -0.65519473778E+01  0.15138024438E+02  0.17775714912E+02  0.51100000000E-03 0.  1.
        -12    1    3    3    0    0  0.97325160164E+01 -0.97649416634E+01  0.15926490635E+02  0.21064877347E+02  0.00000000000E+00 0.  1.
</event>
<event>
 7    1  0.2755991E-011  0.5052886E+02  0.7816164E-02  0.1300439E+00
        -11   -1    0    0    0    0  0.00000000000E+00  0.00000000000E+00  0.45593999997E+02  0.45594000000E+02  0.51100000000E-03 0.  1.
         11   -1    0    0    0    0 -0.00000000000E+00 -0.00000000000E+00 -0.45593999997E+02  0.45594000000E+02  0.51100000000E-03 0. -1.
    9900012    2    1    2    0    0 -0.55657711659E+01  0.10153765581E+02  0.38975489390E+02  0.50528861577E+02  0.30000005249E+02 0.  0.
         12    1    1    2    0    0  0.55657711659E+01 -0.10153765581E+02 -0.38975489390E+02  0.40659138423E+02  0.00000000000E+00 0. -1.
         11    1    3    3    0    0  0.48486615494E+01 -0.38122132134E+01  0.85894829922E+01  0.10574578324E+02  0.51100000000E-03 0. -1.
        -11    1    3    3    0    0 -0.10392028243E+02  0.12532316419E+01  0.50808411246E+01  0.11635282006E+02  0.51100000000E-03 0.  1.
        -12    1    3    3    0    0 -0.22404472223E-01  0.12712747153E+02  0.25305165273E+02  0.28319001247E+02  0.00000000000E+00 0.  1.
</event>
<event>
 7    1  0.2755991E-011  0.5052882E+02  0.7816164E-02  0.1300439E+00
        -11   -1    0    0    0    0  0.00000000000E+00  0.00000000000E+00  0.45593999997E+02  0.45594000000E+02  0.51100000000E-03 0.  1.
         11   -1    0    0    0    0 -0.00000000000E+00 -0.00000000000E+00 -0.45593999997E+02  0.45594000000E+02  0.51100000000E-03 0. -1.
    9900012    2    1    2    0    0 -0.38927084571E+02  0.52866199255E+01  0.10483436727E+02  0.50528822572E+02  0.29999886691E+02 0.  0.
         12    1    1    2    0    0  0.38927084571E+02 -0.52866199255E+01 -0.10483436727E+02  0.40659177428E+02  0.00000000000E+00 0. -1.
         11    1    3    3    0    0  0.47300242578E+00 -0.83079176721E+00  0.50280944038E+01  0.51181715339E+01  0.51100000000E-03 0. -1.
        -11    1    3    3    0    0 -0.10001890381E+02  0.24024838496E+01  0.11221620750E+02  0.15222828659E+02  0.51100000000E-03 0.  1.
        -12    1    3    3    0    0 -0.29398196616E+02  0.37149278431E+01 -0.57662784267E+01  0.30187822380E+02  0.00000000000E+00 0.  1.
</event>
<event>
 7    1  0.2755991E-011  0.5052891E+02  0.7816164E-02  0.1300439E+00
        -11   -1    0    0    0    0  0.00000000000E+00  0.00000000000E+00  0.45593999997E+02  0.45594000000E+02  0.51100000000E-03 0.  1.
         11   -1    0    0    0    0 -0.00000000000E+00 -0.00000000000E+00 -0.45593999997E+02  0.45594000000E+02  0.51100000000E-03 0. -1.
    9900012    2    1    2    0    0 -0.16005167952E+02  0.35250342975E+02  0.12426174576E+02  0.50528906360E+02  0.30000141373E+02 0.  0.
         12    1    1    2    0    0  0.16005167952E+02 -0.35250342975E+02 -0.12426174576E+02  0.40659093640E+02  0.00000000000E+00 0. -1.
         11    1    3    3    0    0 -0.67429931933E+01  0.25508214779E+01  0.48114333915E+01  0.86674413155E+01  0.51100000000E-03 0. -1.
        -11    1    3    3    0    0 -0.13610761076E+01  0.27717977064E+01 -0.69856239042E+01  0.76376915549E+01  0.51100000000E-03 0.  1.
        -12    1    3    3    0    0 -0.79010986515E+01  0.29927723790E+02  0.14600365088E+02  0.34223773490E+02  0.00000000000E+00 0.  1.
</event>
<event>
 7    1  0.2755991E-011  0.5052886E+02  0.7816164E-02  0.1300439E+00
        -11   -1    0    0    0    0  0.00000000000E+00  0.00000000000E+00  0.45593999997E+02  0.45594000000E+02  0.51100000000E-03 0.  1.
         11   -1    0    0    0    0 -0.00000000000E+00 -0.00000000000E+00 -0.45593999997E+02  0.45594000000E+02  0.51100000000E-03 0. -1.
    9900012    2    1    2    0    0 -0.27202057551E+02 -0.27586684202E+02  0.12336459353E+02  0.50528864376E+02  0.30000013757E+02 0.  0.
         12    1    1    2    0    0  0.27202057551E+02  0.27586684202E+02 -0.12336459353E+02  0.40659135624E+02  0.00000000000E+00 0. -1.
         11    1    3    3    0    0 -0.20890914148E+01 -0.63778060365E+00  0.91947643983E+00  0.23699165011E+01  0.51100000000E-03 0. -1.
        -11    1    3    3    0    0 -0.13100230965E+02 -0.78996435957E+01  0.19002607656E+02  0.24395071598E+02  0.51100000000E-03 0.  1.
         12    1    3    3    0    0 -0.12012735172E+02 -0.19049260003E+02 -0.75856247424E+01  0.23763876277E+02  0.00000000000E+00 0. -1.
</event>
<event>
 7    1  0.2755991E-011  0.5052885E+02  0.7816164E-02  0.1300439E+00
        -11   -1    0    0    0    0  0.00000000000E+00  0.00000000000E+00  0.45593999997E+02  0.45594000000E+02  0.51100000000E-03 0.  1.
         11   -1    0    0    0    0 -0.00000000000E+00 -0.00000000000E+00 -0.45593999997E+02  0.45594000000E+02  0.51100000000E-03 0. -1.
    9900012    2    1    2    0    0 -0.33475713591E+02  0.16984520435E+02  0.15622720897E+02  0.50528846749E+02  0.29999960179E+02 0.  0.
         12    1    1    2    0    0  0.33475713591E+02 -0.16984520435E+02 -0.15622720897E+02  0.40659153251E+02  0.00000000000E+00 0. -1.
         11    1    3    3    0    0 -0.41461592450E+01 -0.39838591963E+01  0.56804050881E+00  0.57779270384E+01  0.51100000000E-03 0.  1.
        -11    1    3    3    0    0 -0.18588355685E-01 -0.37339810479E+01  0.58869396702E+00  0.37801482565E+01  0.51100000000E-03 0. -1.
        -12    1    3    3    0    0 -0.29310965990E+02  0.24702360680E+02  0.14465986421E+02  0.40970771454E+02  0.00000000000E+00 0.  1.
</event>
<event>
 7    1  0.2755991E-011  0.5052885E+02  0.7816164E-02  0.1300439E+00
        -11   -1    0    0    0    0  0.00000000000E+00  0.00000000000E+00  0.45593999997E+02  0.45594000000E+02  0.51100000000E-03 0. -1.
         11   -1    0    0    0    0 -0.00000000000E+00 -0.00000000000E+00 -0.45593999997E+02  0.45594000000E+02  0.51100000000E-03 0.  1.
    9900012    2    1    2    0    0  0.96581619939E+01 -0.33633187590E+02 -0.20704951641E+02  0.50528850685E+02  0.29999972142E+02 0.  0.
         12    1    1    2    0    0 -0.96581619939E+01  0.33633187590E+02  0.20704951641E+02  0.40659149315E+02  0.00000000000E+00 0. -1.
         11    1    3    3    0    0 -0.13223692960E+01 -0.19883832851E+02 -0.37362643625E+01  0.20274988066E+02  0.51100000000E-03 0. -1.
        -11    1    3    3    0    0  0.25086114293E+01 -0.15625076489E+02 -0.78453696087E+01  0.17663124614E+02  0.51100000000E-03 0.  1.
         12    1    3    3    0    0  0.84719198607E+01  0.18757217501E+01 -0.91233176697E+01  0.12590738005E+02  0.00000000000E+00 0. -1.
</event>
<event>
 7    1  0.2755991E-011  0.5052887E+02  0.7816164E-02  0.1300439E+00
        -11   -1    0    0    0    0  0.00000000000E+00  0.00000000000E+00  0.45593999997E+02  0.45594000000E+02  0.51100000000E-03 0. -1.
         11   -1    0    0    0    0 -0.00000000000E+00 -0.00000000000E+00 -0.45593999997E+02  0.45594000000E+02  0.51100000000E-03 0.  1.
    9900012    2    1    2    0    0 -0.34884622472E+02  0.35107793509E+01 -0.20588889517E+02  0.50528870297E+02  0.30000031755E+02 0.  0.
         12    1    1    2    0    0  0.34884622472E+02 -0.35107793509E+01  0.20588889517E+02  0.40659129703E+02  0.00000000000E+00 0. -1.
         11    1    3    3    0    0 -0.83071890653E+01  0.73350232093E+01 -0.45711896719E+01  0.11987815936E+02  0.51100000000E-03 0. -1.
        -11    1    3    3    0    0 -0.23246772411E+02  0.64207562224E+01 -0.93167813660E+01  0.25854225057E+02  0.51100000000E-03 0.  1.
        -12    1    3    3    0    0 -0.33306609956E+01 -0.10245000081E+02 -0.67009184794E+01  0.12686829304E+02  0.00000000000E+00 0.  1.
</event>
<event>
 7    1  0.2755991E-011  0.5052883E+02  0.7816164E-02  0.1300439E+00
        -11   -1    0    0    0    0  0.00000000000E+00  0.00000000000E+00  0.45593999997E+02  0.45594000000E+02  0.51100000000E-03 0.  1.
         11   -1    0    0    0    0 -0.00000000000E+00 -0.00000000000E+00 -0.45593999997E+02  0.45594000000E+02  0.51100000000E-03 0. -1.
    9900012    2    1    2    0    0 -0.51854858788E+01 -0.39621180680E+01  0.40132035787E+02  0.50528832033E+02  0.29999915446E+02 0.  0.
         12    1    1    2    0    0  0.51854858788E+01  0.39621180680E+01 -0.40132035787E+02  0.40659167967E+02  0.00000000000E+00 0. -1.
         11    1    3    3    0    0 -0.15862096923E+01  0.64700607375E+01  0.82307675055E+01  0.10588828128E+02  0.51100000000E-03 0. -1.
        -11    1    3    3    0    0 -0.11851965147E+02 -0.47764723061E+01  0.11385190614E+02  0.17114506452E+02  0.51100000000E-03 0.  1.
        -12    1    3    3    0    0  0.82526889600E+01 -0.56557064995E+01  0.20516077668E+02  0.22825497452E+02  0.00000000000E+00 0.  1.
</event>
<event>
 7    1  0.2755991E-011  0.5052887E+02  0.7816164E-02  0.1300439E+00
        -11   -1    0    0    0    0  0.00000000000E+00  0.00000000000E+00  0.45593999997E+02  0.45594000000E+02  0.51100000000E-03 0. -1.
         11   -1    0    0    0    0 -0.00000000000E+00 -0.00000000000E+00 -0.45593999997E+02  0.45594000000E+02  0.51100000000E-03 0.  1.
    9900012    2    1    2    0    0 -0.60685334411E+00  0.23396490881E+02 -0.33247569453E+02  0.50528869032E+02  0.30000027910E+02 0.  0.
         12    1    1    2    0    0  0.60685334411E+00 -0.23396490881E+02  0.33247569453E+02  0.40659130968E+02  0.00000000000E+00 0. -1.
         11    1    3    3    0    0 -0.22627392519E+01  0.11703548456E+01  0.27258887489E+01  0.37309769657E+01  0.51100000000E-03 0.  1.
        -11    1    3    3    0    0 -0.64076139264E+01  0.12058407665E+02 -0.76712071692E+01  0.15662379492E+02  0.51100000000E-03 0. -1.
        -12    1    3    3    0    0  0.80634998341E+01  0.10167728370E+02 -0.28302251032E+02  0.31135512575E+02  0.00000000000E+00 0.  1.
</event>
<event>
 7    1  0.2755991E-011  0.5052886E+02  0.7816164E-02  0.1300439E+00
        -11   -1    0    0    0    0  0.00000000000E+00  0.00000000000E+00  0.45593999997E+02  0.45594000000E+02  0.51100000000E-03 0.  1.
         11   -1    0    0    0    0 -0.00000000000E+00 -0.00000000000E+00 -0.45593999997E+02  0.45594000000E+02  0.51100000000E-03 0. -1.
    9900012    2    1    2    0    0 -0.16541789098E+02 -0.28860586785E+02  0.23379513474E+02  0.50528857037E+02  0.29999991451E+02 0.  0.
         12    1    1    2    0    0  0.16541789098E+02  0.28860586785E+02 -0.23379513474E+02  0.40659142963E+02  0.00000000000E+00 0. -1.
         11    1    3    3    0    0 -0.74906305622E+01 -0.11922445361E+02  0.15805377213E+02  0.21167526986E+02  0.51100000000E-03 0. -1.
        -11    1    3    3    0    0 -0.29975447188E+01 -0.52726435595E+01  0.13608971923E+02  0.14899334264E+02  0.51100000000E-03 0.  1.
         12    1    3    3    0    0 -0.60536138174E+01 -0.11665497865E+02 -0.60348356618E+01  0.14461995787E+02  0.00000000000E+00 0. -1.
</event>
<event>
 7    1  0.2755991E-011  0.5052886E+02  0.7816164E-02  0.1300439E+00
        -11   -1    0    0    0    0  0.00000000000E+00  0.00000000000E+00  0.45593999997E+02  0.45594000000E+02  0.51100000000E-03 0. -1.
         11   -1    0    0    0    0 -0.00000000000E+00 -0.00000000000E+00 -0.45593999997E+02  0.45594000000E+02  0.51100000000E-03 0.  1.
    9900012    2    1    2    0    0 -0.11724950132E+02  0.31856205407E+02 -0.22380205059E+02  0.50528857645E+02  0.29999993299E+02 0.  0.
         12    1    1    2    0    0  0.11724950132E+02 -0.31856205407E+02  0.22380205059E+02  0.40659142355E+02  0.00000000000E+00 0. -1.
         11    1    3    3    0    0 -0.18589029494E+01  0.17777230815E+02  0.14708646422E+01  0.17934572721E+02  0.51100000000E-03 0. -1.
        -11    1    3    3    0    0  0.14766948280E+01  0.79438562266E+01 -0.42444627683E+01  0.91269350725E+01  0.51100000000E-03 0.  1.
        -12    1    3    3    0    0 -0.11342742010E+02  0.61351183655E+01 -0.19606606933E+02  0.23467349852E+02  0.00000000000E+00 0.  1.
</event>
<event>
 7    1  0.2755991E-011  0.5052885E+02  0.7816164E-02  0.1300439E+00
        -11   -1    0    0    0    0  0.00000000000E+00  0.00000000000E+00  0.45593999997E+02  0.45594000000E+02  0.51100000000E-03 0.  1.
         11   -1    0    0    0    0 -0.00000000000E+00 -0.00000000000E+00 -0.45593999997E+02  0.45594000000E+02  0.51100000000E-03 0. -1.
    9900012    2    1    2    0    0  0.28533530213E+01 -0.37440311212E+02  0.15596400293E+02  0.50528853068E+02  0.29999979385E+02 0.  0.
         12    1    1    2    0    0 -0.28533530213E+01  0.37440311212E+02 -0.15596400293E+02  0.40659146932E+02  0.00000000000E+00 0. -1.
         11    1    3    3    0    0  0.35714515785E+01 -0.17103574255E+02  0.15280670639E+02  0.23211773179E+02  0.51100000000E-03 0. -1.
        -11    1    3    3    0    0  0.17880803970E+01 -0.14462698312E+02  0.85505104831E+01  0.16896097294E+02  0.51100000000E-03 0.  1.
         12    1    3    3    0    0 -0.25061789542E+01 -0.58740386450E+01 -0.82347808288E+01  0.10420982595E+02  0.00000000000E+00 0. -1.
</event>
<event>
 7    1  0.2755991E-011  0.5052886E+02  0.7816164E-02  0.1300439E+00
        -11   -1    0    0    0    0  0.00000000000E+00  0.00000000000E+00  0.45593999997E+02  0.45594000000E+02  0.51100000000E-03 0.  1.
         11   -1    0    0    0    0 -0.00000000000E+00 -0.00000000000E+00 -0.45593999997E+02  0.45594000000E+02  0.51100000000E-03 0. -1.
    9900012    2    1    2    0    0  0.99961904614E+01  0.19874819710E+02  0.34032830800E+02  0.50528857676E+02  0.29999993392E+02 0.  0.
         12    1    1    2    0    0 -0.99961904614E+01 -0.19874819710E+02 -0.34032830800E+02  0.40659142324E+02  0.00000000000E+00 0. -1.
         11    1    3    3    0    0  0.59472179802E+01  0.10555668401E+01  0.93155966312E+01  0.11102430541E+02  0.51100000000E-03 0. -1.
        -11    1    3    3    0    0  0.13281925289E+02  0.16022410867E+02  0.19185887026E+02  0.28305926069E+02  0.51100000000E-03 0.  1.
         12    1    3    3    0    0 -0.92329528082E+01  0.27968420036E+01  0.55313471431E+01  0.11120501066E+02  0.00000000000E+00 0. -1.
</event>
<event>
 7    1  0.2755991E-011  0.5052886E+02  0.7816164E-02  0.1300439E+00
        -11   -1    0    0    0    0  0.00000000000E+00  0.00000000000E+00  0.45593999997E+02  0.45594000000E+02  0.51100000000E-03 0.  1.
         11   -1    0    0    0    0 -0.00000000000E+00 -0.00000000000E+00 -0.45593999997E+02  0.45594000000E+02  0.51100000000E-03 0. -1.
    9900012    2    1    2    0    0 -0.36337264812E+02 -0.14337601591E+02  0.11278400262E+02  0.50528856553E+02  0.29999989979E+02 0.  0.
         12    1    1    2    0    0  0.36337264812E+02  0.14337601591E+02 -0.11278400262E+02  0.40659143447E+02  0.00000000000E+00 0. -1.
         11    1    3    3    0    0 -0.29682310998E+01 -0.18025346133E+01 -0.44389865019E+01  0.56359673810E+01  0.51100000000E-03 0. -1.
        -11    1    3    3    0    0 -0.23145094939E+01 -0.68518331408E+00 -0.51216283461E+01  0.56619349650E+01  0.51100000000E-03 0.  1.
        -12    1    3    3    0    0 -0.31054524218E+02 -0.11849883663E+02  0.20839015110E+02  0.39230954207E+02  0.00000000000E+00 0.  1.
</event>
<event>
 7    1  0.2755991E-011  0.5052886E+02  0.7816164E-02  0.1300439E+00
        -11   -1    0    0    0    0  0.00000000000E+00  0.00000000000E+00  0.45593999997E+02  0.45594000000E+02  0.51100000000E-03 0.  1.
         11   -1    0    0    0    0 -0.00000000000E+00 -0.00000000000E+00 -0.45593999997E+02  0.45594000000E+02  0.51100000000E-03 0. -1.
    9900012    2    1    2    0    0  0.17056882962E+02 -0.86308565954E+01  0.35885052479E+02  0.50528856707E+02  0.29999990446E+02 0.  0.
         12    1    1    2    0    0 -0.17056882962E+02  0.86308565954E+01 -0.35885052479E+02  0.40659143293E+02  0.00000000000E+00 0. -1.
         11    1    3    3    0    0  0.13035941131E+02  0.12616586015E+01  0.42923709089E+01  0.13782307205E+02  0.51100000000E-03 0. -1.
        -11    1    3    3    0    0  0.87104384487E+01 -0.25617367082E+01  0.10222336896E+02  0.13672249442E+02  0.51100000000E-03 0.  1.
        -12    1    3    3    0    0 -0.46894966182E+01 -0.73307784888E+01  0.21370344673E+02  0.23074300060E+02  0.00000000000E+00 0.  1.
</event>
<event>
 7    1  0.2755991E-011  0.5052884E+02  0.7816164E-02  0.1300439E+00
        -11   -1    0    0    0    0  0.00000000000E+00  0.00000000000E+00  0.45593999997E+02  0.45594000000E+02  0.51100000000E-03 0. -1.
         11   -1    0    0    0    0 -0.00000000000E+00 -0.00000000000E+00 -0.45593999997E+02  0.45594000000E+02  0.51100000000E-03 0.  1.
    9900012    2    1    2    0    0 -0.15836559171E+02 -0.37435514723E+02  0.97626334324E+00  0.50528837945E+02  0.29999933417E+02 0.  0.
         12    1    1    2    0    0  0.15836559171E+02  0.37435514723E+02 -0.97626334324E+00  0.40659162055E+02  0.00000000000E+00 0. -1.
         11    1    3    3    0    0  0.78442576137E+00 -0.18850231174E+02  0.10210480726E+02  0.21452283235E+02  0.51100000000E-03 0. -1.
        -11    1    3    3    0    0 -0.35180233071E+01 -0.10485116147E+02  0.10880353405E+00  0.11060107914E+02  0.51100000000E-03 0.  1.
         12    1    3    3    0    0 -0.13102961625E+02 -0.81001674017E+01 -0.93430209171E+01  0.18016446795E+02  0.00000000000E+00 0. -1.
</event>
<event>
 7    1  0.2755991E-011  0.5052886E+02  0.7816164E-02  0.1300439E+00
        -11   -1    0    0    0    0  0.00000000000E+00  0.00000000000E+00  0.45593999997E+02  0.45594000000E+02  0.51100000000E-03 0.  1.
         11   -1    0    0    0    0 -0.00000000000E+00 -0.00000000000E+00 -0.45593999997E+02  0.45594000000E+02  0.51100000000E-03 0. -1.
    9900012    2    1    2    0    0 -0.12484284954E+02 -0.11494070430E+02  0.36948544287E+02  0.50528856492E+02  0.29999989792E+02 0.  0.
         12    1    1    2    0    0  0.12484284954E+02  0.11494070430E+02 -0.36948544287E+02  0.40659143508E+02  0.00000000000E+00 0. -1.
         11    1    3    3    0    0 -0.47209347156E+01 -0.88920862521E+01  0.15701829551E+02  0.18652181482E+02  0.51100000000E-03 0. -1.
        -11    1    3    3    0    0  0.26843074637E+01 -0.85037072175E+01  0.16910984473E+02  0.19118052702E+02  0.51100000000E-03 0.  1.
         12    1    3    3    0    0 -0.10447657702E+02  0.59017230391E+01  0.43357302628E+01  0.12758622308E+02  0.00000000000E+00 0. -1.
</event>
<event>
 7    1  0.2755991E-011  0.5052886E+02  0.7816164E-02  0.1300439E+00
        -11   -1    0    0    0    0  0.00000000000E+00  0.00000000000E+00  0.45593999997E+02  0.45594000000E+02  0.51100000000E-03 0.  1.
         11   -1    0    0    0    0 -0.00000000000E+00 -0.00000000000E+00 -0.45593999997E+02  0.45594000000E+02  0.51100000000E-03 0. -1.
    9900012    2    1    2    0    0  0.23428990591E+02 -0.17800978950E+02  0.28060176622E+02  0.50528856333E+02  0.29999989308E+02 0.  0.
         12    1    1    2    0    0 -0.23428990591E+02  0.17800978950E+02 -0.28060176622E+02  0.40659143667E+02  0.00000000000E+00 0. -1.
         11    1    3    3    0    0  0.14056016081E+02 -0.46080090880E+01  0.27631427991E+02  0.31341683887E+02  0.51100000000E-03 0. -1.
        -11    1    3    3    0    0 -0.14869699333E+01 -0.21106466413E+01  0.24260511925E+01  0.35428284572E+01  0.51100000000E-03 0.  1.
         12    1    3    3    0    0  0.10859944444E+02 -0.11082323221E+02 -0.19973025614E+01  0.15644343988E+02  0.00000000000E+00 0. -1.
</event>
<event>
 7    1  0.2755991E-011  0.5052890E+02  0.7816164E-02  0.1300439E+00
        -11   -1    0    0    0    0  0.00000000000E+00  0.00000000000E+00  0.45593999997E+02  0.45594000000E+02  0.51100000000E-03 0.  1.
         11   -1    0    0    0    0 -0.00000000000E+00 -0.00000000000E+00 -0.45593999997E+02  0.45594000000E+02  0.51100000000E-03 0. -1.
    9900012    2    1    2    0    0 -0.90288873627E+01 -0.21034124398E+02  0.33603684352E+02  0.50528895260E+02  0.30000107632E+02 0.  0.
         12    1    1    2    0    0  0.90288873627E+01  0.21034124398E+02 -0.33603684352E+02  0.40659104740E+02  0.00000000000E+00 0. -1.
         11    1    3    3    0    0 -0.22537109348E+01 -0.38485986009E+01  0.28262509863E+02  0.28612241929E+02  0.51100000000E-03 0.  1.
        -11    1    3    3    0    0 -0.32035146427E+00 -0.29625264743E+01 -0.29842213668E+01  0.42171987858E+01  0.51100000000E-03 0. -1.
        -12    1    3    3    0    0 -0.64548249636E+01 -0.14222999323E+02  0.83253958560E+01  0.17699454546E+02  0.00000000000E+00 0.  1.
</event>
<event>
 7    1  0.2755991E-011  0.5052886E+02  0.7816164E-02  0.1300439E+00
        -11   -1    0    0    0    0  0.00000000000E+00  0.00000000000E+00  0.45593999997E+02  0.45594000000E+02  0.51100000000E-03 0.  1.
         11   -1    0    0    0    0 -0.00000000000E+00 -0.00000000000E+00 -0.45593999997E+02  0.45594000000E+02  0.51100000000E-03 0. -1.
    9900012    2    1    2    0    0 -0.37719140322E+01  0.24815452936E+02  0.31986431379E+02  0.50528857950E+02  0.29999994224E+02 0.  0.
         12    1    1    2    0    0  0.37719140322E+01 -0.24815452936E+02 -0.31986431379E+02  0.40659142050E+02  0.00000000000E+00 0. -1.
         11    1    3    3    0    0  0.45542879562E+01 -0.48108506295E+00  0.87293129908E+01  0.98576816330E+01  0.51100000000E-03 0. -1.
        -11    1    3    3    0    0 -0.93162954842E+01  0.14755536712E+02  0.24426336673E+02  0.30019412864E+02  0.51100000000E-03 0.  1.
         12    1    3    3    0    0  0.99009349578E+00  0.10541001286E+02 -0.11692182842E+01  0.10651763452E+02  0.00000000000E+00 0. -1.
</event>
<event>
 7    1  0.2755991E-011  0.5052879E+02  0.7816164E-02  0.1300439E+00
        -11   -1    0    0    0    0  0.00000000000E+00  0.00000000000E+00  0.45593999997E+02  0.45594000000E+02  0.51100000000E-03 0. -1.
         11   -1    0    0    0    0 -0.00000000000E+00 -0.00000000000E+00 -0.45593999997E+02  0.45594000000E+02  0.51100000000E-03 0.  1.
    9900012    2    1    2    0    0 -0.30055694223E+02 -0.63303966228E+01 -0.26641186154E+02  0.50528788543E+02  0.29999783254E+02 0.  0.
         12    1    1    2    0    0  0.30055694223E+02  0.63303966228E+01  0.26641186154E+02  0.40659211457E+02  0.00000000000E+00 0. -1.
         11    1    3    3    0    0 -0.22688065145E+01  0.10483907516E+01  0.22492970711E+01  0.33624312251E+01  0.51100000000E-03 0. -1.
        -11    1    3    3    0    0 -0.29729602544E+02 -0.17282527884E+01 -0.28433034457E+02  0.41173700026E+02  0.51100000000E-03 0.  1.
         12    1    3    3    0    0  0.19427148353E+01 -0.56505345860E+01 -0.45744876753E+00  0.59926572915E+01  0.00000000000E+00 0. -1.
</event>
<event>
 7    1  0.2755991E-011  0.5052888E+02  0.7816164E-02  0.1300439E+00
        -11   -1    0    0    0    0  0.00000000000E+00  0.00000000000E+00  0.45593999997E+02  0.45594000000E+02  0.51100000000E-03 0.  1.
         11   -1    0    0    0    0 -0.00000000000E+00 -0.00000000000E+00 -0.45593999997E+02  0.45594000000E+02  0.51100000000E-03 0. -1.
    9900012    2    1    2    0    0 -0.39772699693E+02 -0.39534066292E+01 -0.74610098807E+01  0.50528883762E+02  0.30000072682E+02 0.  0.
         12    1    1    2    0    0  0.39772699693E+02  0.39534066292E+01  0.74610098807E+01  0.40659116238E+02  0.00000000000E+00 0. -1.
         11    1    3    3    0    0 -0.56059108271E+01  0.44473991567E+01  0.45258660648E+01  0.84669391966E+01  0.51100000000E-03 0. -1.
        -11    1    3    3    0    0 -0.27356329302E+02  0.11580797150E+01 -0.35558548704E+01  0.27610758874E+02  0.51100000000E-03 0.  1.
         12    1    3    3    0    0 -0.68104595640E+01 -0.95588855009E+01 -0.84310210752E+01  0.14451185691E+02  0.00000000000E+00 0. -1.
</event>
<event>
 7    1  0.2755991E-011  0.5052886E+02  0.7816164E-02  0.1300439E+00
        -11   -1    0    0    0    0  0.00000000000E+00  0.00000000000E+00  0.45593999997E+02  0.45594000000E+02  0.51100000000E-03 0.  1.
         11   -1    0    0    0    0 -0.00000000000E+00 -0.00000000000E+00 -0.45593999997E+02  0.45594000000E+02  0.51100000000E-03 0. -1.
    9900012    2    1    2    0    0  0.34043089537E+02  0.17321666578E+02  0.13935339784E+02  0.50528858676E+02  0.29999996433E+02 0.  0.
         12    1    1    2    0    0 -0.34043089537E+02 -0.17321666578E+02 -0.13935339784E+02  0.40659141324E+02  0.00000000000E+00 0. -1.
         11    1    3    3    0    0  0.20854469555E+01 -0.45911595933E+01  0.16359819620E+00  0.50452552013E+01  0.51100000000E-03 0. -1.
        -11    1    3    3    0    0  0.10067754099E+02  0.17553013899E+02  0.22346689665E+01  0.20358332820E+02  0.51100000000E-03 0.  1.
         12    1    3    3    0    0  0.21889888483E+02  0.43598122720E+01  0.11537072622E+02  0.25125270655E+02  0.00000000000E+00 0. -1.
</event>
<event>
 7    1  0.2755991E-011  0.5052885E+02  0.7816164E-02  0.1300439E+00
        -11   -1    0    0    0    0  0.00000000000E+00  0.00000000000E+00  0.45593999997E+02  0.45594000000E+02  0.51100000000E-03 0.  1.
         11   -1    0    0    0    0 -0.00000000000E+00 -0.00000000000E+00 -0.45593999997E+02  0.45594000000E+02  0.51100000000E-03 0. -1.
    9900012    2    1    2    0    0 -0.67720234327E+01  0.35694901148E+02  0.18253217392E+02  0.50528853249E+02  0.29999979936E+02 0.  0.
         12    1    1    2    0    0  0.67720234327E+01 -0.35694901148E+02 -0.18253217392E+02  0.40659146751E+02  0.00000000000E+00 0. -1.
         11    1    3    3    0    0 -0.67476056546E+01  0.97812498685E+01 -0.12278351982E+01  0.11946154636E+02  0.51100000000E-03 0. -1.
        -11    1    3    3    0    0 -0.36570552892E+01  0.27654288815E+02  0.12598669883E+02  0.30608172542E+02  0.51100000000E-03 0.  1.
         12    1    3    3    0    0  0.36326375112E+01 -0.17406375360E+01  0.68823827078E+01  0.79745260709E+01  0.00000000000E+00 0. -1.
</event>
<event>
 7    1  0.2755991E-011  0.5052884E+02  0.7816164E-02  0.1300439E+00
        -11   -1    0    0    0    0  0.00000000000E+00  0.00000000000E+00  0.45593999997E+02  0.45594000000E+02  0.51100000000E-03 0.  1.
         11   -1    0    0    0    0 -0.00000000000E+00 -0.00000000000E+00 -0.45593999997E+02  0.45594000000E+02  0.51100000000E-03 0. -1.
    9900012    2    1    2    0    0 -0.12870159083E+02 -0.32059566155E+01  0.38434988329E+02  0.50528837681E+02  0.29999932614E+02 0.  0.
         12    1    1    2    0    0  0.12870159083E+02  0.32059566155E+01 -0.38434988329E+02  0.40659162319E+02  0.00000000000E+00 0. -1.
         11    1    3    3    0    0  0.57748342264E+01  0.29974836929E+01  0.54965428432E+01  0.85173706224E+01  0.51100000000E-03 0.  1.
        -11    1    3    3    0    0 -0.30554459275E+01  0.15072024408E+01 -0.12697133119E+01  0.36358741960E+01  0.51100000000E-03 0. -1.
         12    1    3    3    0    0 -0.15589547382E+02 -0.77106427493E+01  0.34208158798E+02  0.38375592862E+02  0.00000000000E+00 0. -1.
</event>
<event>
 7    1  0.2755991E-011  0.5052886E+02  0.7816164E-02  0.1300439E+00
        -11   -1    0    0    0    0  0.00000000000E+00  0.00000000000E+00  0.45593999997E+02  0.45594000000E+02  0.51100000000E-03 0.  1.
         11   -1    0    0    0    0 -0.00000000000E+00 -0.00000000000E+00 -0.45593999997E+02  0.45594000000E+02  0.51100000000E-03 0. -1.
    9900012    2    1    2    0    0  0.21252120064E+02  0.34633129361E+02  0.14351816585E+01  0.50528855851E+02  0.29999987846E+02 0.  0.
         12    1    1    2    0    0 -0.21252120064E+02 -0.34633129361E+02 -0.14351816585E+01  0.40659144149E+02  0.00000000000E+00 0. -1.
         11    1    3    3    0    0 -0.23960627008E+01  0.22824429181E+01 -0.34290988057E+00  0.33268978926E+01  0.51100000000E-03 0. -1.
        -11    1    3    3    0    0 -0.41216656253E+01  0.11023633534E+02 -0.21643025941E+01  0.11966320646E+02  0.51100000000E-03 0.  1.
         12    1    3    3    0    0  0.27769848390E+02  0.21327052909E+02  0.39423941332E+01  0.35235637313E+02  0.00000000000E+00 0. -1.
</event>
<event>
 7    1  0.2755991E-011  0.5052883E+02  0.7816164E-02  0.1300439E+00
        -11   -1    0    0    0    0  0.00000000000E+00  0.00000000000E+00  0.45593999997E+02  0.45594000000E+02  0.51100000000E-03 0.  1.
         11   -1    0    0    0    0 -0.00000000000E+00 -0.00000000000E+00 -0.45593999997E+02  0.45594000000E+02  0.51100000000E-03 0. -1.
    9900012    2    1    2    0    0 -0.32024094133E+02 -0.10232181043E+02  0.22867612097E+02  0.50528833543E+02  0.29999920038E+02 0.  0.
         12    1    1    2    0    0  0.32024094133E+02  0.10232181043E+02 -0.22867612097E+02  0.40659166457E+02  0.00000000000E+00 0. -1.
         11    1    3    3    0    0 -0.43932059431E+00 -0.19061984516E+01 -0.13701096012E+01  0.23882620672E+01  0.51100000000E-03 0. -1.
        -11    1    3    3    0    0 -0.22827453432E+02 -0.14783187778E+02  0.25381329839E+02  0.37200096447E+02  0.51100000000E-03 0.  1.
         12    1    3    3    0    0 -0.87573201069E+01  0.64572051863E+01 -0.11436081400E+01  0.10940475029E+02  0.00000000000E+00 0. -1.
</event>
<event>
 7    1  0.2755991E-011  0.5052884E+02  0.7816164E-02  0.1300439E+00
        -11   -1    0    0    0    0  0.00000000000E+00  0.00000000000E+00  0.45593999997E+02  0.45594000000E+02  0.51100000000E-03 0.  1.
         11   -1    0    0    0    0 -0.00000000000E+00 -0.00000000000E+00 -0.45593999997E+02  0.45594000000E+02  0.51100000000E-03 0. -1.
    9900012    2    1    2    0    0 -0.40229669355E+02  0.55851232067E+01  0.18833551110E+01  0.50528844523E+02  0.29999953411E+02 0.  0.
         12    1    1    2    0    0  0.40229669355E+02 -0.55851232067E+01 -0.18833551110E+01  0.40659155477E+02  0.00000000000E+00 0. -1.
         11    1    3    3    0    0 -0.12414942365E+02 -0.39602085530E+01 -0.39537685041E+01  0.13617868092E+02  0.51100000000E-03 0. -1.
        -11    1    3    3    0    0 -0.13511269202E+02 -0.62642915223E+01  0.44621005460E+01  0.15546899539E+02  0.51100000000E-03 0.  1.
        -12    1    3    3    0    0 -0.14303457788E+02  0.15809623282E+02  0.13750230690E+01  0.21364076892E+02  0.00000000000E+00 0.  1.
</event>
<event>
 7    1  0.2755991E-011  0.5052885E+02  0.7816164E-02  0.1300439E+00
        -11   -1    0    0    0    0  0.00000000000E+00  0.00000000000E+00  0.45593999997E+02  0.45594000000E+02  0.51100000000E-03 0. -1.
         11   -1    0    0    0    0 -0.00000000000E+00 -0.00000000000E+00 -0.45593999997E+02  0.45594000000E+02  0.51100000000E-03 0.  1.
    9900012    2    1    2    0    0  0.20417923882E+01 -0.39283806244E+02 -0.10284936716E+02  0.50528852537E+02  0.29999977771E+02 0.  0.
         12    1    1    2    0    0 -0.20417923882E+01  0.39283806244E+02  0.10284936716E+02  0.40659147463E+02  0.00000000000E+00 0. -1.
         11    1    3    3    0    0 -0.35860887026E+01  0.77558528155E+00 -0.39065513634E+01  0.53593571003E+01  0.51100000000E-03 0. -1.
        -11    1    3    3    0    0  0.89401888363E+01 -0.27166073459E+02  0.31882703689E+01  0.28776511112E+02  0.51100000000E-03 0.  1.
         12    1    3    3    0    0 -0.33123077455E+01 -0.12893318067E+02 -0.95666557210E+01  0.16392984324E+02  0.00000000000E+00 0. -1.
</event>
<event>
 7    1  0.2755991E-011  0.5052887E+02  0.7816164E-02  0.1300439E+00
        -11   -1    0    0    0    0  0.00000000000E+00  0.00000000000E+00  0.45593999997E+02  0.45594000000E+02  0.51100000000E-03 0.  1.
         11   -1    0    0    0    0 -0.00000000000E+00 -0.00000000000E+00 -0.45593999997E+02  0.45594000000E+02  0.51100000000E-03 0. -1.
    9900012    2    1    2    0    0 -0.34683961519E+02  0.12348427767E+01  0.21181666240E+02  0.50528868086E+02  0.30000025034E+02 0.  0.
         12    1    1    2    0    0  0.34683961519E+02 -0.12348427767E+01 -0.21181666240E+02  0.40659131914E+02  0.00000000000E+00 0. -1.
         11    1    3    3    0    0 -0.75937276518E+01  0.68441010245E+01  0.38121825469E+01  0.10910506611E+02  0.51100000000E-03 0. -1.
        -11    1    3    3    0    0 -0.63773857802E+01 -0.99593403143E+00 -0.54566354803E+01  0.84520887957E+01  0.51100000000E-03 0.  1.
        -12    1    3    3    0    0 -0.20712848087E+02 -0.46133242163E+01  0.22826119173E+02  0.31166272679E+02  0.00000000000E+00 0.  1.
</event>
<event>
 7    1  0.2755991E-011  0.5052886E+02  0.7816164E-02  0.1300439E+00
        -11   -1    0    0    0    0  0.00000000000E+00  0.00000000000E+00  0.45593999997E+02  0.45594000000E+02  0.51100000000E-03 0.  1.
         11   -1    0    0    0    0 -0.00000000000E+00 -0.00000000000E+00 -0.45593999997E+02  0.45594000000E+02  0.51100000000E-03 0. -1.
    9900012    2    1    2    0    0 -0.20492249859E+02 -0.19888074110E+02  0.28943004286E+02  0.50528864579E+02  0.30000014373E+02 0.  0.
         12    1    1    2    0    0  0.20492249859E+02  0.19888074110E+02 -0.28943004286E+02  0.40659135421E+02  0.00000000000E+00 0. -1.
         11    1    3    3    0    0 -0.94633386509E+01 -0.66191719064E+01  0.11966945560E+02  0.16630574297E+02  0.51100000000E-03 0.  1.
        -11    1    3    3    0    0 -0.16612535902E+02 -0.27022181796E+01  0.66255353265E+01  0.18088008481E+02  0.51100000000E-03 0. -1.
         12    1    3    3    0    0  0.55836246932E+01 -0.10566684024E+02  0.10350523400E+02  0.15810281801E+02  0.00000000000E+00 0. -1.
</event>
<event>
 7    1  0.2755991E-011  0.5052885E+02  0.7816164E-02  0.1300439E+00
        -11   -1    0    0    0    0  0.00000000000E+00  0.00000000000E+00  0.45593999997E+02  0.45594000000E+02  0.51100000000E-03 0.  1.
         11   -1    0    0    0    0 -0.00000000000E+00 -0.00000000000E+00 -0.45593999997E+02  0.45594000000E+02  0.51100000000E-03 0. -1.
    9900012    2    1    2    0    0 -0.25680474728E+02  0.18877423691E+02  0.25245240610E+02  0.50528854892E+02  0.29999984931E+02 0.  0.
         12    1    1    2    0    0  0.25680474728E+02 -0.18877423691E+02 -0.25245240610E+02  0.40659145108E+02  0.00000000000E+00 0. -1.
         11    1    3    3    0    0  0.47851003273E+01  0.67583776767E+00  0.49333757172E+01  0.69059494683E+01  0.51100000000E-03 0. -1.
        -11    1    3    3    0    0 -0.51105710209E+01  0.31295105900E+01  0.11282658581E+02  0.12775373091E+02  0.51100000000E-03 0.  1.
         12    1    3    3    0    0 -0.25355004034E+02  0.15072075333E+02  0.90292063113E+01  0.30847532333E+02  0.00000000000E+00 0. -1.
</event>
<event>
 7    1  0.2755991E-011  0.5052887E+02  0.7816164E-02  0.1300439E+00
        -11   -1    0    0    0    0  0.00000000000E+00  0.00000000000E+00  0.45593999997E+02  0.45594000000E+02  0.51100000000E-03 0.  1.
         11   -1    0    0    0    0 -0.00000000000E+00 -0.00000000000E+00 -0.45593999997E+02  0.45594000000E+02  0.51100000000E-03 0. -1.
    9900012    2    1    2    0    0  0.22899904928E+02 -0.20504892596E+02  0.26614068750E+02  0.50528869149E+02  0.30000028267E+02 0.  0.
         12    1    1    2    0    0 -0.22899904928E+02  0.20504892596E+02 -0.26614068750E+02  0.40659130851E+02  0.00000000000E+00 0. -1.
         11    1    3    3    0    0 -0.99493042943E+00 -0.32257476756E+01  0.94986794726E+01  0.10080686812E+02  0.51100000000E-03 0. -1.
        -11    1    3    3    0    0  0.56289477643E+01 -0.14594992258E+02  0.56385947030E+00  0.15653012161E+02  0.51100000000E-03 0.  1.
        -12    1    3    3    0    0  0.18265887593E+02 -0.26841526617E+01  0.16551529808E+02  0.24795170176E+02  0.00000000000E+00 0.  1.
</event>
<event>
 7    1  0.2755991E-011  0.5052886E+02  0.7816164E-02  0.1300439E+00
        -11   -1    0    0    0    0  0.00000000000E+00  0.00000000000E+00  0.45593999997E+02  0.45594000000E+02  0.51100000000E-03 0. -1.
         11   -1    0    0    0    0 -0.00000000000E+00 -0.00000000000E+00 -0.45593999997E+02  0.45594000000E+02  0.51100000000E-03 0.  1.
    9900012    2    1    2    0    0  0.87808643832E+01 -0.33959606804E+02 -0.20562276736E+02  0.50528859599E+02  0.29999999237E+02 0.  0.
         12    1    1    2    0    0 -0.87808643832E+01  0.33959606804E+02  0.20562276736E+02  0.40659140401E+02  0.00000000000E+00 0. -1.
         11    1    3    3    0    0  0.53685288731E+01 -0.10844892747E+02 -0.11980424532E+02  0.17028310931E+02  0.51100000000E-03 0. -1.
        -11    1    3    3    0    0  0.41122035583E+01 -0.13950968007E+02 -0.16049033832E+02  0.21658975360E+02  0.51100000000E-03 0.  1.
         12    1    3    3    0    0 -0.69986804818E+00 -0.91637460502E+01  0.74671816276E+01  0.11841573308E+02  0.00000000000E+00 0. -1.
</event>
<event>
 7    1  0.2755991E-011  0.5052886E+02  0.7816164E-02  0.1300439E+00
        -11   -1    0    0    0    0  0.00000000000E+00  0.00000000000E+00  0.45593999997E+02  0.45594000000E+02  0.51100000000E-03 0.  1.
         11   -1    0    0    0    0 -0.00000000000E+00 -0.00000000000E+00 -0.45593999997E+02  0.45594000000E+02  0.51100000000E-03 0. -1.
    9900012    2    1    2    0    0 -0.16844942488E+02  0.36854970466E+02 -0.33354233563E+01  0.50528856078E+02  0.29999988536E+02 0.  0.
         12    1    1    2    0    0  0.16844942488E+02 -0.36854970466E+02  0.33354233563E+01  0.40659143922E+02  0.00000000000E+00 0. -1.
         11    1    3    3    0    0 -0.86027652516E+00  0.25013908865E+02 -0.66233166353E+01  0.25890230511E+02  0.51100000000E-03 0.  1.
        -11    1    3    3    0    0 -0.63289993963E+01  0.10363852102E+02 -0.36236826887E+01  0.12672676917E+02  0.51100000000E-03 0. -1.
         12    1    3    3    0    0 -0.96556665663E+01  0.14772094990E+01  0.69115759677E+01  0.11965948650E+02  0.00000000000E+00 0. -1.
</event>
<event>
 7    1  0.2755991E-011  0.5052886E+02  0.7816164E-02  0.1300439E+00
        -11   -1    0    0    0    0  0.00000000000E+00  0.00000000000E+00  0.45593999997E+02  0.45594000000E+02  0.51100000000E-03 0.  1.
         11   -1    0    0    0    0 -0.00000000000E+00 -0.00000000000E+00 -0.45593999997E+02  0.45594000000E+02  0.51100000000E-03 0. -1.
    9900012    2    1    2    0    0  0.33767728344E+02 -0.18653331726E+02  0.12843654157E+02  0.50528859403E+02  0.29999998640E+02 0.  0.
         12    1    1    2    0    0 -0.33767728344E+02  0.18653331726E+02 -0.12843654157E+02  0.40659140597E+02  0.00000000000E+00 0. -1.
         11    1    3    3    0    0  0.32953039393E+00 -0.23320435106E+01 -0.49355873332E+01  0.54687329246E+01  0.51100000000E-03 0. -1.
        -11    1    3    3    0    0  0.26239776401E+02 -0.73147990870E+01  0.47315075056E+01  0.27648134020E+02  0.51100000000E-03 0.  1.
         12    1    3    3    0    0  0.71984215494E+01 -0.90064891282E+01  0.13047733985E+02  0.17411992458E+02  0.00000000000E+00 0. -1.
</event>
<event>
 7    1  0.2755991E-011  0.5052886E+02  0.7816164E-02  0.1300439E+00
        -11   -1    0    0    0    0  0.00000000000E+00  0.00000000000E+00  0.45593999997E+02  0.45594000000E+02  0.51100000000E-03 0. -1.
         11   -1    0    0    0    0 -0.00000000000E+00 -0.00000000000E+00 -0.45593999997E+02  0.45594000000E+02  0.51100000000E-03 0.  1.
    9900012    2    1    2    0    0 -0.10816089530E+02  0.10814726262E+02 -0.37672526706E+02  0.50528863693E+02  0.30000011682E+02 0.  0.
         12    1    1    2    0    0  0.10816089530E+02 -0.10814726262E+02  0.37672526706E+02  0.40659136307E+02  0.00000000000E+00 0. -1.
         11    1    3    3    0    0  0.63248063999E+01  0.32336601304E+01 -0.44188708102E+01  0.83657727278E+01  0.51100000000E-03 0. -1.
        -11    1    3    3    0    0 -0.51398214005E+01  0.11994934943E+02 -0.15092590067E+02  0.19952005000E+02  0.51100000000E-03 0.  1.
         12    1    3    3    0    0 -0.12001074529E+02 -0.44138688118E+01 -0.18161065829E+02  0.22211085966E+02  0.00000000000E+00 0. -1.
</event>
<event>
 7    1  0.2755991E-011  0.5052886E+02  0.7816164E-02  0.1300439E+00
        -11   -1    0    0    0    0  0.00000000000E+00  0.00000000000E+00  0.45593999997E+02  0.45594000000E+02  0.51100000000E-03 0.  1.
         11   -1    0    0    0    0 -0.00000000000E+00 -0.00000000000E+00 -0.45593999997E+02  0.45594000000E+02  0.51100000000E-03 0. -1.
    9900012    2    1    2    0    0  0.18848803550E+02  0.30844599234E+02  0.18614477449E+02  0.50528862431E+02  0.30000007844E+02 0.  0.
         12    1    1    2    0    0 -0.18848803550E+02 -0.30844599234E+02 -0.18614477449E+02  0.40659137569E+02  0.00000000000E+00 0. -1.
         11    1    3    3    0    0  0.29050297756E+01  0.20792290049E+02  0.96281423393E+01  0.23096745412E+02  0.51100000000E-03 0. -1.
        -11    1    3    3    0    0 -0.21807963779E+01 -0.14608950379E+01  0.49227069339E+01  0.55788108923E+01  0.51100000000E-03 0.  1.
         12    1    3    3    0    0  0.18124570152E+02  0.11513204223E+02  0.40636281761E+01  0.21853306126E+02  0.00000000000E+00 0. -1.
</event>
<event>
 7    1  0.2755991E-011  0.5052886E+02  0.7816164E-02  0.1300439E+00
        -11   -1    0    0    0    0  0.00000000000E+00  0.00000000000E+00  0.45593999997E+02  0.45594000000E+02  0.51100000000E-03 0.  1.
         11   -1    0    0    0    0 -0.00000000000E+00 -0.00000000000E+00 -0.45593999997E+02  0.45594000000E+02  0.51100000000E-03 0. -1.
    9900012    2    1    2    0    0 -0.12231550407E+02 -0.30266622471E+02  0.24238124118E+02  0.50528856847E+02  0.29999990873E+02 0.  0.
         12    1    1    2    0    0  0.12231550407E+02  0.30266622471E+02 -0.24238124118E+02  0.40659143153E+02  0.00000000000E+00 0. -1.
         11    1    3    3    0    0  0.44978642931E+01 -0.14796764595E+01  0.90525533893E+01  0.10216112213E+02  0.51100000000E-03 0. -1.
        -11    1    3    3    0    0  0.30457919831E+01 -0.67683781423E+01  0.98577499460E+00  0.74872921729E+01  0.51100000000E-03 0.  1.
        -12    1    3    3    0    0 -0.19775206684E+02 -0.22018567869E+02  0.14199795734E+02  0.32825452461E+02  0.00000000000E+00 0.  1.
</event>
<event>
 7    1  0.2755991E-011  0.5052886E+02  0.7816164E-02  0.1300439E+00
        -11   -1    0    0    0    0  0.00000000000E+00  0.00000000000E+00  0.45593999997E+02  0.45594000000E+02  0.51100000000E-03 0. -1.
         11   -1    0    0    0    0 -0.00000000000E+00 -0.00000000000E+00 -0.45593999997E+02  0.45594000000E+02  0.51100000000E-03 0.  1.
    9900012    2    1    2    0    0  0.20014960039E+02 -0.13656637717E+02 -0.32650624226E+02  0.50528860296E+02  0.30000001357E+02 0.  0.
         12    1    1    2    0    0 -0.20014960039E+02  0.13656637717E+02  0.32650624226E+02  0.40659139704E+02  0.00000000000E+00 0. -1.
         11    1    3    3    0    0  0.57170952624E+01 -0.57837513464E+01 -0.24286470386E+02  0.25611903521E+02  0.51100000000E-03 0. -1.
        -11    1    3    3    0    0  0.35480652576E+01 -0.11833427327E+01 -0.11314329358E+02  0.11916506039E+02  0.51100000000E-03 0.  1.
         12    1    3    3    0    0  0.10749799518E+02 -0.66895436375E+01  0.29501755180E+01  0.13000450737E+02  0.00000000000E+00 0. -1.
</event>
<event>
 7    1  0.2755991E-011  0.5052885E+02  0.7816164E-02  0.1300439E+00
        -11   -1    0    0    0    0  0.00000000000E+00  0.00000000000E+00  0.45593999997E+02  0.45594000000E+02  0.51100000000E-03 0. -1.
         11   -1    0    0    0    0 -0.00000000000E+00 -0.00000000000E+00 -0.45593999997E+02  0.45594000000E+02  0.51100000000E-03 0.  1.
    9900012    2    1    2    0    0  0.20716238481E+02 -0.25271456785E+02 -0.24194154071E+02  0.50528853968E+02  0.29999982121E+02 0.  0.
         12    1    1    2    0    0 -0.20716238481E+02  0.25271456785E+02  0.24194154071E+02  0.40659146032E+02  0.00000000000E+00 0. -1.
         11    1    3    3    0    0 -0.19366020179E+01  0.52261651525E+00 -0.51024243448E+01  0.54825441041E+01  0.51100000000E-03 0. -1.
        -11    1    3    3    0    0 -0.13712188619E+01 -0.88010017704E+01 -0.11701683199E+02  0.14706028127E+02  0.51100000000E-03 0.  1.
        -12    1    3    3    0    0  0.24024059361E+02 -0.16993071530E+02 -0.73900465272E+01  0.30340281737E+02  0.00000000000E+00 0.  1.
</event>
<event>
 7    1  0.2755991E-011  0.5052886E+02  0.7816164E-02  0.1300439E+00
        -11   -1    0    0    0    0  0.00000000000E+00  0.00000000000E+00  0.45593999997E+02  0.45594000000E+02  0.51100000000E-03 0.  1.
         11   -1    0    0    0    0 -0.00000000000E+00 -0.00000000000E+00 -0.45593999997E+02  0.45594000000E+02  0.51100000000E-03 0. -1.
    9900012    2    1    2    0    0 -0.15711265838E+02 -0.37483182055E+02  0.11546554619E+01  0.50528855389E+02  0.29999986441E+02 0.  0.
         12    1    1    2    0    0  0.15711265838E+02  0.37483182055E+02 -0.11546554619E+01  0.40659144611E+02  0.00000000000E+00 0. -1.
         11    1    3    3    0    0  0.51326383833E+00 -0.22355175456E+02 -0.67159117956E+01  0.23347821760E+02  0.51100000000E-03 0. -1.
        -11    1    3    3    0    0 -0.12072861682E+02 -0.16998697243E+02  0.40555097240E+01  0.21240453303E+02  0.51100000000E-03 0.  1.
        -12    1    3    3    0    0 -0.41516679946E+01  0.18706906437E+01  0.38150575335E+01  0.59405803257E+01  0.00000000000E+00 0.  1.
</event>
<event>
 7    1  0.2755991E-011  0.5052886E+02  0.7816164E-02  0.1300439E+00
        -11   -1    0    0    0    0  0.00000000000E+00  0.00000000000E+00  0.45593999997E+02  0.45594000000E+02  0.51100000000E-03 0.  1.
         11   -1    0    0    0    0 -0.00000000000E+00 -0.00000000000E+00 -0.45593999997E+02  0.45594000000E+02  0.51100000000E-03 0. -1.
    9900012    2    1    2    0    0 -0.21463553282E+02  0.34400314435E+02  0.30166043548E+01  0.50528860135E+02  0.30000000868E+02 0.  0.
         12    1    1    2    0    0  0.21463553282E+02 -0.34400314435E+02 -0.30166043548E+01  0.40659139865E+02  0.00000000000E+00 0. -1.
         11    1    3    3    0    0  0.26135480113E+01  0.33921147802E+01 -0.18412899320E+01  0.46612685789E+01  0.51100000000E-03 0. -1.
        -11    1    3    3    0    0 -0.11323782561E+02  0.18703405063E+01  0.78735787995E+01  0.13918314139E+02  0.51100000000E-03 0.  1.
        -12    1    3    3    0    0 -0.12753318732E+02  0.29137859148E+02 -0.30156845126E+01  0.31949277417E+02  0.00000000000E+00 0.  1.
</event>
<event>
 7    1  0.2755991E-011  0.5052886E+02  0.7816164E-02  0.1300439E+00
        -11   -1    0    0    0    0  0.00000000000E+00  0.00000000000E+00  0.45593999997E+02  0.45594000000E+02  0.51100000000E-03 0.  1.
         11   -1    0    0    0    0 -0.00000000000E+00 -0.00000000000E+00 -0.45593999997E+02  0.45594000000E+02  0.51100000000E-03 0. -1.
    9900012    2    1    2    0    0 -0.16248677313E+01 -0.28002354228E+02  0.29434569038E+02  0.50528857216E+02  0.29999991994E+02 0.  0.
         12    1    1    2    0    0  0.16248677313E+01  0.28002354228E+02 -0.29434569038E+02  0.40659142784E+02  0.00000000000E+00 0. -1.
         11    1    3    3    0    0  0.13078699400E+02 -0.87154481434E+01  0.98599161394E+01  0.18553419115E+02  0.51100000000E-03 0. -1.
        -11    1    3    3    0    0  0.43698330222E+00 -0.11547165587E+00 -0.24809713310E+00  0.51559728306E+00  0.51100000000E-03 0.  1.
        -12    1    3    3    0    0 -0.15140550433E+02 -0.19171434429E+02  0.19822750032E+02  0.31459840818E+02  0.00000000000E+00 0.  1.
</event>
<event>
 7    1  0.2755991E-011  0.5052886E+02  0.7816164E-02  0.1300439E+00
        -11   -1    0    0    0    0  0.00000000000E+00  0.00000000000E+00  0.45593999997E+02  0.45594000000E+02  0.51100000000E-03 0.  1.
         11   -1    0    0    0    0 -0.00000000000E+00 -0.00000000000E+00 -0.45593999997E+02  0.45594000000E+02  0.51100000000E-03 0. -1.
    9900012    2    1    2    0    0  0.10164297392E+02  0.12021174124E+02  0.37487917103E+02  0.50528862066E+02  0.30000006737E+02 0.  0.
         12    1    1    2    0    0 -0.10164297392E+02 -0.12021174124E+02 -0.37487917103E+02  0.40659137934E+02  0.00000000000E+00 0. -1.
         11    1    3    3    0    0  0.71174052149E+01  0.52359284241E+01  0.26919469074E+02  0.28332494047E+02  0.51100000000E-03 0.  1.
        -11    1    3    3    0    0 -0.59860197211E+00 -0.22695880683E+01  0.12091427898E+02  0.12317141843E+02  0.51100000000E-03 0. -1.
         12    1    3    3    0    0  0.36454941494E+01  0.90548337682E+01 -0.15229798685E+01  0.98792261763E+01  0.00000000000E+00 0. -1.
</event>
<event>
 7    1  0.2755991E-011  0.5052887E+02  0.7816164E-02  0.1300439E+00
        -11   -1    0    0    0    0  0.00000000000E+00  0.00000000000E+00  0.45593999997E+02  0.45594000000E+02  0.51100000000E-03 0.  1.
         11   -1    0    0    0    0 -0.00000000000E+00 -0.00000000000E+00 -0.45593999997E+02  0.45594000000E+02  0.51100000000E-03 0. -1.
    9900012    2    1    2    0    0 -0.10372340440E+02 -0.74628329436E+01  0.38599033826E+02  0.50528871455E+02  0.30000035275E+02 0.  0.
         12    1    1    2    0    0  0.10372340440E+02  0.74628329436E+01 -0.38599033826E+02  0.40659128545E+02  0.00000000000E+00 0. -1.
         11    1    3    3    0    0  0.79626351660E+00 -0.29274540135E+01 -0.22744153421E+01  0.37916998825E+01  0.51100000000E-03 0. -1.
        -11    1    3    3    0    0  0.43176431949E+01  0.28724604222E+01  0.64986694722E+01  0.83141912899E+01  0.51100000000E-03 0.  1.
         12    1    3    3    0    0 -0.15486247151E+02 -0.74078393523E+01  0.34374779696E+02  0.38422980283E+02  0.00000000000E+00 0. -1.
</event>
<event>
 7    1  0.2755991E-011  0.5052886E+02  0.7816164E-02  0.1300439E+00
        -11   -1    0    0    0    0  0.00000000000E+00  0.00000000000E+00  0.45593999997E+02  0.45594000000E+02  0.51100000000E-03 0. -1.
         11   -1    0    0    0    0 -0.00000000000E+00 -0.00000000000E+00 -0.45593999997E+02  0.45594000000E+02  0.51100000000E-03 0.  1.
    9900012    2    1    2    0    0  0.29430365483E+02 -0.24229794013E+02 -0.14139875051E+02  0.50528863305E+02  0.30000010502E+02 0.  0.
         12    1    1    2    0    0 -0.29430365483E+02  0.24229794013E+02  0.14139875051E+02  0.40659136695E+02  0.00000000000E+00 0. -1.
         11    1    3    3    0    0  0.32135313750E+01 -0.93061950294E+01 -0.14459646229E+02  0.17493239241E+02  0.51100000000E-03 0. -1.
        -11    1    3    3    0    0  0.48587702675E+01  0.11138975532E+01 -0.34495649172E+01  0.60620058273E+01  0.51100000000E-03 0.  1.
         12    1    3    3    0    0  0.21358063840E+02 -0.16037496536E+02  0.37693360953E+01  0.26973618236E+02  0.00000000000E+00 0. -1.
</event>
<event>
 7    1  0.2755991E-011  0.5052886E+02  0.7816164E-02  0.1300439E+00
        -11   -1    0    0    0    0  0.00000000000E+00  0.00000000000E+00  0.45593999997E+02  0.45594000000E+02  0.51100000000E-03 0.  1.
         11   -1    0    0    0    0 -0.00000000000E+00 -0.00000000000E+00 -0.45593999997E+02  0.45594000000E+02  0.51100000000E-03 0. -1.
    9900012    2    1    2    0    0 -0.97907781251E+01 -0.36444047873E+02  0.15137293113E+02  0.50528860751E+02  0.30000002738E+02 0.  0.
         12    1    1    2    0    0  0.97907781251E+01  0.36444047873E+02 -0.15137293113E+02  0.40659139249E+02  0.00000000000E+00 0. -1.
         11    1    3    3    0    0  0.96585899428E+00 -0.21341791666E+02  0.89599129447E+01  0.23166462728E+02  0.51100000000E-03 0. -1.
        -11    1    3    3    0    0 -0.40244049814E+01 -0.17593258190E+02  0.83171949346E+01  0.19871947591E+02  0.51100000000E-03 0.  1.
        -12    1    3    3    0    0 -0.67322321380E+01  0.24910019829E+01 -0.21398147657E+01  0.74904504317E+01  0.00000000000E+00 0.  1.
</event>
<event>
 7    1  0.2755991E-011  0.5052887E+02  0.7816164E-02  0.1300439E+00
        -11   -1    0    0    0    0  0.00000000000E+00  0.00000000000E+00  0.45593999997E+02  0.45594000000E+02  0.51100000000E-03 0.  1.
         11   -1    0    0    0    0 -0.00000000000E+00 -0.00000000000E+00 -0.45593999997E+02  0.45594000000E+02  0.51100000000E-03 0. -1.
    9900012    2    1    2    0    0  0.16268891760E+02  0.29373395213E+02  0.22927973060E+02  0.50528866536E+02  0.30000020322E+02 0.  0.
         12    1    1    2    0    0 -0.16268891760E+02 -0.29373395213E+02 -0.22927973060E+02  0.40659133464E+02  0.00000000000E+00 0. -1.
         11    1    3    3    0    0  0.67049143484E+01  0.81193159755E+01  0.69664694652E+01  0.12625801575E+02  0.51100000000E-03 0. -1.
        -11    1    3    3    0    0  0.12297762551E+02  0.25822306312E+02  0.15570913613E+02  0.32565009105E+02  0.51100000000E-03 0.  1.
         12    1    3    3    0    0 -0.27337851388E+01 -0.45682270744E+01  0.39058998118E+00  0.53380558560E+01  0.00000000000E+00 0. -1.
</event>
<event>
 7    1  0.2755991E-011  0.5052886E+02  0.7816164E-02  0.1300439E+00
        -11   -1    0    0    0    0  0.00000000000E+00  0.00000000000E+00  0.45593999997E+02  0.45594000000E+02  0.51100000000E-03 0.  1.
         11   -1    0    0    0    0 -0.00000000000E+00 -0.00000000000E+00 -0.45593999997E+02  0.45594000000E+02  0.51100000000E-03 0. -1.
    9900012    2    1    2    0    0 -0.11012261014E+02  0.38936532192E+02  0.39802049218E+01  0.50528862490E+02  0.30000008026E+02 0.  0.
         12    1    1    2    0    0  0.11012261014E+02 -0.38936532192E+02 -0.39802049218E+01  0.40659137510E+02  0.00000000000E+00 0. -1.
         11    1    3    3    0    0 -0.11162501753E+02  0.20892011098E+02  0.24607717541E+01  0.23814553764E+02  0.51100000000E-03 0.  1.
        -11    1    3    3    0    0 -0.84339925512E+00  0.17761375897E+02 -0.62716554263E+01  0.18855011485E+02  0.51100000000E-03 0. -1.
        -12    1    3    3    0    0  0.99363999368E+00  0.28314519675E+00  0.77910885940E+01  0.78592972408E+01  0.00000000000E+00 0.  1.
</event>
<event>
 7    1  0.2755991E-011  0.5052886E+02  0.7816164E-02  0.1300439E+00
        -11   -1    0    0    0    0  0.00000000000E+00  0.00000000000E+00  0.45593999997E+02  0.45594000000E+02  0.51100000000E-03 0. -1.
         11   -1    0    0    0    0 -0.00000000000E+00 -0.00000000000E+00 -0.45593999997E+02  0.45594000000E+02  0.51100000000E-03 0.  1.
    9900012    2    1    2    0    0 -0.35844059684E+02 -0.24031352643E+01 -0.19041900887E+02  0.50528860030E+02  0.30000000547E+02 0.  0.
         12    1    1    2    0    0  0.35844059684E+02  0.24031352643E+01  0.19041900887E+02  0.40659139970E+02  0.00000000000E+00 0. -1.
         11    1    3    3    0    0 -0.19466034241E+02 -0.22829120750E+01 -0.24817735287E+02  0.31623696205E+02  0.51100000000E-03 0. -1.
        -11    1    3    3    0    0 -0.38427209357E+01 -0.24154712078E+01 -0.72948672660E+00  0.45970813013E+01  0.51100000000E-03 0.  1.
         12    1    3    3    0    0 -0.12535304507E+02  0.22952480185E+01  0.65053211264E+01  0.14308082524E+02  0.00000000000E+00 0. -1.
</event>
<event>
 7    1  0.2755991E-011  0.5052886E+02  0.7816164E-02  0.1300439E+00
        -11   -1    0    0    0    0  0.00000000000E+00  0.00000000000E+00  0.45593999997E+02  0.45594000000E+02  0.51100000000E-03 0.  1.
         11   -1    0    0    0    0 -0.00000000000E+00 -0.00000000000E+00 -0.45593999997E+02  0.45594000000E+02  0.51100000000E-03 0. -1.
    9900012    2    1    2    0    0 -0.38503636072E+02  0.31935432600E+01  0.12666370376E+02  0.50528860218E+02  0.30000001118E+02 0.  0.
         12    1    1    2    0    0  0.38503636072E+02 -0.31935432600E+01 -0.12666370376E+02  0.40659139782E+02  0.00000000000E+00 0. -1.
         11    1    3    3    0    0 -0.10932279353E+02  0.32331783588E+01 -0.16079534411E+01  0.11513196284E+02  0.51100000000E-03 0. -1.
        -11    1    3    3    0    0 -0.31254168983E+02  0.22840233084E+01  0.99512535144E+01  0.32879587711E+02  0.51100000000E-03 0.  1.
        -12    1    3    3    0    0  0.36828122637E+01 -0.23236584072E+01  0.43230703030E+01  0.61360762224E+01  0.00000000000E+00 0.  1.
</event>
<event>
 7    1  0.2755991E-011  0.5052885E+02  0.7816164E-02  0.1300439E+00
        -11   -1    0    0    0    0  0.00000000000E+00  0.00000000000E+00  0.45593999997E+02  0.45594000000E+02  0.51100000000E-03 0.  1.
         11   -1    0    0    0    0 -0.00000000000E+00 -0.00000000000E+00 -0.45593999997E+02  0.45594000000E+02  0.51100000000E-03 0. -1.
    9900012    2    1    2    0    0  0.70757919063E+01  0.21753097523E+02  0.33614017266E+02  0.50528852939E+02  0.29999978993E+02 0.  0.
         12    1    1    2    0    0 -0.70757919063E+01 -0.21753097523E+02 -0.33614017266E+02  0.40659147061E+02  0.00000000000E+00 0. -1.
         11    1    3    3    0    0  0.39729691623E+01  0.29779478462E+00  0.19679130814E+01  0.44436300313E+01  0.51100000000E-03 0.  1.
        -11    1    3    3    0    0  0.12210520676E+02  0.20002304958E+02  0.17711567413E+02  0.29374966201E+02  0.51100000000E-03 0. -1.
         12    1    3    3    0    0 -0.91076979318E+01  0.14529977806E+01  0.13934536772E+02  0.16710256707E+02  0.00000000000E+00 0. -1.
</event>
<event>
 7    1  0.2755991E-011  0.5052887E+02  0.7816164E-02  0.1300439E+00
        -11   -1    0    0    0    0  0.00000000000E+00  0.00000000000E+00  0.45593999997E+02  0.45594000000E+02  0.51100000000E-03 0.  1.
         11   -1    0    0    0    0 -0.00000000000E+00 -0.00000000000E+00 -0.45593999997E+02  0.45594000000E+02  0.51100000000E-03 0. -1.
    9900012    2    1    2    0    0  0.14227841906E+02  0.27354698302E+01  0.37990142073E+02  0.50528866030E+02  0.30000018785E+02 0.  0.
         12    1    1    2    0    0 -0.14227841906E+02 -0.27354698302E+01 -0.37990142073E+02  0.40659133970E+02  0.00000000000E+00 0. -1.
         11    1    3    3    0    0 -0.60857565964E+01 -0.16179785997E+01  0.72644977773E+01  0.96139074427E+01  0.51100000000E-03 0. -1.
        -11    1    3    3    0    0  0.74482972301E+01  0.51539426326E+01  0.25402306206E+02  0.26968823058E+02  0.51100000000E-03 0.  1.
        -12    1    3    3    0    0  0.12865301272E+02 -0.80049420266E+00  0.53233380890E+01  0.13946135529E+02  0.00000000000E+00 0.  1.
</event>
<event>
 7    1  0.2755991E-011  0.5052885E+02  0.7816164E-02  0.1300439E+00
        -11   -1    0    0    0    0  0.00000000000E+00  0.00000000000E+00  0.45593999997E+02  0.45594000000E+02  0.51100000000E-03 0. -1.
         11   -1    0    0    0    0 -0.00000000000E+00 -0.00000000000E+00 -0.45593999997E+02  0.45594000000E+02  0.51100000000E-03 0.  1.
    9900012    2    1    2    0    0 -0.84792144426E+01 -0.18722612746E+02 -0.35081811033E+02  0.50528846406E+02  0.29999959137E+02 0.  0.
         12    1    1    2    0    0  0.84792144426E+01  0.18722612746E+02  0.35081811033E+02  0.40659153594E+02  0.00000000000E+00 0. -1.
         11    1    3    3    0    0 -0.88735914136E+01 -0.97147815823E+01 -0.20396657951E+02  0.24272232316E+02  0.51100000000E-03 0. -1.
        -11    1    3    3    0    0 -0.13807828015E+01 -0.30667670556E+01 -0.18614450557E+02  0.18915850262E+02  0.51100000000E-03 0.  1.
         12    1    3    3    0    0  0.17751597725E+01 -0.59410641077E+01  0.39292974748E+01  0.73407638291E+01  0.00000000000E+00 0. -1.
</event>
<event>
 7    1  0.2755991E-011  0.5052886E+02  0.7816164E-02  0.1300439E+00
        -11   -1    0    0    0    0  0.00000000000E+00  0.00000000000E+00  0.45593999997E+02  0.45594000000E+02  0.51100000000E-03 0.  1.
         11   -1    0    0    0    0 -0.00000000000E+00 -0.00000000000E+00 -0.45593999997E+02  0.45594000000E+02  0.51100000000E-03 0. -1.
    9900012    2    1    2    0    0  0.18789162702E+02 -0.48396552241E+01  0.35731089653E+02  0.50528860000E+02  0.30000000456E+02 0.  0.
         12    1    1    2    0    0 -0.18789162702E+02  0.48396552241E+01 -0.35731089653E+02  0.40659140000E+02  0.00000000000E+00 0. -1.
         11    1    3    3    0    0  0.11520780308E+02  0.23870600820E+00  0.68497699471E+01  0.13405398467E+02  0.51100000000E-03 0. -1.
        -11    1    3    3    0    0  0.14365083996E+02 -0.40548703354E+01  0.13385464365E+02  0.20049146320E+02  0.51100000000E-03 0.  1.
         12    1    3    3    0    0 -0.70967016019E+01 -0.10234908969E+01  0.15495855341E+02  0.17074315213E+02  0.00000000000E+00 0. -1.
</event>
<event>
 7    1  0.2755991E-011  0.5052879E+02  0.7816164E-02  0.1300439E+00
        -11   -1    0    0    0    0  0.00000000000E+00  0.00000000000E+00  0.45593999997E+02  0.45594000000E+02  0.51100000000E-03 0.  1.
         11   -1    0    0    0    0 -0.00000000000E+00 -0.00000000000E+00 -0.45593999997E+02  0.45594000000E+02  0.51100000000E-03 0. -1.
    9900012    2    1    2    0    0 -0.11851363664E+02  0.38842448301E+02  0.19952230747E+01  0.50528787934E+02  0.29999781403E+02 0.  0.
         12    1    1    2    0    0  0.11851363664E+02 -0.38842448301E+02 -0.19952230747E+01  0.40659212066E+02  0.00000000000E+00 0. -1.
         11    1    3    3    0    0 -0.22396432237E+01  0.22616657693E+02 -0.40393043829E+00  0.22730868154E+02  0.51100000000E-03 0. -1.
        -11    1    3    3    0    0 -0.18633988698E+01  0.19236705277E+02  0.87472067858E+00  0.19346529967E+02  0.51100000000E-03 0.  1.
         12    1    3    3    0    0 -0.77483215705E+01 -0.30109146683E+01  0.15244328344E+01  0.84513898127E+01  0.00000000000E+00 0. -1.
</event>
<event>
 7    1  0.2755991E-011  0.5052884E+02  0.7816164E-02  0.1300439E+00
        -11   -1    0    0    0    0  0.00000000000E+00  0.00000000000E+00  0.45593999997E+02  0.45594000000E+02  0.51100000000E-03 0. -1.
         11   -1    0    0    0    0 -0.00000000000E+00 -0.00000000000E+00 -0.45593999997E+02  0.45594000000E+02  0.51100000000E-03 0.  1.
    9900012    2    1    2    0    0 -0.29838707750E+02 -0.20117818005E+02 -0.18923322772E+02  0.50528840808E+02  0.29999942121E+02 0.  0.
         12    1    1    2    0    0  0.29838707750E+02  0.20117818005E+02  0.18923322772E+02  0.40659159192E+02  0.00000000000E+00 0. -1.
         11    1    3    3    0    0 -0.28110172590E+02 -0.24962474410E+02 -0.13449756368E+02  0.39927470222E+02  0.51100000000E-03 0.  1.
        -11    1    3    3    0    0  0.14717053181E+00  0.79959070040E+00 -0.60509718898E+01  0.61053472896E+01  0.51100000000E-03 0. -1.
        -12    1    3    3    0    0 -0.18757056909E+01  0.40450657045E+01  0.57740548563E+00  0.44960232970E+01  0.00000000000E+00 0.  1.
</event>
<event>
 7    1  0.2755991E-011  0.5052885E+02  0.7816164E-02  0.1300439E+00
        -11   -1    0    0    0    0  0.00000000000E+00  0.00000000000E+00  0.45593999997E+02  0.45594000000E+02  0.51100000000E-03 0.  1.
         11   -1    0    0    0    0 -0.00000000000E+00 -0.00000000000E+00 -0.45593999997E+02  0.45594000000E+02  0.51100000000E-03 0. -1.
    9900012    2    1    2    0    0  0.34660342720E+02  0.63838124575E+01  0.20274962104E+02  0.50528849649E+02  0.29999968992E+02 0.  0.
         12    1    1    2    0    0 -0.34660342720E+02 -0.63838124575E+01 -0.20274962104E+02  0.40659150351E+02  0.00000000000E+00 0. -1.
         11    1    3    3    0    0  0.79257486325E+00  0.10573715158E+00  0.12565795362E+01  0.14894118474E+01  0.51100000000E-03 0.  1.
        -11    1    3    3    0    0  0.32724180723E+02  0.32226360441E+01  0.33701449746E+01  0.33054731348E+02  0.51100000000E-03 0. -1.
         12    1    3    3    0    0  0.11435871338E+01  0.30554392618E+01  0.15648237593E+02  0.15984706453E+02  0.00000000000E+00 0. -1.
</event>
<event>
 7    1  0.2755991E-011  0.5052886E+02  0.7816164E-02  0.1300439E+00
        -11   -1    0    0    0    0  0.00000000000E+00  0.00000000000E+00  0.45593999997E+02  0.45594000000E+02  0.51100000000E-03 0.  1.
         11   -1    0    0    0    0 -0.00000000000E+00 -0.00000000000E+00 -0.45593999997E+02  0.45594000000E+02  0.51100000000E-03 0. -1.
    9900012    2    1    2    0    0  0.26391127982E+02 -0.65708516863E+01  0.30224126628E+02  0.50528861316E+02  0.30000004457E+02 0.  0.
         12    1    1    2    0    0 -0.26391127982E+02  0.65708516863E+01 -0.30224126628E+02  0.40659138684E+02  0.00000000000E+00 0. -1.
         11    1    3    3    0    0  0.10873692150E+01 -0.59690020559E+01  0.10953109695E+02  0.12521260703E+02  0.51100000000E-03 0. -1.
        -11    1    3    3    0    0  0.19508784454E+02  0.67825394658E+01  0.19792187430E+02  0.28606401312E+02  0.51100000000E-03 0.  1.
         12    1    3    3    0    0  0.57949743132E+01 -0.73843890962E+01 -0.52117049674E+00  0.94011993012E+01  0.00000000000E+00 0. -1.
</event>
<event>
 7    1  0.2755991E-011  0.5052887E+02  0.7816164E-02  0.1300439E+00
        -11   -1    0    0    0    0  0.00000000000E+00  0.00000000000E+00  0.45593999997E+02  0.45594000000E+02  0.51100000000E-03 0. -1.
         11   -1    0    0    0    0 -0.00000000000E+00 -0.00000000000E+00 -0.45593999997E+02  0.45594000000E+02  0.51100000000E-03 0.  1.
    9900012    2    1    2    0    0 -0.38320690586E+01 -0.38775087750E+02 -0.11617787489E+02  0.50528866101E+02  0.30000019000E+02 0.  0.
         12    1    1    2    0    0  0.38320690586E+01  0.38775087750E+02  0.11617787489E+02  0.40659133899E+02  0.00000000000E+00 0. -1.
         11    1    3    3    0    0  0.12740742894E+01 -0.19430162643E+02 -0.16738148388E+02  0.25677229160E+02  0.51100000000E-03 0. -1.
        -11    1    3    3    0    0  0.87795205690E+00 -0.48410462553E+01 -0.43142222994E+01  0.65436261331E+01  0.51100000000E-03 0.  1.
         12    1    3    3    0    0 -0.59840954048E+01 -0.14503878852E+02  0.94345831991E+01  0.18308010807E+02  0.00000000000E+00 0. -1.
</event>
<event>
 7    1  0.2755991E-011  0.5052884E+02  0.7816164E-02  0.1300439E+00
        -11   -1    0    0    0    0  0.00000000000E+00  0.00000000000E+00  0.45593999997E+02  0.45594000000E+02  0.51100000000E-03 0. -1.
         11   -1    0    0    0    0 -0.00000000000E+00 -0.00000000000E+00 -0.45593999997E+02  0.45594000000E+02  0.51100000000E-03 0.  1.
    9900012    2    1    2    0    0 -0.39463599384E+02  0.90484991610E+01  0.37304626366E+01  0.50528839103E+02  0.29999936937E+02 0.  0.
         12    1    1    2    0    0  0.39463599384E+02 -0.90484991610E+01 -0.37304626366E+01  0.40659160897E+02  0.00000000000E+00 0. -1.
         11    1    3    3    0    0 -0.23538129719E+02  0.92935204526E+01  0.23954844133E+01  0.25419508629E+02  0.51100000000E-03 0. -1.
        -11    1    3    3    0    0 -0.14022836980E+02  0.72719822844E+01 -0.32133008896E+01  0.16119770041E+02  0.51100000000E-03 0.  1.
         12    1    3    3    0    0 -0.19026326843E+01 -0.75170035759E+01  0.45482791129E+01  0.89895604332E+01  0.00000000000E+00 0. -1.
</event>
<event>
 7    1  0.2755991E-011  0.5052888E+02  0.7816164E-02  0.1300439E+00
        -11   -1    0    0    0    0  0.00000000000E+00  0.00000000000E+00  0.45593999997E+02  0.45594000000E+02  0.51100000000E-03 0.  1.
         11   -1    0    0    0    0 -0.00000000000E+00 -0.00000000000E+00 -0.45593999997E+02  0.45594000000E+02  0.51100000000E-03 0. -1.
    9900012    2    1    2    0    0 -0.25780158439E+01 -0.93863112406E+01  0.39476764558E+02  0.50528881166E+02  0.30000064792E+02 0.  0.
         12    1    1    2    0    0  0.25780158439E+01  0.93863112406E+01 -0.39476764558E+02  0.40659118834E+02  0.00000000000E+00 0. -1.
         11    1    3    3    0    0 -0.32322241882E+01 -0.19126275086E+01  0.84370469440E+00  0.38493187790E+01  0.51100000000E-03 0.  1.
        -11    1    3    3    0    0 -0.11825698115E+02 -0.39783873983E+01  0.13378500459E+02  0.18293686807E+02  0.51100000000E-03 0. -1.
        -12    1    3    3    0    0  0.12479906460E+02 -0.34952963336E+01  0.25254559405E+02  0.28385875580E+02  0.00000000000E+00 0.  1.
</event>
<event>
 7    1  0.2755991E-011  0.5052886E+02  0.7816164E-02  0.1300439E+00
        -11   -1    0    0    0    0  0.00000000000E+00  0.00000000000E+00  0.45593999997E+02  0.45594000000E+02  0.51100000000E-03 0.  1.
         11   -1    0    0    0    0 -0.00000000000E+00 -0.00000000000E+00 -0.45593999997E+02  0.45594000000E+02  0.51100000000E-03 0. -1.
    9900012    2    1    2    0    0  0.31191143106E+02  0.15242848553E+02  0.21164448519E+02  0.50528859314E+02  0.29999998370E+02 0.  0.
         12    1    1    2    0    0 -0.31191143106E+02 -0.15242848553E+02 -0.21164448519E+02  0.40659140686E+02  0.00000000000E+00 0. -1.
         11    1    3    3    0    0  0.16987481367E+02 -0.37871012629E+01  0.43025113672E+01  0.17928420552E+02  0.51100000000E-03 0. -1.
        -11    1    3    3    0    0  0.59836840219E+01  0.20328778780E+01 -0.12446566180E+01  0.64409810820E+01  0.51100000000E-03 0.  1.
        -12    1    3    3    0    0  0.82199777166E+01  0.16997071938E+02  0.18106593770E+02  0.26159457679E+02  0.00000000000E+00 0.  1.
</event>
<event>
 7    1  0.2755991E-011  0.5052886E+02  0.7816164E-02  0.1300439E+00
        -11   -1    0    0    0    0  0.00000000000E+00  0.00000000000E+00  0.45593999997E+02  0.45594000000E+02  0.51100000000E-03 0. -1.
         11   -1    0    0    0    0 -0.00000000000E+00 -0.00000000000E+00 -0.45593999997E+02  0.45594000000E+02  0.51100000000E-03 0.  1.
    9900012    2    1    2    0    0  0.29387655480E+02  0.27788963264E+02 -0.41599205906E+01  0.50528859414E+02  0.29999998674E+02 0.  0.
         12    1    1    2    0    0 -0.29387655480E+02 -0.27788963264E+02  0.41599205906E+01  0.40659140586E+02  0.00000000000E+00 0. -1.
         11    1    3    3    0    0  0.24968845673E+02  0.15561627645E+02  0.42385420528E+01  0.29724951610E+02  0.51100000000E-03 0. -1.
        -11    1    3    3    0    0  0.65455901027E+01  0.96869615984E+01  0.90358601994E-01  0.11691455844E+02  0.51100000000E-03 0.  1.
        -12    1    3    3    0    0 -0.21267802959E+01  0.25403740209E+01 -0.84888212454E+01  0.91124519603E+01  0.00000000000E+00 0.  1.
</event>
<event>
 7    1  0.2755991E-011  0.5052888E+02  0.7816164E-02  0.1300439E+00
        -11   -1    0    0    0    0  0.00000000000E+00  0.00000000000E+00  0.45593999997E+02  0.45594000000E+02  0.51100000000E-03 0. -1.
         11   -1    0    0    0    0 -0.00000000000E+00 -0.00000000000E+00 -0.45593999997E+02  0.45594000000E+02  0.51100000000E-03 0.  1.
    9900012    2    1    2    0    0  0.26198451373E+02 -0.29781149575E+02  0.89380368394E+01  0.50528877691E+02  0.30000054231E+02 0.  0.
         12    1    1    2    0    0 -0.26198451373E+02  0.29781149575E+02 -0.89380368394E+01  0.40659122309E+02  0.00000000000E+00 0. -1.
         11    1    3    3    0    0  0.96470949741E+01 -0.88172187161E+01  0.72283351803E+01  0.14935147039E+02  0.51100000000E-03 0. -1.
        -11    1    3    3    0    0  0.21479853961E+02 -0.19031242077E+02  0.53187383373E+01  0.29186662689E+02  0.51100000000E-03 0.  1.
        -12    1    3    3    0    0 -0.49284975619E+01 -0.19326887821E+01 -0.36090366783E+01  0.64070679637E+01  0.00000000000E+00 0.  1.
</event>
<event>
 7    1  0.2755991E-011  0.5052884E+02  0.7816164E-02  0.1300439E+00
        -11   -1    0    0    0    0  0.00000000000E+00  0.00000000000E+00  0.45593999997E+02  0.45594000000E+02  0.51100000000E-03 0. -1.
         11   -1    0    0    0    0 -0.00000000000E+00 -0.00000000000E+00 -0.45593999997E+02  0.45594000000E+02  0.51100000000E-03 0.  1.
    9900012    2    1    2    0    0 -0.30187256251E+02 -0.22770354709E+02 -0.14946832174E+02  0.50528840078E+02  0.29999939902E+02 0.  0.
         12    1    1    2    0    0  0.30187256251E+02  0.22770354709E+02  0.14946832174E+02  0.40659159922E+02  0.00000000000E+00 0. -1.
         11    1    3    3    0    0 -0.59865551013E+01 -0.63109540591E+01  0.18002821222E+01  0.88830174546E+01  0.51100000000E-03 0. -1.
        -11    1    3    3    0    0 -0.17428997886E+02 -0.18413015457E+02 -0.21419008456E+02  0.33190104385E+02  0.51100000000E-03 0.  1.
         12    1    3    3    0    0 -0.67717032628E+01  0.19536148076E+01  0.46718941600E+01  0.84557182391E+01  0.00000000000E+00 0. -1.
</event>
<event>
 7    1  0.2755991E-011  0.5052886E+02  0.7816164E-02  0.1300439E+00
        -11   -1    0    0    0    0  0.00000000000E+00  0.00000000000E+00  0.45593999997E+02  0.45594000000E+02  0.51100000000E-03 0.  1.
         11   -1    0    0    0    0 -0.00000000000E+00 -0.00000000000E+00 -0.45593999997E+02  0.45594000000E+02  0.51100000000E-03 0. -1.
    9900012    2    1    2    0    0  0.97212935027E+01 -0.31800895514E+02  0.23395839247E+02  0.50528858384E+02  0.29999995543E+02 0.  0.
         12    1    1    2    0    0 -0.97212935027E+01  0.31800895514E+02 -0.23395839247E+02  0.40659141616E+02  0.00000000000E+00 0. -1.
         11    1    3    3    0    0 -0.38361823026E+01 -0.12392459651E+02  0.99535882564E+01  0.16351246751E+02  0.51100000000E-03 0. -1.
        -11    1    3    3    0    0  0.12509910281E+02 -0.14297518968E+02  0.18780195906E+02  0.26713529576E+02  0.51100000000E-03 0.  1.
         12    1    3    3    0    0  0.10475655245E+01 -0.51109168946E+01 -0.53379449153E+01  0.74640820568E+01  0.00000000000E+00 0. -1.
</event>
<event>
 7    1  0.2755991E-011  0.5052884E+02  0.7816164E-02  0.1300439E+00
        -11   -1    0    0    0    0  0.00000000000E+00  0.00000000000E+00  0.45593999997E+02  0.45594000000E+02  0.51100000000E-03 0.  1.
         11   -1    0    0    0    0 -0.00000000000E+00 -0.00000000000E+00 -0.45593999997E+02  0.45594000000E+02  0.51100000000E-03 0. -1.
    9900012    2    1    2    0    0 -0.11509493822E+02  0.35277433984E+02  0.16619299245E+02  0.50528844771E+02  0.29999954167E+02 0.  0.
         12    1    1    2    0    0  0.11509493822E+02 -0.35277433984E+02 -0.16619299245E+02  0.40659155229E+02  0.00000000000E+00 0. -1.
         11    1    3    3    0    0 -0.27133638061E+01  0.53760721417E+01 -0.54746749754E+01  0.81385847151E+01  0.51100000000E-03 0. -1.
        -11    1    3    3    0    0 -0.96362763717E+01  0.78886296691E+01  0.20770705414E+01  0.12625471186E+02  0.51100000000E-03 0.  1.
        -12    1    3    3    0    0  0.84014635596E+00  0.22012732173E+02  0.20016903678E+02  0.29764788870E+02  0.00000000000E+00 0.  1.
</event>
<event>
 7    1  0.2755991E-011  0.5052886E+02  0.7816164E-02  0.1300439E+00
        -11   -1    0    0    0    0  0.00000000000E+00  0.00000000000E+00  0.45593999997E+02  0.45594000000E+02  0.51100000000E-03 0. -1.
         11   -1    0    0    0    0 -0.00000000000E+00 -0.00000000000E+00 -0.45593999997E+02  0.45594000000E+02  0.51100000000E-03 0.  1.
    9900012    2    1    2    0    0 -0.27673451790E+02 -0.20890595479E+02 -0.21235087740E+02  0.50528857550E+02  0.29999993009E+02 0.  0.
         12    1    1    2    0    0  0.27673451790E+02  0.20890595479E+02  0.21235087740E+02  0.40659142450E+02  0.00000000000E+00 0. -1.
         11    1    3    3    0    0 -0.10267739273E+02 -0.75541041222E+01 -0.73081819476E+01  0.14693552412E+02  0.51100000000E-03 0. -1.
        -11    1    3    3    0    0 -0.22397194773E+02 -0.14857128921E+02 -0.82274141086E+01  0.28107987417E+02  0.51100000000E-03 0.  1.
         12    1    3    3    0    0  0.49914822550E+01  0.15206375642E+01 -0.56994916836E+01  0.77273177206E+01  0.00000000000E+00 0. -1.
</event>
<event>
 7    1  0.2755991E-011  0.5052886E+02  0.7816164E-02  0.1300439E+00
        -11   -1    0    0    0    0  0.00000000000E+00  0.00000000000E+00  0.45593999997E+02  0.45594000000E+02  0.51100000000E-03 0.  1.
         11   -1    0    0    0    0 -0.00000000000E+00 -0.00000000000E+00 -0.45593999997E+02  0.45594000000E+02  0.51100000000E-03 0. -1.
    9900012    2    1    2    0    0  0.21616930876E+02 -0.15104219165E+02  0.30947322444E+02  0.50528857073E+02  0.29999991559E+02 0.  0.
         12    1    1    2    0    0 -0.21616930876E+02  0.15104219165E+02 -0.30947322444E+02  0.40659142927E+02  0.00000000000E+00 0. -1.
         11    1    3    3    0    0 -0.19424920143E+01  0.21088260570E+01  0.88405998661E+01  0.92939027764E+01  0.51100000000E-03 0. -1.
        -11    1    3    3    0    0 -0.35422162408E+00  0.80052683180E+00  0.81598762541E+01  0.82066982953E+01  0.51100000000E-03 0.  1.
        -12    1    3    3    0    0  0.23913644515E+02 -0.18013572054E+02  0.13946846324E+02  0.33028256001E+02  0.00000000000E+00 0.  1.
</event>
<event>
 7    1  0.2755991E-011  0.5052886E+02  0.7816164E-02  0.1300439E+00
        -11   -1    0    0    0    0  0.00000000000E+00  0.00000000000E+00  0.45593999997E+02  0.45594000000E+02  0.51100000000E-03 0.  1.
         11   -1    0    0    0    0 -0.00000000000E+00 -0.00000000000E+00 -0.45593999997E+02  0.45594000000E+02  0.51100000000E-03 0. -1.
    9900012    2    1    2    0    0 -0.32451686275E+02 -0.54736750064E+01  0.23876607617E+02  0.50528862633E+02  0.30000008459E+02 0.  0.
         12    1    1    2    0    0  0.32451686275E+02  0.54736750064E+01 -0.23876607617E+02  0.40659137367E+02  0.00000000000E+00 0. -1.
         11    1    3    3    0    0 -0.18934882723E+02 -0.19509191968E+01  0.49621174173E+01  0.19671260228E+02  0.51100000000E-03 0.  1.
        -11    1    3    3    0    0 -0.17252431019E+01  0.77634339813E+01  0.48760304110E+01  0.93286142472E+01  0.51100000000E-03 0. -1.
         12    1    3    3    0    0 -0.11791560450E+02 -0.11286189791E+02  0.14038459788E+02  0.21528988157E+02  0.00000000000E+00 0. -1.
</event>
<event>
 7    1  0.2755991E-011  0.5052887E+02  0.7816164E-02  0.1300439E+00
        -11   -1    0    0    0    0  0.00000000000E+00  0.00000000000E+00  0.45593999997E+02  0.45594000000E+02  0.51100000000E-03 0.  1.
         11   -1    0    0    0    0 -0.00000000000E+00 -0.00000000000E+00 -0.45593999997E+02  0.45594000000E+02  0.51100000000E-03 0. -1.
    9900012    2    1    2    0    0 -0.18351717768E+02 -0.24645873470E+02  0.26626311821E+02  0.50528866889E+02  0.30000021395E+02 0.  0.
         12    1    1    2    0    0  0.18351717768E+02  0.24645873470E+02 -0.26626311821E+02  0.40659133111E+02  0.00000000000E+00 0. -1.
         11    1    3    3    0    0  0.14380654490E+01  0.21705325363E+01  0.79178044316E+01  0.83349187762E+01  0.51100000000E-03 0. -1.
        -11    1    3    3    0    0 -0.14214226863E+02 -0.10246293176E+02  0.17349209752E+02  0.24658180153E+02  0.51100000000E-03 0.  1.
        -12    1    3    3    0    0 -0.55755563534E+01 -0.16570112830E+02  0.13592976375E+01  0.17535767960E+02  0.00000000000E+00 0.  1.
</event>
<event>
 7    1  0.2755991E-011  0.5052888E+02  0.7816164E-02  0.1300439E+00
        -11   -1    0    0    0    0  0.00000000000E+00  0.00000000000E+00  0.45593999997E+02  0.45594000000E+02  0.51100000000E-03 0.  1.
         11   -1    0    0    0    0 -0.00000000000E+00 -0.00000000000E+00 -0.45593999997E+02  0.45594000000E+02  0.51100000000E-03 0. -1.
    9900012    2    1    2    0    0 -0.14795087362E+01 -0.25004817315E+01  0.40555184190E+02  0.50528876551E+02  0.30000050764E+02 0.  0.
         12    1    1    2    0    0  0.14795087362E+01  0.25004817315E+01 -0.40555184190E+02  0.40659123449E+02  0.00000000000E+00 0. -1.
         11    1    3    3    0    0  0.11270567978E+01  0.99741987652E+00  0.18027379070E+01  0.23483968272E+01  0.51100000000E-03 0. -1.
        -11    1    3    3    0    0 -0.98891090593E+01  0.33429951744E+01  0.36465768842E+02  0.37930494226E+02  0.51100000000E-03 0.  1.
        -12    1    3    3    0    0  0.72825435253E+01 -0.68408967824E+01  0.22866774405E+01  0.10249985498E+02  0.00000000000E+00 0.  1.
</event>
<event>
 7    1  0.2755991E-011  0.5052887E+02  0.7816164E-02  0.1300439E+00
        -11   -1    0    0    0    0  0.00000000000E+00  0.00000000000E+00  0.45593999997E+02  0.45594000000E+02  0.51100000000E-03 0.  1.
         11   -1    0    0    0    0 -0.00000000000E+00 -0.00000000000E+00 -0.45593999997E+02  0.45594000000E+02  0.51100000000E-03 0. -1.
    9900012    2    1    2    0    0  0.70461260521E+01 -0.36613967692E+02  0.16215248393E+02  0.50528870608E+02  0.30000032700E+02 0.  0.
         12    1    1    2    0    0 -0.70461260521E+01  0.36613967692E+02 -0.16215248393E+02  0.40659129392E+02  0.00000000000E+00 0. -1.
         11    1    3    3    0    0  0.72588895344E+01 -0.18178841118E+02  0.94929211507E+01  0.21754937230E+02  0.51100000000E-03 0. -1.
        -11    1    3    3    0    0  0.54428776822E+01 -0.20860504928E+02  0.68434516178E+01  0.22618983479E+02  0.51100000000E-03 0.  1.
         12    1    3    3    0    0 -0.56556411645E+01  0.24253783542E+01 -0.12112437501E+00  0.61549498988E+01  0.00000000000E+00 0. -1.
</event>
<event>
 7    1  0.2755991E-011  0.5052886E+02  0.7816164E-02  0.1300439E+00
        -11   -1    0    0    0    0  0.00000000000E+00  0.00000000000E+00  0.45593999997E+02  0.45594000000E+02  0.51100000000E-03 0.  1.
         11   -1    0    0    0    0 -0.00000000000E+00 -0.00000000000E+00 -0.45593999997E+02  0.45594000000E+02  0.51100000000E-03 0. -1.
    9900012    2    1    2    0    0  0.48366033349E+01 -0.22761287310E+02  0.33342117158E+02  0.50528859473E+02  0.29999998855E+02 0.  0.
         12    1    1    2    0    0 -0.48366033349E+01  0.22761287310E+02 -0.33342117158E+02  0.40659140527E+02  0.00000000000E+00 0. -1.
         11    1    3    3    0    0  0.11657259734E+01 -0.49070868542E+01 -0.10474713389E+01  0.51512731346E+01  0.51100000000E-03 0.  1.
        -11    1    3    3    0    0 -0.14289765723E+01 -0.57779670464E+01 -0.23272050122E+01  0.63908341133E+01  0.51100000000E-03 0. -1.
         12    1    3    3    0    0  0.50998539338E+01 -0.12076233409E+02  0.36716793509E+02  0.38986752225E+02  0.00000000000E+00 0. -1.
</event>
<event>
 7    1  0.2755991E-011  0.5052887E+02  0.7816164E-02  0.1300439E+00
        -11   -1    0    0    0    0  0.00000000000E+00  0.00000000000E+00  0.45593999997E+02  0.45594000000E+02  0.51100000000E-03 0. -1.
         11   -1    0    0    0    0 -0.00000000000E+00 -0.00000000000E+00 -0.45593999997E+02  0.45594000000E+02  0.51100000000E-03 0.  1.
    9900012    2    1    2    0    0 -0.19374061235E+01 -0.35672944483E+02  0.19412694288E+02  0.50528865601E+02  0.30000017482E+02 0.  0.
         12    1    1    2    0    0  0.19374061235E+01  0.35672944483E+02 -0.19412694288E+02  0.40659134399E+02  0.00000000000E+00 0. -1.
         11    1    3    3    0    0  0.11945812676E+01 -0.63437834395E+01  0.70678624491E+01  0.95721101432E+01  0.51100000000E-03 0. -1.
        -11    1    3    3    0    0  0.11227098909E+02 -0.14535970220E+02  0.46019416363E+01  0.18934625616E+02  0.51100000000E-03 0.  1.
         12    1    3    3    0    0 -0.14359086300E+02 -0.14793190824E+02  0.77428902021E+01  0.22022129842E+02  0.00000000000E+00 0. -1.
</event>
<event>
 7    1  0.2755991E-011  0.5052886E+02  0.7816164E-02  0.1300439E+00
        -11   -1    0    0    0    0  0.00000000000E+00  0.00000000000E+00  0.45593999997E+02  0.45594000000E+02  0.51100000000E-03 0.  1.
         11   -1    0    0    0    0 -0.00000000000E+00 -0.00000000000E+00 -0.45593999997E+02  0.45594000000E+02  0.51100000000E-03 0. -1.
    9900012    2    1    2    0    0 -0.15003054176E+02  0.66133476763E+01  0.37206690597E+02  0.50528858011E+02  0.29999994412E+02 0.  0.
         12    1    1    2    0    0  0.15003054176E+02 -0.66133476763E+01 -0.37206690597E+02  0.40659141989E+02  0.00000000000E+00 0. -1.
         11    1    3    3    0    0 -0.44557500040E+01 -0.36752479709E+01  0.19379424825E+02  0.20221851116E+02  0.51100000000E-03 0. -1.
        -11    1    3    3    0    0 -0.82086318299E+01  0.97926234617E+01  0.22032481060E+02  0.25469733660E+02  0.51100000000E-03 0.  1.
         12    1    3    3    0    0 -0.23386723423E+01  0.49597218552E+00 -0.42052152886E+01  0.48372732357E+01  0.00000000000E+00 0. -1.
</event>
<event>
 7    1  0.2755991E-011  0.5052884E+02  0.7816164E-02  0.1300439E+00
        -11   -1    0    0    0    0  0.00000000000E+00  0.00000000000E+00  0.45593999997E+02  0.45594000000E+02  0.51100000000E-03 0. -1.
         11   -1    0    0    0    0 -0.00000000000E+00 -0.00000000000E+00 -0.45593999997E+02  0.45594000000E+02  0.51100000000E-03 0.  1.
    9900012    2    1    2    0    0  0.24082607727E+02 -0.79343110969E+01 -0.31784300496E+02  0.50528843030E+02  0.29999948873E+02 0.  0.
         12    1    1    2    0    0 -0.24082607727E+02  0.79343110969E+01  0.31784300496E+02  0.40659156970E+02  0.00000000000E+00 0. -1.
         11    1    3    3    0    0  0.12491527983E+02 -0.63257752250E+01 -0.11589185042E+02  0.18175888252E+02  0.51100000000E-03 0.  1.
        -11    1    3    3    0    0  0.66464034687E+01 -0.11852615650E+02 -0.84472100997E+01  0.16000454230E+02  0.51100000000E-03 0. -1.
        -12    1    3    3    0    0  0.49446762752E+01  0.10244079778E+02 -0.11747905354E+02  0.16352500548E+02  0.00000000000E+00 0.  1.
</event>
<event>
 7    1  0.2755991E-011  0.5052892E+02  0.7816164E-02  0.1300439E+00
        -11   -1    0    0    0    0  0.00000000000E+00  0.00000000000E+00  0.45593999997E+02  0.45594000000E+02  0.51100000000E-03 0.  1.
         11   -1    0    0    0    0 -0.00000000000E+00 -0.00000000000E+00 -0.45593999997E+02  0.45594000000E+02  0.51100000000E-03 0. -1.
    9900012    2    1    2    0    0 -0.29445969906E+02 -0.21478382900E+02 -0.18021508156E+02  0.50528919441E+02  0.30000181131E+02 0.  0.
         12    1    1    2    0    0  0.29445969906E+02  0.21478382900E+02  0.18021508156E+02  0.40659080559E+02  0.00000000000E+00 0. -1.
         11    1    3    3    0    0 -0.37165317444E+01 -0.13669065213E+02 -0.40142560347E+01  0.14723118005E+02  0.51100000000E-03 0. -1.
        -11    1    3    3    0    0 -0.24772192006E+02 -0.12295266423E+02 -0.14439915040E+02  0.31198497076E+02  0.51100000000E-03 0.  1.
        -12    1    3    3    0    0 -0.95724615515E+00  0.44859487355E+01  0.43266291873E+00  0.46073043594E+01  0.00000000000E+00 0.  1.
</event>
<event>
 7    1  0.2755991E-011  0.5052886E+02  0.7816164E-02  0.1300439E+00
        -11   -1    0    0    0    0  0.00000000000E+00  0.00000000000E+00  0.45593999997E+02  0.45594000000E+02  0.51100000000E-03 0.  1.
         11   -1    0    0    0    0 -0.00000000000E+00 -0.00000000000E+00 -0.45593999997E+02  0.45594000000E+02  0.51100000000E-03 0. -1.
    9900012    2    1    2    0    0  0.28666978507E+02 -0.22234619162E+02  0.18357330996E+02  0.50528861454E+02  0.30000004876E+02 0.  0.
         12    1    1    2    0    0 -0.28666978507E+02  0.22234619162E+02 -0.18357330996E+02  0.40659138546E+02  0.00000000000E+00 0. -1.
         11    1    3    3    0    0  0.14787928787E+01  0.67282233824E+00 -0.42904814870E+01  0.45877826810E+01  0.51100000000E-03 0. -1.
        -11    1    3    3    0    0  0.24317517191E+02 -0.97896339117E+01  0.12132353296E+02  0.28885507979E+02  0.51100000000E-03 0.  1.
        -12    1    3    3    0    0  0.28706684378E+01 -0.13117807589E+02  0.10515459187E+02  0.17055570794E+02  0.00000000000E+00 0.  1.
</event>
<event>
 7    1  0.2755991E-011  0.5052887E+02  0.7816164E-02  0.1300439E+00
        -11   -1    0    0    0    0  0.00000000000E+00  0.00000000000E+00  0.45593999997E+02  0.45594000000E+02  0.51100000000E-03 0.  1.
         11   -1    0    0    0    0 -0.00000000000E+00 -0.00000000000E+00 -0.45593999997E+02  0.45594000000E+02  0.51100000000E-03 0. -1.
    9900012    2    1    2    0    0  0.23620261880E+02 -0.15999632052E+02  0.28969978128E+02  0.50528872737E+02  0.30000039170E+02 0.  0.
         12    1    1    2    0    0 -0.23620261880E+02  0.15999632052E+02 -0.28969978128E+02  0.40659127263E+02  0.00000000000E+00 0. -1.
         11    1    3    3    0    0  0.16186663360E+02 -0.25809030935E+01  0.32334812118E+01  0.16707020456E+02  0.51100000000E-03 0. -1.
        -11    1    3    3    0    0  0.19160061109E+01 -0.15785596204E+01 -0.19839049962E+01  0.31778623613E+01  0.51100000000E-03 0.  1.
         12    1    3    3    0    0  0.55175924086E+01 -0.11840169338E+02  0.27720401913E+02  0.30643989919E+02  0.00000000000E+00 0. -1.
</event>
<event>
 7    1  0.2755991E-011  0.5052886E+02  0.7816164E-02  0.1300439E+00
        -11   -1    0    0    0    0  0.00000000000E+00  0.00000000000E+00  0.45593999997E+02  0.45594000000E+02  0.51100000000E-03 0.  1.
         11   -1    0    0    0    0 -0.00000000000E+00 -0.00000000000E+00 -0.45593999997E+02  0.45594000000E+02  0.51100000000E-03 0. -1.
    9900012    2    1    2    0    0  0.28297972217E+02  0.28751517782E+02 -0.50735415087E+01  0.50528857980E+02  0.29999994316E+02 0.  0.
         12    1    1    2    0    0 -0.28297972217E+02 -0.28751517782E+02  0.50735415087E+01  0.40659142020E+02  0.00000000000E+00 0. -1.
         11    1    3    3    0    0  0.29576792906E+01 -0.16185548381E+01  0.21018195832E+01  0.39730633485E+01  0.51100000000E-03 0. -1.
        -11    1    3    3    0    0  0.52796055060E+01  0.24492703701E+02 -0.29408354794E+01  0.25227272592E+02  0.51100000000E-03 0.  1.
         12    1    3    3    0    0  0.20060687421E+02  0.58773689193E+01 -0.42345256125E+01  0.21328522039E+02  0.00000000000E+00 0. -1.
</event>
<event>
 7    1  0.2755991E-011  0.5052887E+02  0.7816164E-02  0.1300439E+00
        -11   -1    0    0    0    0  0.00000000000E+00  0.00000000000E+00  0.45593999997E+02  0.45594000000E+02  0.51100000000E-03 0.  1.
         11   -1    0    0    0    0 -0.00000000000E+00 -0.00000000000E+00 -0.45593999997E+02  0.45594000000E+02  0.51100000000E-03 0. -1.
    9900012    2    1    2    0    0  0.29137498235E+02 -0.60978165087E+01  0.27694546774E+02  0.50528867070E+02  0.30000021947E+02 0.  0.
         12    1    1    2    0    0 -0.29137498235E+02  0.60978165087E+01 -0.27694546774E+02  0.40659132930E+02  0.00000000000E+00 0. -1.
         11    1    3    3    0    0  0.60017829618E+01 -0.12459112776E+02  0.92593938797E+01  0.16642934392E+02  0.51100000000E-03 0. -1.
        -11    1    3    3    0    0  0.21786356644E+02  0.53144807857E+00  0.11217831594E+02  0.24510559333E+02  0.51100000000E-03 0.  1.
        -12    1    3    3    0    0  0.13493586293E+01  0.58298481891E+01  0.72173212996E+01  0.93753733451E+01  0.00000000000E+00 0.  1.
</event>
<event>
 7    1  0.2755991E-011  0.5052886E+02  0.7816164E-02  0.1300439E+00
        -11   -1    0    0    0    0  0.00000000000E+00  0.00000000000E+00  0.45593999997E+02  0.45594000000E+02  0.51100000000E-03 0.  1.
         11   -1    0    0    0    0 -0.00000000000E+00 -0.00000000000E+00 -0.45593999997E+02  0.45594000000E+02  0.51100000000E-03 0. -1.
    9900012    2    1    2    0    0  0.27186063647E+02  0.30209932624E+02 -0.12015955444E+01  0.50528856900E+02  0.29999991033E+02 0.  0.
         12    1    1    2    0    0 -0.27186063647E+02 -0.30209932624E+02  0.12015955444E+01  0.40659143100E+02  0.00000000000E+00 0. -1.
         11    1    3    3    0    0 -0.27769044142E+01  0.29833136496E+01  0.13158406543E+00  0.40778270053E+01  0.51100000000E-03 0. -1.
        -11    1    3    3    0    0  0.31849158605E+01  0.14151538334E+02  0.61036944227E+01  0.15737369924E+02  0.51100000000E-03 0.  1.
         12    1    3    3    0    0  0.26778052201E+02  0.13075080640E+02 -0.74368740326E+01  0.30713659971E+02  0.00000000000E+00 0. -1.
</event>
<event>
 7    1  0.2755991E-011  0.5052886E+02  0.7816164E-02  0.1300439E+00
        -11   -1    0    0    0    0  0.00000000000E+00  0.00000000000E+00  0.45593999997E+02  0.45594000000E+02  0.51100000000E-03 0. -1.
         11   -1    0    0    0    0 -0.00000000000E+00 -0.00000000000E+00 -0.45593999997E+02  0.45594000000E+02  0.51100000000E-03 0.  1.
    9900012    2    1    2    0    0  0.29454900445E+02 -0.15230568494E+02 -0.23528799788E+02  0.50528858392E+02  0.29999995568E+02 0.  0.
         12    1    1    2    0    0 -0.29454900445E+02  0.15230568494E+02  0.23528799788E+02  0.40659141608E+02  0.00000000000E+00 0. -1.
         11    1    3    3    0    0 -0.84215517437E-01  0.19941023219E+01 -0.42566967639E+01  0.47013831927E+01  0.51100000000E-03 0. -1.
        -11    1    3    3    0    0  0.17382227791E+02  0.13927784051E+01 -0.15386013935E+02  0.23255345617E+02  0.51100000000E-03 0.  1.
        -12    1    3    3    0    0  0.12156888171E+02 -0.18617449221E+02 -0.38860890891E+01  0.22572129582E+02  0.00000000000E+00 0.  1.
</event>
<event>
 7    1  0.2755991E-011  0.5052886E+02  0.7816164E-02  0.1300439E+00
        -11   -1    0    0    0    0  0.00000000000E+00  0.00000000000E+00  0.45593999997E+02  0.45594000000E+02  0.51100000000E-03 0.  1.
         11   -1    0    0    0    0 -0.00000000000E+00 -0.00000000000E+00 -0.45593999997E+02  0.45594000000E+02  0.51100000000E-03 0. -1.
    9900012    2    1    2    0    0  0.98509822403E+01  0.18580417890E+02  0.34797872697E+02  0.50528859277E+02  0.29999998260E+02 0.  0.
         12    1    1    2    0    0 -0.98509822403E+01 -0.18580417890E+02 -0.34797872697E+02  0.40659140723E+02  0.00000000000E+00 0. -1.
         11    1    3    3    0    0 -0.37938405931E+01 -0.24572053922E+01  0.28610982984E+00  0.45291217560E+01  0.51100000000E-03 0. -1.
        -11    1    3    3    0    0  0.25384784273E+01  0.17279660475E+02  0.14042778808E+02  0.22410492537E+02  0.51100000000E-03 0.  1.
        -12    1    3    3    0    0  0.11106344406E+02  0.37579628079E+01  0.20468984058E+02  0.23589244984E+02  0.00000000000E+00 0.  1.
</event>
<event>
 7    1  0.2755991E-011  0.5052885E+02  0.7816164E-02  0.1300439E+00
        -11   -1    0    0    0    0  0.00000000000E+00  0.00000000000E+00  0.45593999997E+02  0.45594000000E+02  0.51100000000E-03 0. -1.
         11   -1    0    0    0    0 -0.00000000000E+00 -0.00000000000E+00 -0.45593999997E+02  0.45594000000E+02  0.51100000000E-03 0.  1.
    9900012    2    1    2    0    0 -0.31058696633E+01 -0.35506936721E+02 -0.19564694305E+02  0.50528852875E+02  0.29999978798E+02 0.  0.
         12    1    1    2    0    0  0.31058696633E+01  0.35506936721E+02  0.19564694305E+02  0.40659147125E+02  0.00000000000E+00 0. -1.
         11    1    3    3    0    0  0.27601411240E+01 -0.21814830762E+02 -0.13856288888E+02  0.25990420585E+02  0.51100000000E-03 0. -1.
        -11    1    3    3    0    0 -0.25625506496E+01 -0.14710179496E+02 -0.10768940581E+02  0.18409946445E+02  0.51100000000E-03 0.  1.
         12    1    3    3    0    0 -0.33034601377E+01  0.10180735363E+01  0.50605351628E+01  0.61284858441E+01  0.00000000000E+00 0. -1.
</event>
<event>
 7    1  0.2755991E-011  0.5052886E+02  0.7816164E-02  0.1300439E+00
        -11   -1    0    0    0    0  0.00000000000E+00  0.00000000000E+00  0.45593999997E+02  0.45594000000E+02  0.51100000000E-03 0.  1.
         11   -1    0    0    0    0 -0.00000000000E+00 -0.00000000000E+00 -0.45593999997E+02  0.45594000000E+02  0.51100000000E-03 0. -1.
    9900012    2    1    2    0    0 -0.10526179284E+02  0.17826640712E+02  0.34993940533E+02  0.50528862732E+02  0.30000008760E+02 0.  0.
         12    1    1    2    0    0  0.10526179284E+02 -0.17826640712E+02 -0.34993940533E+02  0.40659137268E+02  0.00000000000E+00 0. -1.
         11    1    3    3    0    0  0.77411892952E+01  0.15591051720E+01  0.15446970949E+02  0.17348363969E+02  0.51100000000E-03 0. -1.
        -11    1    3    3    0    0 -0.21675138616E+01 -0.11688995233E+01  0.43516957887E+01  0.50001698906E+01  0.51100000000E-03 0.  1.
         12    1    3    3    0    0 -0.16099854718E+02  0.17436435063E+02  0.15195273795E+02  0.28180328872E+02  0.00000000000E+00 0. -1.
</event>
<event>
 7    1  0.2755991E-011  0.5052885E+02  0.7816164E-02  0.1300439E+00
        -11   -1    0    0    0    0  0.00000000000E+00  0.00000000000E+00  0.45593999997E+02  0.45594000000E+02  0.51100000000E-03 0. -1.
         11   -1    0    0    0    0 -0.00000000000E+00 -0.00000000000E+00 -0.45593999997E+02  0.45594000000E+02  0.51100000000E-03 0.  1.
    9900012    2    1    2    0    0  0.39958531905E+02  0.24936104694E+01 -0.70896962705E+01  0.50528853940E+02  0.29999982035E+02 0.  0.
         12    1    1    2    0    0 -0.39958531905E+02 -0.24936104694E+01  0.70896962705E+01  0.40659146060E+02  0.00000000000E+00 0. -1.
         11    1    3    3    0    0  0.22100504093E+01 -0.54960960272E+00 -0.69967370803E+01  0.73580380237E+01  0.51100000000E-03 0. -1.
        -11    1    3    3    0    0  0.18433305219E+02  0.16126830770E+01  0.10313725633E+02  0.21183966217E+02  0.51100000000E-03 0.  1.
         12    1    3    3    0    0  0.19315176276E+02  0.14305369952E+01 -0.10406684823E+02  0.21986849699E+02  0.00000000000E+00 0. -1.
</event>
<event>
 7    1  0.2755991E-011  0.5052886E+02  0.7816164E-02  0.1300439E+00
        -11   -1    0    0    0    0  0.00000000000E+00  0.00000000000E+00  0.45593999997E+02  0.45594000000E+02  0.51100000000E-03 0.  1.
         11   -1    0    0    0    0 -0.00000000000E+00 -0.00000000000E+00 -0.45593999997E+02  0.45594000000E+02  0.51100000000E-03 0. -1.
    9900012    2    1    2    0    0 -0.10365144871E+02 -0.38216597111E+02  0.92315296632E+01  0.50528860033E+02  0.30000000556E+02 0.  0.
         12    1    1    2    0    0  0.10365144871E+02  0.38216597111E+02 -0.92315296632E+01  0.40659139967E+02  0.00000000000E+00 0. -1.
         11    1    3    3    0    0 -0.33557998687E+01 -0.23694996265E+02 -0.79956539341E-01  0.23931582356E+02  0.51100000000E-03 0. -1.
        -11    1    3    3    0    0 -0.31334219538E+01 -0.11173936884E+02 -0.40472371936E+01  0.12290456777E+02  0.51100000000E-03 0.  1.
         12    1    3    3    0    0 -0.38759230484E+01 -0.33476639620E+01  0.13358723396E+02  0.14306820900E+02  0.00000000000E+00 0. -1.
</event>
<event>
 7    1  0.3291031E-011  0.5052885E+02  0.7816164E-02  0.1300439E+00
        -11   -1    0    0    0    0  0.00000000000E+00  0.00000000000E+00  0.45593999997E+02  0.45594000000E+02  0.51100000000E-03 0. -1.
         11   -1    0    0    0    0 -0.00000000000E+00 -0.00000000000E+00 -0.45593999997E+02  0.45594000000E+02  0.51100000000E-03 0.  1.
    9900012    2    1    2    0    0  0.20141234750E+02 -0.34390765575E+02 -0.80481069752E+01  0.50528854411E+02  0.29999983469E+02 0.  0.
         12    1    1    2    0    0 -0.20141234750E+02  0.34390765575E+02  0.80481069752E+01  0.40659145589E+02  0.00000000000E+00 0. -1.
         11    1    3    3    0    0 -0.37074833101E+01 -0.76199270517E+01 -0.82718810167E+01  0.11841990398E+02  0.51100000000E-03 0. -1.
        -11    1    3    3    0    0  0.13161057206E+02 -0.71509803286E+01 -0.49101431223E+01  0.15762596619E+02  0.51100000000E-03 0.  1.
        -12    1    3    3    0    0  0.10687660854E+02 -0.19619858195E+02  0.51339171638E+01  0.22924267394E+02  0.00000000000E+00 0.  1.
</event>
<event>
 7    1  0.2755991E-011  0.5052890E+02  0.7816164E-02  0.1300439E+00
        -11   -1    0    0    0    0  0.00000000000E+00  0.00000000000E+00  0.45593999997E+02  0.45594000000E+02  0.51100000000E-03 0.  1.
         11   -1    0    0    0    0 -0.00000000000E+00 -0.00000000000E+00 -0.45593999997E+02  0.45594000000E+02  0.51100000000E-03 0. -1.
    9900012    2    1    2    0    0  0.22904210883E+02 -0.24682296077E+02  0.22789123841E+02  0.50528895469E+02  0.30000108269E+02 0.  0.
         12    1    1    2    0    0 -0.22904210883E+02  0.24682296077E+02 -0.22789123841E+02  0.40659104531E+02  0.00000000000E+00 0. -1.
         11    1    3    3    0    0  0.64177783200E+01 -0.11497696206E+01 -0.26926454496E+01  0.70540901982E+01  0.51100000000E-03 0. -1.
        -11    1    3    3    0    0  0.97298921030E+01 -0.61252273408E+01 -0.46603578461E+00  0.11506797988E+02  0.51100000000E-03 0.  1.
        -12    1    3    3    0    0  0.67565404596E+01 -0.17407299116E+02  0.25947805075E+02  0.31968007284E+02  0.00000000000E+00 0.  1.
</event>
<event>
 7    1  0.2755991E-011  0.5052886E+02  0.7816164E-02  0.1300439E+00
        -11   -1    0    0    0    0  0.00000000000E+00  0.00000000000E+00  0.45593999997E+02  0.45594000000E+02  0.51100000000E-03 0.  1.
         11   -1    0    0    0    0 -0.00000000000E+00 -0.00000000000E+00 -0.45593999997E+02  0.45594000000E+02  0.51100000000E-03 0. -1.
    9900012    2    1    2    0    0  0.18675466766E+02 -0.26064333302E+02  0.25000864544E+02  0.50528858872E+02  0.29999997026E+02 0.  0.
         12    1    1    2    0    0 -0.18675466766E+02  0.26064333302E+02 -0.25000864544E+02  0.40659141128E+02  0.00000000000E+00 0. -1.
         11    1    3    3    0    0  0.59350902097E+01 -0.18935525998E+02  0.23897930457E+02  0.31062686957E+02  0.51100000000E-03 0.  1.
        -11    1    3    3    0    0  0.10666814176E+02 -0.10593274352E+02  0.24037432121E+01  0.15224203357E+02  0.51100000000E-03 0. -1.
        -12    1    3    3    0    0  0.20735623798E+01  0.34644670477E+01 -0.13008091250E+01  0.42419685580E+01  0.00000000000E+00 0.  1.
</event>
<event>
 7    1  0.2755991E-011  0.5052890E+02  0.7816164E-02  0.1300439E+00
        -11   -1    0    0    0    0  0.00000000000E+00  0.00000000000E+00  0.45593999997E+02  0.45594000000E+02  0.51100000000E-03 0.  1.
         11   -1    0    0    0    0 -0.00000000000E+00 -0.00000000000E+00 -0.45593999997E+02  0.45594000000E+02  0.51100000000E-03 0. -1.
    9900012    2    1    2    0    0  0.62754384000E+01  0.33349488697E+02  0.22396269912E+02  0.50528899795E+02  0.30000121418E+02 0.  0.
         12    1    1    2    0    0 -0.62754384000E+01 -0.33349488697E+02 -0.22396269912E+02  0.40659100205E+02  0.00000000000E+00 0. -1.
         11    1    3    3    0    0 -0.55121262842E+01  0.30050771158E+01  0.91545909244E+01  0.11100475661E+02  0.51100000000E-03 0. -1.
        -11    1    3    3    0    0  0.15349992951E+01  0.12920168334E+02  0.14109708147E+02  0.19192989264E+02  0.51100000000E-03 0.  1.
        -12    1    3    3    0    0  0.10252565389E+02  0.17424243247E+02 -0.86802915928E+00  0.20235434871E+02  0.00000000000E+00 0.  1.
</event>
<event>
 7    1  0.2755991E-011  0.5052886E+02  0.7816164E-02  0.1300439E+00
        -11   -1    0    0    0    0  0.00000000000E+00  0.00000000000E+00  0.45593999997E+02  0.45594000000E+02  0.51100000000E-03 0.  1.
         11   -1    0    0    0    0 -0.00000000000E+00 -0.00000000000E+00 -0.45593999997E+02  0.45594000000E+02  0.51100000000E-03 0. -1.
    9900012    2    1    2    0    0 -0.13974915286E+02 -0.81210465930E+01  0.37308395689E+02  0.50528855347E+02  0.29999986313E+02 0.  0.
         12    1    1    2    0    0  0.13974915286E+02  0.81210465930E+01 -0.37308395689E+02  0.40659144653E+02  0.00000000000E+00 0. -1.
         11    1    3    3    0    0 -0.49359952897E+01  0.41933860819E+01  0.14525300448E+02  0.15903863986E+02  0.51100000000E-03 0. -1.
        -11    1    3    3    0    0 -0.13243461905E+02 -0.49290141390E+00  0.14197851913E+02  0.19421926636E+02  0.51100000000E-03 0.  1.
        -12    1    3    3    0    0  0.42045419092E+01 -0.11821531261E+02  0.85852433281E+01  0.15203064725E+02  0.00000000000E+00 0.  1.
</event>
<event>
 7    1  0.2755991E-011  0.5052889E+02  0.7816164E-02  0.1300439E+00
        -11   -1    0    0    0    0  0.00000000000E+00  0.00000000000E+00  0.45593999997E+02  0.45594000000E+02  0.51100000000E-03 0.  1.
         11   -1    0    0    0    0 -0.00000000000E+00 -0.00000000000E+00 -0.45593999997E+02  0.45594000000E+02  0.51100000000E-03 0. -1.
    9900012    2    1    2    0    0 -0.10682239296E+02 -0.22172564365E+02  0.32364026827E+02  0.50528891803E+02  0.30000097126E+02 0.  0.
         12    1    1    2    0    0  0.10682239296E+02  0.22172564365E+02 -0.32364026827E+02  0.40659108197E+02  0.00000000000E+00 0. -1.
         11    1    3    3    0    0  0.10097463030E+01 -0.17987765240E+02  0.14655575044E+02  0.23224236609E+02  0.51100000000E-03 0. -1.
        -11    1    3    3    0    0 -0.64533963232E+01 -0.10196716046E+02  0.69908095851E+01  0.13945994448E+02  0.51100000000E-03 0.  1.
         12    1    3    3    0    0 -0.52385892762E+01  0.60119169210E+01  0.10717642198E+02  0.13358660747E+02  0.00000000000E+00 0. -1.
</event>
<event>
 7    1  0.2755991E-011  0.5052880E+02  0.7816164E-02  0.1300439E+00
        -11   -1    0    0    0    0  0.00000000000E+00  0.00000000000E+00  0.45593999997E+02  0.45594000000E+02  0.51100000000E-03 0. -1.
         11   -1    0    0    0    0 -0.00000000000E+00 -0.00000000000E+00 -0.45593999997E+02  0.45594000000E+02  0.51100000000E-03 0.  1.
    9900012    2    1    2    0    0 -0.26004683538E+02  0.31074857724E+02 -0.33585905999E+01  0.50528800803E+02  0.29999820522E+02 0.  0.
         12    1    1    2    0    0  0.26004683538E+02 -0.31074857724E+02  0.33585905999E+01  0.40659199197E+02  0.00000000000E+00 0. -1.
         11    1    3    3    0    0  0.15987332282E+01  0.77606799079E+00 -0.63723079863E+00  0.18879334769E+01  0.51100000000E-03 0. -1.
        -11    1    3    3    0    0 -0.89581221538E+01  0.27947275623E+02  0.14755099141E+01  0.29384950179E+02  0.51100000000E-03 0.  1.
        -12    1    3    3    0    0 -0.18645294612E+02  0.23515141109E+01 -0.41968697153E+01  0.19255917148E+02  0.00000000000E+00 0.  1.
</event>
<event>
 7    1  0.2755991E-011  0.5052888E+02  0.7816164E-02  0.1300439E+00
        -11   -1    0    0    0    0  0.00000000000E+00  0.00000000000E+00  0.45593999997E+02  0.45594000000E+02  0.51100000000E-03 0.  1.
         11   -1    0    0    0    0 -0.00000000000E+00 -0.00000000000E+00 -0.45593999997E+02  0.45594000000E+02  0.51100000000E-03 0. -1.
    9900012    2    1    2    0    0  0.26288127094E+02 -0.89887615686E+01  0.29686711062E+02  0.50528877108E+02  0.30000052459E+02 0.  0.
         12    1    1    2    0    0 -0.26288127094E+02  0.89887615686E+01 -0.29686711062E+02  0.40659122892E+02  0.00000000000E+00 0. -1.
         11    1    3    3    0    0  0.10841960713E+00 -0.95986068227E+01  0.13036584764E+02  0.16189427115E+02  0.51100000000E-03 0. -1.
        -11    1    3    3    0    0  0.20123574332E+02 -0.58578720584E+01  0.13525427395E+02  0.24944139500E+02  0.51100000000E-03 0.  1.
        -12    1    3    3    0    0  0.60561331554E+01  0.64677173125E+01  0.31246989031E+01  0.93953104933E+01  0.00000000000E+00 0.  1.
</event>
<event>
 7    1  0.2755991E-011  0.5052886E+02  0.7816164E-02  0.1300439E+00
        -11   -1    0    0    0    0  0.00000000000E+00  0.00000000000E+00  0.45593999997E+02  0.45594000000E+02  0.51100000000E-03 0.  1.
         11   -1    0    0    0    0 -0.00000000000E+00 -0.00000000000E+00 -0.45593999997E+02  0.45594000000E+02  0.51100000000E-03 0. -1.
    9900012    2    1    2    0    0  0.10435601818E+02 -0.21264882714E+02  0.33046458563E+02  0.50528862704E+02  0.30000008674E+02 0.  0.
         12    1    1    2    0    0 -0.10435601818E+02  0.21264882714E+02 -0.33046458563E+02  0.40659137296E+02  0.00000000000E+00 0. -1.
         11    1    3    3    0    0  0.28671313801E+01 -0.33806204612E+01  0.81927244917E+01  0.93150293565E+01  0.51100000000E-03 0. -1.
        -11    1    3    3    0    0  0.13800828303E+02 -0.15979817826E+01  0.17357454470E+02  0.22232805346E+02  0.51100000000E-03 0.  1.
         12    1    3    3    0    0 -0.62323578651E+01 -0.16286280470E+02  0.74962796013E+01  0.18981028001E+02  0.00000000000E+00 0. -1.
</event>
<event>
 7    1  0.2755991E-011  0.5052887E+02  0.7816164E-02  0.1300439E+00
        -11   -1    0    0    0    0  0.00000000000E+00  0.00000000000E+00  0.45593999997E+02  0.45594000000E+02  0.51100000000E-03 0.  1.
         11   -1    0    0    0    0 -0.00000000000E+00 -0.00000000000E+00 -0.45593999997E+02  0.45594000000E+02  0.51100000000E-03 0. -1.
    9900012    2    1    2    0    0 -0.17544236716E+02  0.20844708216E+02  0.30180508227E+02  0.50528865978E+02  0.30000018627E+02 0.  0.
         12    1    1    2    0    0  0.17544236716E+02 -0.20844708216E+02 -0.30180508227E+02  0.40659134022E+02  0.00000000000E+00 0. -1.
         11    1    3    3    0    0 -0.42630646160E+01  0.85221752870E+01 -0.35646423255E+01  0.10173881595E+02  0.51100000000E-03 0. -1.
        -11    1    3    3    0    0 -0.22031989336E+01  0.98307563917E+01  0.10894933502E+02  0.14839050949E+02  0.51100000000E-03 0.  1.
         12    1    3    3    0    0 -0.11077973167E+02  0.24917765372E+01  0.22850217050E+02  0.25515933434E+02  0.00000000000E+00 0. -1.
</event>
<event>
 7    1  0.2755991E-011  0.5052886E+02  0.7816164E-02  0.1300439E+00
        -11   -1    0    0    0    0  0.00000000000E+00  0.00000000000E+00  0.45593999997E+02  0.45594000000E+02  0.51100000000E-03 0.  1.
         11   -1    0    0    0    0 -0.00000000000E+00 -0.00000000000E+00 -0.45593999997E+02  0.45594000000E+02  0.51100000000E-03 0. -1.
    9900012    2    1    2    0    0 -0.29019814386E+02 -0.26322403706E+02 -0.10869544437E+02  0.50528861297E+02  0.30000004398E+02 0.  0.
         12    1    1    2    0    0  0.29019814386E+02  0.26322403706E+02  0.10869544437E+02  0.40659138703E+02  0.00000000000E+00 0. -1.
         11    1    3    3    0    0 -0.12817682343E+02 -0.18644889123E+01 -0.91001541710E+01  0.15829785398E+02  0.51100000000E-03 0. -1.
        -11    1    3    3    0    0 -0.40134555022E+01  0.22369600998E+01  0.21852502576E+01  0.50879401044E+01  0.51100000000E-03 0.  1.
         12    1    3    3    0    0 -0.12188676541E+02 -0.26694874893E+02 -0.39546405237E+01  0.29611135794E+02  0.00000000000E+00 0. -1.
</event>
<event>
 7    1  0.2755991E-011  0.5052886E+02  0.7816164E-02  0.1300439E+00
        -11   -1    0    0    0    0  0.00000000000E+00  0.00000000000E+00  0.45593999997E+02  0.45594000000E+02  0.51100000000E-03 0.  1.
         11   -1    0    0    0    0 -0.00000000000E+00 -0.00000000000E+00 -0.45593999997E+02  0.45594000000E+02  0.51100000000E-03 0. -1.
    9900012    2    1    2    0    0  0.16841132286E+02 -0.26554312409E+02  0.25776157895E+02  0.50528861298E+02  0.30000004400E+02 0.  0.
         12    1    1    2    0    0 -0.16841132286E+02  0.26554312409E+02 -0.25776157895E+02  0.40659138702E+02  0.00000000000E+00 0. -1.
         11    1    3    3    0    0  0.79481109896E+01 -0.10140176790E+02  0.19631743408E+02  0.23481929289E+02  0.51100000000E-03 0. -1.
        -11    1    3    3    0    0  0.70111678414E+01 -0.97774443804E+01  0.12725671078E+02  0.17512783838E+02  0.51100000000E-03 0.  1.
         12    1    3    3    0    0  0.18818534553E+01 -0.66366912385E+01 -0.65812565908E+01  0.95341481705E+01  0.00000000000E+00 0. -1.
</event>
<event>
 7    1  0.2755991E-011  0.5052887E+02  0.7816164E-02  0.1300439E+00
        -11   -1    0    0    0    0  0.00000000000E+00  0.00000000000E+00  0.45593999997E+02  0.45594000000E+02  0.51100000000E-03 0.  1.
         11   -1    0    0    0    0 -0.00000000000E+00 -0.00000000000E+00 -0.45593999997E+02  0.45594000000E+02  0.51100000000E-03 0. -1.
    9900012    2    1    2    0    0 -0.12444997117E+02 -0.22675582372E+02  0.31370450425E+02  0.50528866352E+02  0.30000019764E+02 0.  0.
         12    1    1    2    0    0  0.12444997117E+02  0.22675582372E+02 -0.31370450425E+02  0.40659133648E+02  0.00000000000E+00 0. -1.
         11    1    3    3    0    0 -0.16386858284E+01 -0.24317868903E+01 -0.74975247134E+00  0.30267156710E+01  0.51100000000E-03 0. -1.
        -11    1    3    3    0    0  0.35454776743E+01 -0.12543312832E+02  0.19001572326E+01  0.13172536070E+02  0.51100000000E-03 0.  1.
        -12    1    3    3    0    0 -0.14351788963E+02 -0.77004826493E+01  0.30220045663E+02  0.34329614611E+02  0.00000000000E+00 0.  1.
</event>
<event>
 7    1  0.2755991E-011  0.5052886E+02  0.7816164E-02  0.1300439E+00
        -11   -1    0    0    0    0  0.00000000000E+00  0.00000000000E+00  0.45593999997E+02  0.45594000000E+02  0.51100000000E-03 0. -1.
         11   -1    0    0    0    0 -0.00000000000E+00 -0.00000000000E+00 -0.45593999997E+02  0.45594000000E+02  0.51100000000E-03 0.  1.
    9900012    2    1    2    0    0  0.31539849419E+02  0.22057592689E+02  0.13109771491E+02  0.50528860743E+02  0.30000002713E+02 0.  0.
         12    1    1    2    0    0 -0.31539849419E+02 -0.22057592689E+02 -0.13109771491E+02  0.40659139257E+02  0.00000000000E+00 0. -1.
         11    1    3    3    0    0  0.19103320694E+02  0.91510042360E+00  0.72301502198E+01  0.20446254982E+02  0.51100000000E-03 0. -1.
        -11    1    3    3    0    0  0.50451132532E+01  0.68592768008E+00 -0.37217702830E+01  0.63067613575E+01  0.51100000000E-03 0.  1.
        -12    1    3    3    0    0  0.73914154720E+01  0.20456564585E+02  0.96013915541E+01  0.23775844403E+02  0.00000000000E+00 0.  1.
</event>
<event>
 7    1  0.2755991E-011  0.5052886E+02  0.7816164E-02  0.1300439E+00
        -11   -1    0    0    0    0  0.00000000000E+00  0.00000000000E+00  0.45593999997E+02  0.45594000000E+02  0.51100000000E-03 0.  1.
         11   -1    0    0    0    0 -0.00000000000E+00 -0.00000000000E+00 -0.45593999997E+02  0.45594000000E+02  0.51100000000E-03 0. -1.
    9900012    2    1    2    0    0 -0.15555629078E+01  0.22223288695E+02  0.34012814425E+02  0.50528857344E+02  0.29999992383E+02 0.  0.
         12    1    1    2    0    0  0.15555629078E+01 -0.22223288695E+02 -0.34012814425E+02  0.40659142656E+02  0.00000000000E+00 0. -1.
         11    1    3    3    0    0  0.13784111264E+01  0.12343065000E+02  0.11243187927E+02  0.16752926486E+02  0.51100000000E-03 0. -1.
        -11    1    3    3    0    0 -0.49813292526E+01  0.13440379064E+02  0.25209049679E+02  0.28999200273E+02  0.51100000000E-03 0.  1.
         12    1    3    3    0    0  0.20473552184E+01 -0.35601553682E+01 -0.24394231802E+01  0.47767305857E+01  0.00000000000E+00 0. -1.
</event>
<event>
 7    1  0.2755991E-011  0.5052886E+02  0.7816164E-02  0.1300439E+00
        -11   -1    0    0    0    0  0.00000000000E+00  0.00000000000E+00  0.45593999997E+02  0.45594000000E+02  0.51100000000E-03 0. -1.
         11   -1    0    0    0    0 -0.00000000000E+00 -0.00000000000E+00 -0.45593999997E+02  0.45594000000E+02  0.51100000000E-03 0.  1.
    9900012    2    1    2    0    0 -0.37470360642E+02  0.53817078755E+01 -0.14838293691E+02  0.50528859995E+02  0.30000000440E+02 0.  0.
         12    1    1    2    0    0  0.37470360642E+02 -0.53817078755E+01  0.14838293691E+02  0.40659140005E+02  0.00000000000E+00 0. -1.
         11    1    3    3    0    0  0.12665268288E+01  0.15424794124E+01  0.42812369682E+01  0.47235921908E+01  0.51100000000E-03 0. -1.
        -11    1    3    3    0    0 -0.25564751438E+01 -0.15471985343E+01  0.19727196415E+01  0.35806440078E+01  0.51100000000E-03 0.  1.
        -12    1    3    3    0    0 -0.36180412327E+02  0.53864269974E+01 -0.21092250301E+02  0.42224623796E+02  0.00000000000E+00 0.  1.
</event>
<event>
 7    1  0.2755991E-011  0.5052886E+02  0.7816164E-02  0.1300439E+00
        -11   -1    0    0    0    0  0.00000000000E+00  0.00000000000E+00  0.45593999997E+02  0.45594000000E+02  0.51100000000E-03 0.  1.
         11   -1    0    0    0    0 -0.00000000000E+00 -0.00000000000E+00 -0.45593999997E+02  0.45594000000E+02  0.51100000000E-03 0. -1.
    9900012    2    1    2    0    0  0.30101088053E+01  0.10201088871E+02  0.39243375351E+02  0.50528862305E+02  0.30000007462E+02 0.  0.
         12    1    1    2    0    0 -0.30101088053E+01 -0.10201088871E+02 -0.39243375351E+02  0.40659137695E+02  0.00000000000E+00 0. -1.
         11    1    3    3    0    0  0.35647437791E+01 -0.69558408035E+01  0.20213338523E+01  0.80732218040E+01  0.51100000000E-03 0. -1.
        -11    1    3    3    0    0 -0.82643690500E+00  0.10875288522E+02  0.11000589971E+02  0.15490896628E+02  0.51100000000E-03 0.  1.
        -12    1    3    3    0    0  0.27180193118E+00  0.62816411531E+01  0.26221451528E+02  0.26964743872E+02  0.00000000000E+00 0.  1.
</event>
<event>
 7    1  0.2755991E-011  0.5052886E+02  0.7816164E-02  0.1300439E+00
        -11   -1    0    0    0    0  0.00000000000E+00  0.00000000000E+00  0.45593999997E+02  0.45594000000E+02  0.51100000000E-03 0. -1.
         11   -1    0    0    0    0 -0.00000000000E+00 -0.00000000000E+00 -0.45593999997E+02  0.45594000000E+02  0.51100000000E-03 0.  1.
    9900012    2    1    2    0    0  0.31707835720E+02  0.24949853121E+02 -0.50283204230E+01  0.50528855603E+02  0.29999987091E+02 0.  0.
         12    1    1    2    0    0 -0.31707835720E+02 -0.24949853121E+02  0.50283204230E+01  0.40659144397E+02  0.00000000000E+00 0. -1.
         11    1    3    3    0    0  0.36202978034E+01 -0.35353539446E+01 -0.53634776843E+01  0.73737491706E+01  0.51100000000E-03 0. -1.
        -11    1    3    3    0    0  0.92994973783E+01  0.24378879066E+01 -0.46073873898E+01  0.10660767691E+02  0.51100000000E-03 0.  1.
        -12    1    3    3    0    0  0.18788040538E+02  0.26047319159E+02  0.49425446512E+01  0.32494338742E+02  0.00000000000E+00 0.  1.
</event>
<event>
 7    1  0.2755991E-011  0.5052886E+02  0.7816164E-02  0.1300439E+00
        -11   -1    0    0    0    0  0.00000000000E+00  0.00000000000E+00  0.45593999997E+02  0.45594000000E+02  0.51100000000E-03 0.  1.
         11   -1    0    0    0    0 -0.00000000000E+00 -0.00000000000E+00 -0.45593999997E+02  0.45594000000E+02  0.51100000000E-03 0. -1.
    9900012    2    1    2    0    0  0.29227045026E+01  0.40128665489E+02  0.58577603500E+01  0.50528863857E+02  0.30000012181E+02 0.  0.
         12    1    1    2    0    0 -0.29227045026E+01 -0.40128665489E+02 -0.58577603500E+01  0.40659136143E+02  0.00000000000E+00 0. -1.
         11    1    3    3    0    0 -0.71191965759E+01  0.58145011430E+01  0.48466038401E+01  0.10391388380E+02  0.51100000000E-03 0. -1.
        -11    1    3    3    0    0 -0.36418843574E+01  0.15431835269E+01 -0.21180385400E+01  0.44867387475E+01  0.51100000000E-03 0.  1.
        -12    1    3    3    0    0  0.13683785436E+02  0.32770980819E+02  0.31291950499E+01  0.35650736730E+02  0.00000000000E+00 0.  1.
</event>
<event>
 7    1  0.2755991E-011  0.5052886E+02  0.7816164E-02  0.1300439E+00
        -11   -1    0    0    0    0  0.00000000000E+00  0.00000000000E+00  0.45593999997E+02  0.45594000000E+02  0.51100000000E-03 0. -1.
         11   -1    0    0    0    0 -0.00000000000E+00 -0.00000000000E+00 -0.45593999997E+02  0.45594000000E+02  0.51100000000E-03 0.  1.
    9900012    2    1    2    0    0 -0.58285104840E+01  0.10939172825E+02 -0.38723747836E+02  0.50528859785E+02  0.29999999801E+02 0.  0.
         12    1    1    2    0    0  0.58285104840E+01 -0.10939172825E+02  0.38723747836E+02  0.40659140215E+02  0.00000000000E+00 0. -1.
         11    1    3    3    0    0 -0.56037339903E+01  0.73173434735E+01 -0.31804015431E+01  0.97498874034E+01  0.51100000000E-03 0. -1.
        -11    1    3    3    0    0  0.77615003829E+01  0.77400336922E+01 -0.18193184551E+02  0.21240079428E+02  0.51100000000E-03 0.  1.
        -12    1    3    3    0    0 -0.79862768765E+01 -0.41182043407E+01 -0.17350161743E+02  0.19538892953E+02  0.00000000000E+00 0.  1.
</event>
<event>
 7    1  0.2755991E-011  0.5052887E+02  0.7816164E-02  0.1300439E+00
        -11   -1    0    0    0    0  0.00000000000E+00  0.00000000000E+00  0.45593999997E+02  0.45594000000E+02  0.51100000000E-03 0.  1.
         11   -1    0    0    0    0 -0.00000000000E+00 -0.00000000000E+00 -0.45593999997E+02  0.45594000000E+02  0.51100000000E-03 0. -1.
    9900012    2    1    2    0    0 -0.12378806421E+02 -0.33667883078E+02  0.19141676188E+02  0.50528868594E+02  0.30000026580E+02 0.  0.
         12    1    1    2    0    0  0.12378806421E+02  0.33667883078E+02 -0.19141676188E+02  0.40659131406E+02  0.00000000000E+00 0. -1.
         11    1    3    3    0    0 -0.25133796386E+01 -0.28411507989E+01  0.28948662868E+01  0.47717361777E+01  0.51100000000E-03 0.  1.
        -11    1    3    3    0    0  0.32780098164E+01 -0.22156430675E+02 -0.97944416542E+00  0.22419011569E+02  0.51100000000E-03 0. -1.
         12    1    3    3    0    0 -0.13143436599E+02 -0.86703016046E+01  0.17226254066E+02  0.23338120848E+02  0.00000000000E+00 0. -1.
</event>
<event>
 7    1  0.2755991E-011  0.5052887E+02  0.7816164E-02  0.1300439E+00
        -11   -1    0    0    0    0  0.00000000000E+00  0.00000000000E+00  0.45593999997E+02  0.45594000000E+02  0.51100000000E-03 0.  1.
         11   -1    0    0    0    0 -0.00000000000E+00 -0.00000000000E+00 -0.45593999997E+02  0.45594000000E+02  0.51100000000E-03 0. -1.
    9900012    2    1    2    0    0  0.89422049736E+01  0.38480489556E+02 -0.96152975752E+01  0.50528867524E+02  0.30000023326E+02 0.  0.
         12    1    1    2    0    0 -0.89422049736E+01 -0.38480489556E+02  0.96152975752E+01  0.40659132476E+02  0.00000000000E+00 0. -1.
         11    1    3    3    0    0  0.73653730242E+01  0.38103616459E+01  0.35260456233E+01  0.90111360914E+01  0.51100000000E-03 0. -1.
        -11    1    3    3    0    0  0.90812825908E+01  0.15103169680E+02 -0.18696041683E+01  0.17722044123E+02  0.51100000000E-03 0.  1.
         12    1    3    3    0    0 -0.75044506414E+01  0.19566958230E+02 -0.11271739030E+02  0.23795687310E+02  0.00000000000E+00 0. -1.
</event>
<event>
 7    1  0.2755991E-011  0.5052886E+02  0.7816164E-02  0.1300439E+00
        -11   -1    0    0    0    0  0.00000000000E+00  0.00000000000E+00  0.45593999997E+02  0.45594000000E+02  0.51100000000E-03 0. -1.
         11   -1    0    0    0    0 -0.00000000000E+00 -0.00000000000E+00 -0.45593999997E+02  0.45594000000E+02  0.51100000000E-03 0.  1.
    9900012    2    1    2    0    0  0.26277974162E+01  0.35974519102E+02  0.18764180090E+02  0.50528858367E+02  0.29999995493E+02 0.  0.
         12    1    1    2    0    0 -0.26277974162E+01 -0.35974519102E+02 -0.18764180090E+02  0.40659141633E+02  0.00000000000E+00 0. -1.
         11    1    3    3    0    0 -0.16129464587E+01  0.11978827706E+01 -0.70901296273E+00  0.21305443091E+01  0.51100000000E-03 0. -1.
        -11    1    3    3    0    0  0.70485475489E+01  0.30408090309E+02  0.32721920169E+01  0.31385366330E+02  0.51100000000E-03 0.  1.
        -12    1    3    3    0    0 -0.28078036740E+01  0.43685460217E+01  0.16201001036E+02  0.17012947728E+02  0.00000000000E+00 0.  1.
</event>
<event>
 7    1  0.2755991E-011  0.5052885E+02  0.7816164E-02  0.1300439E+00
        -11   -1    0    0    0    0  0.00000000000E+00  0.00000000000E+00  0.45593999997E+02  0.45594000000E+02  0.51100000000E-03 0.  1.
         11   -1    0    0    0    0 -0.00000000000E+00 -0.00000000000E+00 -0.45593999997E+02  0.45594000000E+02  0.51100000000E-03 0. -1.
    9900012    2    1    2    0    0  0.37400811537E+02  0.93567299778E+01 -0.12914991693E+02  0.50528854536E+02  0.29999983846E+02 0.  0.
         12    1    1    2    0    0 -0.37400811537E+02 -0.93567299778E+01  0.12914991693E+02  0.40659145464E+02  0.00000000000E+00 0. -1.
         11    1    3    3    0    0  0.37537832761E+01 -0.19638580132E+01 -0.72613602270E+01  0.84068412491E+01  0.51100000000E-03 0. -1.
        -11    1    3    3    0    0  0.24936829218E+01  0.16520297951E+01 -0.88545312300E+01  0.93461425477E+01  0.51100000000E-03 0.  1.
        -12    1    3    3    0    0  0.31153345339E+02  0.96685581959E+01  0.32008997643E+01  0.32775870739E+02  0.00000000000E+00 0.  1.
</event>
<event>
 7    1  0.2755991E-011  0.5052886E+02  0.7816164E-02  0.1300439E+00
        -11   -1    0    0    0    0  0.00000000000E+00  0.00000000000E+00  0.45593999997E+02  0.45594000000E+02  0.51100000000E-03 0.  1.
         11   -1    0    0    0    0 -0.00000000000E+00 -0.00000000000E+00 -0.45593999997E+02  0.45594000000E+02  0.51100000000E-03 0. -1.
    9900012    2    1    2    0    0  0.16745322681E+02 -0.17411264247E+02  0.32704862375E+02  0.50528856165E+02  0.29999988801E+02 0.  0.
         12    1    1    2    0    0 -0.16745322681E+02  0.17411264247E+02 -0.32704862375E+02  0.40659143835E+02  0.00000000000E+00 0. -1.
         11    1    3    3    0    0 -0.46179339034E+01  0.99865440329E+00  0.28384146684E+01  0.55117349577E+01  0.51100000000E-03 0. -1.
        -11    1    3    3    0    0  0.13759754185E+02 -0.17075804068E+00  0.14452282182E+02  0.19955662206E+02  0.51100000000E-03 0.  1.
         12    1    3    3    0    0  0.76035023996E+01 -0.18239160609E+02  0.15414165524E+02  0.25061459002E+02  0.00000000000E+00 0. -1.
</event>
<event>
 7    1  0.2755991E-011  0.5052887E+02  0.7816164E-02  0.1300439E+00
        -11   -1    0    0    0    0  0.00000000000E+00  0.00000000000E+00  0.45593999997E+02  0.45594000000E+02  0.51100000000E-03 0.  1.
         11   -1    0    0    0    0 -0.00000000000E+00 -0.00000000000E+00 -0.45593999997E+02  0.45594000000E+02  0.51100000000E-03 0. -1.
    9900012    2    1    2    0    0 -0.75192633699E+01  0.37743012760E+01  0.39779146937E+02  0.50528865691E+02  0.30000017753E+02 0.  0.
         12    1    1    2    0    0  0.75192633699E+01 -0.37743012760E+01 -0.39779146937E+02  0.40659134309E+02  0.00000000000E+00 0. -1.
         11    1    3    3    0    0  0.47630032758E+01  0.10276345982E+01  0.61927525732E+01  0.78798742228E+01  0.51100000000E-03 0. -1.
        -11    1    3    3    0    0 -0.12457630287E+02 -0.76352787355E+01  0.25874486586E+02  0.29714964077E+02  0.51100000000E-03 0.  1.
         12    1    3    3    0    0  0.17536364152E+00  0.10381945413E+02  0.77119077779E+01  0.12934027391E+02  0.00000000000E+00 0. -1.
</event>
<event>
 7    1  0.2755991E-011  0.5052885E+02  0.7816164E-02  0.1300439E+00
        -11   -1    0    0    0    0  0.00000000000E+00  0.00000000000E+00  0.45593999997E+02  0.45594000000E+02  0.51100000000E-03 0.  1.
         11   -1    0    0    0    0 -0.00000000000E+00 -0.00000000000E+00 -0.45593999997E+02  0.45594000000E+02  0.51100000000E-03 0. -1.
    9900012    2    1    2    0    0  0.16266675805E+02 -0.35864086618E+02  0.10115788439E+02  0.50528848184E+02  0.29999964539E+02 0.  0.
         12    1    1    2    0    0 -0.16266675805E+02  0.35864086618E+02 -0.10115788439E+02  0.40659151816E+02  0.00000000000E+00 0. -1.
         11    1    3    3    0    0 -0.23188848371E+01 -0.11174355262E+01 -0.22946534973E+01  0.34483799061E+01  0.51100000000E-03 0. -1.
        -11    1    3    3    0    0  0.14222144440E+02 -0.31603724826E+02  0.12348181323E+01  0.34678373541E+02  0.51100000000E-03 0.  1.
         12    1    3    3    0    0  0.43634162022E+01 -0.31429262660E+01  0.11175623804E+02  0.12402094737E+02  0.00000000000E+00 0. -1.
</event>
<event>
 7    1  0.2755991E-011  0.5052897E+02  0.7816164E-02  0.1300438E+00
        -11   -1    0    0    0    0  0.00000000000E+00  0.00000000000E+00  0.45593999997E+02  0.45594000000E+02  0.51100000000E-03 0.  1.
         11   -1    0    0    0    0 -0.00000000000E+00 -0.00000000000E+00 -0.45593999997E+02  0.45594000000E+02  0.51100000000E-03 0. -1.
    9900012    2    1    2    0    0  0.30363424983E+02 -0.24091022886E+02 -0.12281766162E+02  0.50528969755E+02  0.30000334066E+02 0.  0.
         12    1    1    2    0    0 -0.30363424983E+02  0.24091022886E+02  0.12281766162E+02  0.40659030245E+02  0.00000000000E+00 0. -1.
         11    1    3    3    0    0 -0.21961059345E+01 -0.93133522227E+00 -0.16114945845E+00  0.23908651114E+01  0.51100000000E-03 0. -1.
        -11    1    3    3    0    0 -0.22059804603E+00  0.15777369026E+00  0.45754976099E+01  0.45835286270E+01  0.51100000000E-03 0.  1.
         12    1    3    3    0    0  0.32780128964E+02 -0.23317461354E+02 -0.16696114313E+02  0.43554576017E+02  0.00000000000E+00 0. -1.
</event>
<event>
 7    1  0.2755991E-011  0.5052885E+02  0.7816164E-02  0.1300439E+00
        -11   -1    0    0    0    0  0.00000000000E+00  0.00000000000E+00  0.45593999997E+02  0.45594000000E+02  0.51100000000E-03 0. -1.
         11   -1    0    0    0    0 -0.00000000000E+00 -0.00000000000E+00 -0.45593999997E+02  0.45594000000E+02  0.51100000000E-03 0.  1.
    9900012    2    1    2    0    0  0.33321177521E+02 -0.15018150080E+02 -0.17813493485E+02  0.50528852771E+02  0.29999978483E+02 0.  0.
         12    1    1    2    0    0 -0.33321177521E+02  0.15018150080E+02  0.17813493485E+02  0.40659147229E+02  0.00000000000E+00 0. -1.
         11    1    3    3    0    0  0.36122428623E-01 -0.10760908336E+02 -0.11696609121E+02  0.15893681708E+02  0.51100000000E-03 0. -1.
        -11    1    3    3    0    0  0.14293553178E+01 -0.10193740212E+01  0.71326902951E+00  0.18949757226E+01  0.51100000000E-03 0.  1.
         12    1    3    3    0    0  0.31855699775E+02 -0.32378677225E+01 -0.68301533937E+01  0.32740195340E+02  0.00000000000E+00 0. -1.
</event>
<event>
 7    1  0.3569752E-011  0.5052885E+02  0.7816164E-02  0.1300439E+00
        -11   -1    0    0    0    0  0.00000000000E+00  0.00000000000E+00  0.45593999997E+02  0.45594000000E+02  0.51100000000E-03 0.  1.
         11   -1    0    0    0    0 -0.00000000000E+00 -0.00000000000E+00 -0.45593999997E+02  0.45594000000E+02  0.51100000000E-03 0. -1.
    9900012    2    1    2    0    0 -0.35669110537E+02  0.18759908708E+02  0.53801929372E+01  0.50528854691E+02  0.29999984318E+02 0.  0.
         12    1    1    2    0    0  0.35669110537E+02 -0.18759908708E+02 -0.53801929372E+01  0.40659145309E+02  0.00000000000E+00 0. -1.
         11    1    3    3    0    0 -0.42595558042E+01  0.27761777311E+01  0.10841957171E+02  0.11974932735E+02  0.51100000000E-03 0.  1.
        -11    1    3    3    0    0 -0.47533905712E+01  0.60476683544E-01 -0.58036672189E+01  0.75020619033E+01  0.51100000000E-03 0. -1.
        -12    1    3    3    0    0 -0.26656164162E+02  0.15923254293E+02  0.34190298548E+00  0.31051860053E+02  0.00000000000E+00 0.  1.
</event>
<event>
 7    1  0.2755991E-011  0.5052885E+02  0.7816164E-02  0.1300439E+00
        -11   -1    0    0    0    0  0.00000000000E+00  0.00000000000E+00  0.45593999997E+02  0.45594000000E+02  0.51100000000E-03 0.  1.
         11   -1    0    0    0    0 -0.00000000000E+00 -0.00000000000E+00 -0.45593999997E+02  0.45594000000E+02  0.51100000000E-03 0. -1.
    9900012    2    1    2    0    0  0.88753967086E+01 -0.39825097700E+01  0.39478262463E+02  0.50528852716E+02  0.29999978315E+02 0.  0.
         12    1    1    2    0    0 -0.88753967086E+01  0.39825097700E+01 -0.39478262463E+02  0.40659147284E+02  0.00000000000E+00 0. -1.
         11    1    3    3    0    0 -0.34422720153E+01  0.39377625498E+01  0.26668786982E+02  0.27176817508E+02  0.51100000000E-03 0. -1.
        -11    1    3    3    0    0 -0.27607421129E+01 -0.10690661169E+01  0.18018956833E+01  0.34657506677E+01  0.51100000000E-03 0.  1.
        -12    1    3    3    0    0  0.15078410837E+02 -0.68512062029E+01  0.11007579798E+02  0.19886284540E+02  0.00000000000E+00 0.  1.
</event>
<event>
 7    1  0.2755991E-011  0.5052886E+02  0.7816164E-02  0.1300439E+00
        -11   -1    0    0    0    0  0.00000000000E+00  0.00000000000E+00  0.45593999997E+02  0.45594000000E+02  0.51100000000E-03 0.  1.
         11   -1    0    0    0    0 -0.00000000000E+00 -0.00000000000E+00 -0.45593999997E+02  0.45594000000E+02  0.51100000000E-03 0. -1.
    9900012    2    1    2    0    0  0.23826508287E+02 -0.30716796255E+02  0.11913924463E+02  0.50528860001E+02  0.30000000459E+02 0.  0.
         12    1    1    2    0    0 -0.23826508287E+02  0.30716796255E+02 -0.11913924463E+02  0.40659139999E+02  0.00000000000E+00 0. -1.
         11    1    3    3    0    0 -0.10025244552E+01  0.18514904101E+01 -0.37606327395E+01  0.43099223757E+01  0.51100000000E-03 0. -1.
        -11    1    3    3    0    0  0.28666436279E+01  0.12420675646E+01  0.16419017483E+01  0.35293369259E+01  0.51100000000E-03 0.  1.
         12    1    3    3    0    0  0.21962389115E+02 -0.33810354230E+02  0.14032655454E+02  0.42689600699E+02  0.00000000000E+00 0. -1.
</event>
<event>
 7    1  0.2755991E-011  0.5052886E+02  0.7816164E-02  0.1300439E+00
        -11   -1    0    0    0    0  0.00000000000E+00  0.00000000000E+00  0.45593999997E+02  0.45594000000E+02  0.51100000000E-03 0.  1.
         11   -1    0    0    0    0 -0.00000000000E+00 -0.00000000000E+00 -0.45593999997E+02  0.45594000000E+02  0.51100000000E-03 0. -1.
    9900012    2    1    2    0    0 -0.53640845070E+01  0.39345157056E+02  0.87378954407E+01  0.50528860768E+02  0.30000002790E+02 0.  0.
         12    1    1    2    0    0  0.53640845070E+01 -0.39345157056E+02 -0.87378954407E+01  0.40659139232E+02  0.00000000000E+00 0. -1.
         11    1    3    3    0    0 -0.83836801122E+01  0.12899871809E+02  0.23169556686E+01  0.15558311886E+02  0.51100000000E-03 0. -1.
        -11    1    3    3    0    0 -0.84340587119E+01  0.76672240001E+01 -0.16989107015E+01  0.11524147173E+02  0.51100000000E-03 0.  1.
         12    1    3    3    0    0  0.11453654317E+02  0.18778061246E+02  0.81198504736E+01  0.23446401709E+02  0.00000000000E+00 0. -1.
</event>
<event>
 7    1  0.2755991E-011  0.5052886E+02  0.7816164E-02  0.1300439E+00
        -11   -1    0    0    0    0  0.00000000000E+00  0.00000000000E+00  0.45593999997E+02  0.45594000000E+02  0.51100000000E-03 0.  1.
         11   -1    0    0    0    0 -0.00000000000E+00 -0.00000000000E+00 -0.45593999997E+02  0.45594000000E+02  0.51100000000E-03 0. -1.
    9900012    2    1    2    0    0  0.24405270100E+02 -0.32213108703E+02  0.44569251983E+01  0.50528858799E+02  0.29999996806E+02 0.  0.
         12    1    1    2    0    0 -0.24405270100E+02  0.32213108703E+02 -0.44569251983E+01  0.40659141201E+02  0.00000000000E+00 0. -1.
         11    1    3    3    0    0  0.18667091153E+01 -0.43538034386E+01  0.37662363635E+00  0.47520577572E+01  0.51100000000E-03 0.  1.
        -11    1    3    3    0    0 -0.28744672930E+00 -0.18131660868E+02  0.93627571449E+01  0.20408355472E+02  0.51100000000E-03 0. -1.
         12    1    3    3    0    0  0.22826007714E+02 -0.97276443966E+01 -0.52824555829E+01  0.25368445570E+02  0.00000000000E+00 0. -1.
</event>
<event>
 7    1  0.2755991E-011  0.5052884E+02  0.7816164E-02  0.1300439E+00
        -11   -1    0    0    0    0  0.00000000000E+00  0.00000000000E+00  0.45593999997E+02  0.45594000000E+02  0.51100000000E-03 0. -1.
         11   -1    0    0    0    0 -0.00000000000E+00 -0.00000000000E+00 -0.45593999997E+02  0.45594000000E+02  0.51100000000E-03 0.  1.
    9900012    2    1    2    0    0 -0.12609528202E+02 -0.36217397088E+02 -0.13508041857E+02  0.50528840538E+02  0.29999941301E+02 0.  0.
         12    1    1    2    0    0  0.12609528202E+02  0.36217397088E+02  0.13508041857E+02  0.40659159462E+02  0.00000000000E+00 0. -1.
         11    1    3    3    0    0 -0.13869375203E+02 -0.65125528404E+01 -0.79060866759E+01  0.17241784125E+02  0.51100000000E-03 0. -1.
        -11    1    3    3    0    0 -0.18769955396E+01 -0.95031540247E+01  0.42681320307E+01  0.10585367257E+02  0.51100000000E-03 0.  1.
         12    1    3    3    0    0  0.31368425409E+01 -0.20201690223E+02 -0.98700872114E+01  0.22701689156E+02  0.00000000000E+00 0. -1.
</event>
<event>
 7    1  0.2755991E-011  0.5052886E+02  0.7816164E-02  0.1300439E+00
        -11   -1    0    0    0    0  0.00000000000E+00  0.00000000000E+00  0.45593999997E+02  0.45594000000E+02  0.51100000000E-03 0.  1.
         11   -1    0    0    0    0 -0.00000000000E+00 -0.00000000000E+00 -0.45593999997E+02  0.45594000000E+02  0.51100000000E-03 0. -1.
    9900012    2    1    2    0    0  0.31672264165E+02 -0.18060400830E+02  0.17995987113E+02  0.50528856531E+02  0.29999989911E+02 0.  0.
         12    1    1    2    0    0 -0.31672264165E+02  0.18060400830E+02 -0.17995987113E+02  0.40659143469E+02  0.00000000000E+00 0. -1.
         11    1    3    3    0    0  0.29665984449E+01 -0.42206352297E+01  0.88475127192E+01  0.10241725912E+02  0.51100000000E-03 0. -1.
        -11    1    3    3    0    0  0.76028557397E+01 -0.79495344737E+01  0.14042356097E+02  0.17837776733E+02  0.51100000000E-03 0.  1.
        -12    1    3    3    0    0  0.21102809980E+02 -0.58902311268E+01 -0.48938817032E+01  0.22449353886E+02  0.00000000000E+00 0.  1.
</event>
<event>
 7    1  0.2755991E-011  0.5052886E+02  0.7816164E-02  0.1300439E+00
        -11   -1    0    0    0    0  0.00000000000E+00  0.00000000000E+00  0.45593999997E+02  0.45594000000E+02  0.51100000000E-03 0.  1.
         11   -1    0    0    0    0 -0.00000000000E+00 -0.00000000000E+00 -0.45593999997E+02  0.45594000000E+02  0.51100000000E-03 0. -1.
    9900012    2    1    2    0    0 -0.19367787215E+02 -0.20114065523E+02  0.29554672754E+02  0.50528862096E+02  0.30000006828E+02 0.  0.
         12    1    1    2    0    0  0.19367787215E+02  0.20114065523E+02 -0.29554672754E+02  0.40659137904E+02  0.00000000000E+00 0. -1.
         11    1    3    3    0    0 -0.36195741804E+01  0.42761780187E+01  0.12213772821E+01  0.57340019551E+01  0.51100000000E-03 0. -1.
        -11    1    3    3    0    0 -0.62388558039E+01 -0.26064688661E+01 -0.12184854752E+01  0.68703499770E+01  0.51100000000E-03 0.  1.
         12    1    3    3    0    0 -0.95093572311E+01 -0.21783774675E+02  0.29551780947E+02  0.37924510164E+02  0.00000000000E+00 0. -1.
</event>
<event>
 7    1  0.2755991E-011  0.5052886E+02  0.7816164E-02  0.1300439E+00
        -11   -1    0    0    0    0  0.00000000000E+00  0.00000000000E+00  0.45593999997E+02  0.45594000000E+02  0.51100000000E-03 0.  1.
         11   -1    0    0    0    0 -0.00000000000E+00 -0.00000000000E+00 -0.45593999997E+02  0.45594000000E+02  0.51100000000E-03 0. -1.
    9900012    2    1    2    0    0 -0.30049477457E+02 -0.21870036624E+02  0.16489278081E+02  0.50528857252E+02  0.29999992104E+02 0.  0.
         12    1    1    2    0    0  0.30049477457E+02  0.21870036624E+02 -0.16489278081E+02  0.40659142748E+02  0.00000000000E+00 0. -1.
         11    1    3    3    0    0 -0.24339026801E+01  0.29017027834E+01  0.33636814075E+01  0.50653839116E+01  0.51100000000E-03 0. -1.
        -11    1    3    3    0    0 -0.87048313686E+00 -0.10712204830E+02 -0.30752287254E+01  0.11178823963E+02  0.51100000000E-03 0.  1.
        -12    1    3    3    0    0 -0.26745091640E+02 -0.14059534577E+02  0.16200825398E+02  0.34284649378E+02  0.00000000000E+00 0.  1.
</event>
<event>
 7    1  0.2755991E-011  0.5052886E+02  0.7816164E-02  0.1300439E+00
        -11   -1    0    0    0    0  0.00000000000E+00  0.00000000000E+00  0.45593999997E+02  0.45594000000E+02  0.51100000000E-03 0. -1.
         11   -1    0    0    0    0 -0.00000000000E+00 -0.00000000000E+00 -0.45593999997E+02  0.45594000000E+02  0.51100000000E-03 0.  1.
    9900012    2    1    2    0    0  0.31900256851E+02  0.34128573276E+01 -0.24977830451E+02  0.50528855932E+02  0.29999988092E+02 0.  0.
         12    1    1    2    0    0 -0.31900256851E+02 -0.34128573276E+01  0.24977830451E+02  0.40659144068E+02  0.00000000000E+00 0. -1.
         11    1    3    3    0    0 -0.26913810018E+01  0.47619658303E+00 -0.12302348858E+01  0.29972942828E+01  0.51100000000E-03 0. -1.
        -11    1    3    3    0    0 -0.27782688587E+01 -0.32692476744E+00 -0.46778419648E+01  0.54504920295E+01  0.51100000000E-03 0.  1.
        -12    1    3    3    0    0  0.37369906711E+02  0.32635855120E+01 -0.19069753600E+02  0.42081069620E+02  0.00000000000E+00 0.  1.
</event>
<event>
 7    1  0.2755991E-011  0.5052886E+02  0.7816164E-02  0.1300439E+00
        -11   -1    0    0    0    0  0.00000000000E+00  0.00000000000E+00  0.45593999997E+02  0.45594000000E+02  0.51100000000E-03 0.  1.
         11   -1    0    0    0    0 -0.00000000000E+00 -0.00000000000E+00 -0.45593999997E+02  0.45594000000E+02  0.51100000000E-03 0. -1.
    9900012    2    1    2    0    0  0.15923883998E+02  0.29896512682E+02  0.22489859081E+02  0.50528864328E+02  0.30000013611E+02 0.  0.
         12    1    1    2    0    0 -0.15923883998E+02 -0.29896512682E+02 -0.22489859081E+02  0.40659135672E+02  0.00000000000E+00 0. -1.
         11    1    3    3    0    0  0.74583962671E+01  0.67587855708E+01 -0.17044960423E+01  0.10208533895E+02  0.51100000000E-03 0. -1.
        -11    1    3    3    0    0  0.15684315343E+01 -0.26782345896E+01 -0.13213691483E+01  0.33732676564E+01  0.51100000000E-03 0.  1.
        -12    1    3    3    0    0  0.68970561966E+01  0.25815961701E+02  0.25515724271E+02  0.36947062776E+02  0.00000000000E+00 0.  1.
</event>
<event>
 7    1  0.2755991E-011  0.5052886E+02  0.7816164E-02  0.1300439E+00
        -11   -1    0    0    0    0  0.00000000000E+00  0.00000000000E+00  0.45593999997E+02  0.45594000000E+02  0.51100000000E-03 0. -1.
         11   -1    0    0    0    0 -0.00000000000E+00 -0.00000000000E+00 -0.45593999997E+02  0.45594000000E+02  0.51100000000E-03 0.  1.
    9900012    2    1    2    0    0 -0.39232367062E+02 -0.10396045990E+02 -0.24308221497E+01  0.50528864571E+02  0.30000014351E+02 0.  0.
         12    1    1    2    0    0  0.39232367062E+02  0.10396045990E+02  0.24308221497E+01  0.40659135429E+02  0.00000000000E+00 0. -1.
         11    1    3    3    0    0 -0.10849701090E+02 -0.26584920720E+01  0.86003519127E+01  0.14097859665E+02  0.51100000000E-03 0. -1.
        -11    1    3    3    0    0 -0.10080379652E+02  0.58823151595E+01 -0.17507114032E+01  0.11801723444E+02  0.51100000000E-03 0.  1.
        -12    1    3    3    0    0 -0.18302286319E+02 -0.13619869077E+02 -0.92804626593E+01  0.24629281462E+02  0.00000000000E+00 0.  1.
</event>
<event>
 7    1  0.2755991E-011  0.5052887E+02  0.7816164E-02  0.1300439E+00
        -11   -1    0    0    0    0  0.00000000000E+00  0.00000000000E+00  0.45593999997E+02  0.45594000000E+02  0.51100000000E-03 0.  1.
         11   -1    0    0    0    0 -0.00000000000E+00 -0.00000000000E+00 -0.45593999997E+02  0.45594000000E+02  0.51100000000E-03 0. -1.
    9900012    2    1    2    0    0  0.35208408106E+02  0.84662232870E+01 -0.18489342712E+02  0.50528871479E+02  0.30000035349E+02 0.  0.
         12    1    1    2    0    0 -0.35208408106E+02 -0.84662232870E+01  0.18489342712E+02  0.40659128521E+02  0.00000000000E+00 0. -1.
         11    1    3    3    0    0 -0.17645516454E+01  0.19669415374E+01 -0.76490243324E+01  0.80925938376E+01  0.51100000000E-03 0. -1.
        -11    1    3    3    0    0  0.32590694119E+01 -0.32491177574E+01 -0.51095673483E+01  0.68764800866E+01  0.51100000000E-03 0.  1.
        -12    1    3    3    0    0  0.33713890340E+02  0.97483995069E+01 -0.57307510313E+01  0.35559797555E+02  0.00000000000E+00 0.  1.
</event>
<event>
 7    1  0.2755991E-011  0.5052886E+02  0.7816164E-02  0.1300439E+00
        -11   -1    0    0    0    0  0.00000000000E+00  0.00000000000E+00  0.45593999997E+02  0.45594000000E+02  0.51100000000E-03 0. -1.
         11   -1    0    0    0    0 -0.00000000000E+00 -0.00000000000E+00 -0.45593999997E+02  0.45594000000E+02  0.51100000000E-03 0.  1.
    9900012    2    1    2    0    0  0.32234565719E+02  0.87346913670E+01 -0.23190600806E+02  0.50528855566E+02  0.29999986979E+02 0.  0.
         12    1    1    2    0    0 -0.32234565719E+02 -0.87346913670E+01  0.23190600806E+02  0.40659144434E+02  0.00000000000E+00 0. -1.
         11    1    3    3    0    0  0.21931680371E+02  0.13114984280E+00 -0.10324223014E+02  0.24240573122E+02  0.51100000000E-03 0. -1.
        -11    1    3    3    0    0  0.15488725179E+02  0.40181996628E+01 -0.90742781317E+01  0.18395354307E+02  0.51100000000E-03 0.  1.
         12    1    3    3    0    0 -0.51858398315E+01  0.45853418614E+01 -0.37920996605E+01  0.78929281372E+01  0.00000000000E+00 0. -1.
</event>
<event>
 7    1  0.2755991E-011  0.5052886E+02  0.7816164E-02  0.1300439E+00
        -11   -1    0    0    0    0  0.00000000000E+00  0.00000000000E+00  0.45593999997E+02  0.45594000000E+02  0.51100000000E-03 0.  1.
         11   -1    0    0    0    0 -0.00000000000E+00 -0.00000000000E+00 -0.45593999997E+02  0.45594000000E+02  0.51100000000E-03 0. -1.
    9900012    2    1    2    0    0 -0.11537623277E+02 -0.16682725493E+02  0.35238267586E+02  0.50528861012E+02  0.30000003532E+02 0.  0.
         12    1    1    2    0    0  0.11537623277E+02  0.16682725493E+02 -0.35238267586E+02  0.40659138988E+02  0.00000000000E+00 0. -1.
         11    1    3    3    0    0 -0.30296937197E+01 -0.11668315167E+02  0.17717716106E+00  0.12056534115E+02  0.51100000000E-03 0. -1.
        -11    1    3    3    0    0  0.18227638499E+01 -0.26348627032E+01  0.20569162742E+01  0.38073447884E+01  0.51100000000E-03 0.  1.
        -12    1    3    3    0    0 -0.10330693408E+02 -0.23795476230E+01  0.33004174151E+02  0.34664982108E+02  0.00000000000E+00 0.  1.
</event>
<event>
 7    1  0.2755991E-011  0.5052886E+02  0.7816164E-02  0.1300439E+00
        -11   -1    0    0    0    0  0.00000000000E+00  0.00000000000E+00  0.45593999997E+02  0.45594000000E+02  0.51100000000E-03 0. -1.
         11   -1    0    0    0    0 -0.00000000000E+00 -0.00000000000E+00 -0.45593999997E+02  0.45594000000E+02  0.51100000000E-03 0.  1.
    9900012    2    1    2    0    0  0.35857301552E+02 -0.43681763768E+01 -0.18663828988E+02  0.50528861397E+02  0.30000004702E+02 0.  0.
         12    1    1    2    0    0 -0.35857301552E+02  0.43681763768E+01  0.18663828988E+02  0.40659138603E+02  0.00000000000E+00 0. -1.
         11    1    3    3    0    0  0.68539940107E+01  0.37170255827E+01 -0.26376441679E+01  0.82310801295E+01  0.51100000000E-03 0. -1.
        -11    1    3    3    0    0  0.72789455647E+01 -0.31404735689E+01 -0.18259478858E+02  0.19906134512E+02  0.51100000000E-03 0.  1.
         12    1    3    3    0    0  0.21724361977E+02 -0.49447283905E+01  0.22332940384E+01  0.22391646756E+02  0.00000000000E+00 0. -1.
</event>
<event>
 7    1  0.2755991E-011  0.5052886E+02  0.7816164E-02  0.1300439E+00
        -11   -1    0    0    0    0  0.00000000000E+00  0.00000000000E+00  0.45593999997E+02  0.45594000000E+02  0.51100000000E-03 0.  1.
         11   -1    0    0    0    0 -0.00000000000E+00 -0.00000000000E+00 -0.45593999997E+02  0.45594000000E+02  0.51100000000E-03 0. -1.
    9900012    2    1    2    0    0 -0.34765433723E+02 -0.12298329731E+02  0.17125450826E+02  0.50528863732E+02  0.30000011800E+02 0.  0.
         12    1    1    2    0    0  0.34765433723E+02  0.12298329731E+02 -0.17125450826E+02  0.40659136268E+02  0.00000000000E+00 0. -1.
         11    1    3    3    0    0 -0.44508665444E+01  0.22819671688E+01  0.82675002396E+01  0.96627712189E+01  0.51100000000E-03 0. -1.
        -11    1    3    3    0    0 -0.29271021324E+01 -0.11333648021E+02  0.59586683761E+01  0.13134886122E+02  0.51100000000E-03 0.  1.
        -12    1    3    3    0    0 -0.27387465046E+02 -0.32466488785E+01  0.28992822099E+01  0.27731206391E+02  0.00000000000E+00 0.  1.
</event>
<event>
 7    1  0.2755991E-011  0.5052886E+02  0.7816164E-02  0.1300439E+00
        -11   -1    0    0    0    0  0.00000000000E+00  0.00000000000E+00  0.45593999997E+02  0.45594000000E+02  0.51100000000E-03 0.  1.
         11   -1    0    0    0    0 -0.00000000000E+00 -0.00000000000E+00 -0.45593999997E+02  0.45594000000E+02  0.51100000000E-03 0. -1.
    9900012    2    1    2    0    0  0.11306942123E+02  0.38348289413E+02  0.73977736470E+01  0.50528864544E+02  0.30000014269E+02 0.  0.
         12    1    1    2    0    0 -0.11306942123E+02 -0.38348289413E+02 -0.73977736470E+01  0.40659135456E+02  0.00000000000E+00 0. -1.
         11    1    3    3    0    0 -0.57826224002E+01  0.25286877916E+01  0.74145329546E+01  0.97369545017E+01  0.51100000000E-03 0. -1.
        -11    1    3    3    0    0  0.28967647221E+01  0.80175125452E+00  0.90537661890E-01  0.30070331323E+01  0.51100000000E-03 0.  1.
        -12    1    3    3    0    0  0.14192799801E+02  0.35017850367E+02 -0.10729696957E+00  0.37784876910E+02  0.00000000000E+00 0.  1.
</event>
<event>
 7    1  0.2755991E-011  0.5052893E+02  0.7816164E-02  0.1300439E+00
        -11   -1    0    0    0    0  0.00000000000E+00  0.00000000000E+00  0.45593999997E+02  0.45594000000E+02  0.51100000000E-03 0.  1.
         11   -1    0    0    0    0 -0.00000000000E+00 -0.00000000000E+00 -0.45593999997E+02  0.45594000000E+02  0.51100000000E-03 0. -1.
    9900012    2    1    2    0    0  0.40876824336E+01  0.24771801546E+02  0.31981385127E+02  0.50528926054E+02  0.30000201233E+02 0.  0.
         12    1    1    2    0    0 -0.40876824336E+01 -0.24771801546E+02 -0.31981385127E+02  0.40659073946E+02  0.00000000000E+00 0. -1.
         11    1    3    3    0    0 -0.43799585251E+00  0.31001761544E+01 -0.49202166701E+01  0.58319349188E+01  0.51100000000E-03 0. -1.
        -11    1    3    3    0    0  0.50001076185E+01  0.49222386422E+01  0.18620161259E+02  0.19898238993E+02  0.51100000000E-03 0.  1.
        -12    1    3    3    0    0 -0.47442933235E+00  0.16749386749E+02  0.18281440538E+02  0.24798752142E+02  0.00000000000E+00 0.  1.
</event>
<event>
 7    1  0.2755991E-011  0.5052886E+02  0.7816164E-02  0.1300439E+00
        -11   -1    0    0    0    0  0.00000000000E+00  0.00000000000E+00  0.45593999997E+02  0.45594000000E+02  0.51100000000E-03 0. -1.
         11   -1    0    0    0    0 -0.00000000000E+00 -0.00000000000E+00 -0.45593999997E+02  0.45594000000E+02  0.51100000000E-03 0.  1.
    9900012    2    1    2    0    0 -0.36958874463E+01 -0.31345080313E+02 -0.25631852997E+02  0.50528861643E+02  0.30000005451E+02 0.  0.
         12    1    1    2    0    0  0.36958874463E+01  0.31345080313E+02  0.25631852997E+02  0.40659138357E+02  0.00000000000E+00 0. -1.
         11    1    3    3    0    0  0.27742329840E+01 -0.10902127429E+02 -0.88954556718E+01  0.14341613682E+02  0.51100000000E-03 0. -1.
        -11    1    3    3    0    0 -0.68215129514E+00 -0.24809112892E+02 -0.13423627259E+02  0.28216151083E+02  0.51100000000E-03 0.  1.
         12    1    3    3    0    0 -0.57879691352E+01  0.43661600084E+01 -0.33127700660E+01  0.79710968780E+01  0.00000000000E+00 0. -1.
</event>
<event>
 7    1  0.2755991E-011  0.5052879E+02  0.7816164E-02  0.1300439E+00
        -11   -1    0    0    0    0  0.00000000000E+00  0.00000000000E+00  0.45593999997E+02  0.45594000000E+02  0.51100000000E-03 0.  1.
         11   -1    0    0    0    0 -0.00000000000E+00 -0.00000000000E+00 -0.45593999997E+02  0.45594000000E+02  0.51100000000E-03 0. -1.
    9900012    2    1    2    0    0  0.79971503201E+01 -0.20630219537E+02  0.34111746938E+02  0.50528786401E+02  0.29999776743E+02 0.  0.
         12    1    1    2    0    0 -0.79971503201E+01  0.20630219537E+02 -0.34111746938E+02  0.40659213599E+02  0.00000000000E+00 0. -1.
         11    1    3    3    0    0  0.44429436298E+01 -0.33130043825E+01  0.11483515158E+02  0.12750955524E+02  0.51100000000E-03 0. -1.
        -11    1    3    3    0    0 -0.73098473787E+00 -0.18538306051E+02  0.26174692810E+02  0.32082981064E+02  0.51100000000E-03 0.  1.
         12    1    3    3    0    0  0.42851914281E+01  0.12210908973E+01 -0.35464610305E+01  0.56948498132E+01  0.00000000000E+00 0. -1.
</event>
<event>
 7    1  0.2755991E-011  0.5052886E+02  0.7816164E-02  0.1300439E+00
        -11   -1    0    0    0    0  0.00000000000E+00  0.00000000000E+00  0.45593999997E+02  0.45594000000E+02  0.51100000000E-03 0. -1.
         11   -1    0    0    0    0 -0.00000000000E+00 -0.00000000000E+00 -0.45593999997E+02  0.45594000000E+02  0.51100000000E-03 0.  1.
    9900012    2    1    2    0    0 -0.34530716967E+02 -0.16184813320E+01 -0.21405034017E+02  0.50528863544E+02  0.30000011229E+02 0.  0.
         12    1    1    2    0    0  0.34530716967E+02  0.16184813320E+01  0.21405034017E+02  0.40659136456E+02  0.00000000000E+00 0. -1.
         11    1    3    3    0    0 -0.64362402788E+01  0.45581562030E+01 -0.13926908334E+02  0.16005022740E+02  0.51100000000E-03 0. -1.
        -11    1    3    3    0    0 -0.25123899854E+01  0.95798566126E+00 -0.74979377004E+01  0.79654824076E+01  0.51100000000E-03 0.  1.
         12    1    3    3    0    0 -0.25582086703E+02 -0.71346231963E+01  0.19812017922E-01  0.26558358397E+02  0.00000000000E+00 0. -1.
</event>
<event>
 7    1  0.2755991E-011  0.5052886E+02  0.7816164E-02  0.1300439E+00
        -11   -1    0    0    0    0  0.00000000000E+00  0.00000000000E+00  0.45593999997E+02  0.45594000000E+02  0.51100000000E-03 0. -1.
         11   -1    0    0    0    0 -0.00000000000E+00 -0.00000000000E+00 -0.45593999997E+02  0.45594000000E+02  0.51100000000E-03 0.  1.
    9900012    2    1    2    0    0  0.39924672004E+02 -0.76876902090E+01 -0.29240412697E+00  0.50528861844E+02  0.30000006062E+02 0.  0.
         12    1    1    2    0    0 -0.39924672004E+02  0.76876902090E+01  0.29240412697E+00  0.40659138156E+02  0.00000000000E+00 0. -1.
         11    1    3    3    0    0  0.21593637056E+00  0.62976555282E+00  0.13412217729E+01  0.14973674475E+01  0.51100000000E-03 0. -1.
        -11    1    3    3    0    0  0.24363087387E+01  0.42730578935E+01 -0.77882359619E+01  0.92114734810E+01  0.51100000000E-03 0.  1.
         12    1    3    3    0    0  0.37272426895E+02 -0.12590513655E+02  0.61546100620E+01  0.39820020916E+02  0.00000000000E+00 0. -1.
</event>
<event>
 7    1  0.2755991E-011  0.5052886E+02  0.7816164E-02  0.1300439E+00
        -11   -1    0    0    0    0  0.00000000000E+00  0.00000000000E+00  0.45593999997E+02  0.45594000000E+02  0.51100000000E-03 0.  1.
         11   -1    0    0    0    0 -0.00000000000E+00 -0.00000000000E+00 -0.45593999997E+02  0.45594000000E+02  0.51100000000E-03 0. -1.
    9900012    2    1    2    0    0 -0.34820090032E+02 -0.16594085656E+02  0.12859368706E+02  0.50528859428E+02  0.29999998716E+02 0.  0.
         12    1    1    2    0    0  0.34820090032E+02  0.16594085656E+02 -0.12859368706E+02  0.40659140572E+02  0.00000000000E+00 0. -1.
         11    1    3    3    0    0 -0.75134458271E+01 -0.17437565412E+01  0.11266610205E+02  0.13653902770E+02  0.51100000000E-03 0. -1.
        -11    1    3    3    0    0 -0.17736031581E+02 -0.22331769468E+01  0.82602504065E+01  0.19692273422E+02  0.51100000000E-03 0.  1.
         12    1    3    3    0    0 -0.95706126240E+01 -0.12617152168E+02 -0.66674919063E+01  0.17182683235E+02  0.00000000000E+00 0. -1.
</event>
<event>
 7    1  0.2755991E-011  0.5052886E+02  0.7816164E-02  0.1300439E+00
        -11   -1    0    0    0    0  0.00000000000E+00  0.00000000000E+00  0.45593999997E+02  0.45594000000E+02  0.51100000000E-03 0.  1.
         11   -1    0    0    0    0 -0.00000000000E+00 -0.00000000000E+00 -0.45593999997E+02  0.45594000000E+02  0.51100000000E-03 0. -1.
    9900012    2    1    2    0    0 -0.93735627005E+01 -0.24738303222E+02  0.30875856334E+02  0.50528857998E+02  0.29999994370E+02 0.  0.
         12    1    1    2    0    0  0.93735627005E+01  0.24738303222E+02 -0.30875856334E+02  0.40659142002E+02  0.00000000000E+00 0. -1.
         11    1    3    3    0    0 -0.65836915536E+01 -0.98152011029E+01  0.16304561116E+01  0.11930697991E+02  0.51100000000E-03 0. -1.
        -11    1    3    3    0    0  0.22464858014E+01 -0.10673365328E+02  0.26854787951E+01  0.11232952528E+02  0.51100000000E-03 0.  1.
        -12    1    3    3    0    0 -0.50363569483E+01 -0.42497367905E+01  0.26559921427E+02  0.27365207478E+02  0.00000000000E+00 0.  1.
</event>
<event>
 7    1  0.2755991E-011  0.5052886E+02  0.7816164E-02  0.1300439E+00
        -11   -1    0    0    0    0  0.00000000000E+00  0.00000000000E+00  0.45593999997E+02  0.45594000000E+02  0.51100000000E-03 0. -1.
         11   -1    0    0    0    0 -0.00000000000E+00 -0.00000000000E+00 -0.45593999997E+02  0.45594000000E+02  0.51100000000E-03 0.  1.
    9900012    2    1    2    0    0 -0.23937666739E+02 -0.28593833310E+01 -0.32741070047E+02  0.50528860440E+02  0.30000001793E+02 0.  0.
         12    1    1    2    0    0  0.23937666739E+02  0.28593833310E+01  0.32741070047E+02  0.40659139560E+02  0.00000000000E+00 0. -1.
         11    1    3    3    0    0 -0.14433161324E+02 -0.89949368677E+01 -0.10623819430E+02  0.20052196253E+02  0.51100000000E-03 0. -1.
        -11    1    3    3    0    0 -0.14583435325E+02  0.62261097699E+01 -0.17448097409E+02  0.23577046723E+02  0.51100000000E-03 0.  1.
         12    1    3    3    0    0  0.50789299095E+01 -0.90556233167E-01 -0.46691532084E+01  0.68996174633E+01  0.00000000000E+00 0. -1.
</event>
<event>
 7    1  0.2755991E-011  0.5052886E+02  0.7816164E-02  0.1300439E+00
        -11   -1    0    0    0    0  0.00000000000E+00  0.00000000000E+00  0.45593999997E+02  0.45594000000E+02  0.51100000000E-03 0. -1.
         11   -1    0    0    0    0 -0.00000000000E+00 -0.00000000000E+00 -0.45593999997E+02  0.45594000000E+02  0.51100000000E-03 0.  1.
    9900012    2    1    2    0    0 -0.12824142382E+02 -0.35737481719E+02 -0.14544382309E+02  0.50528864689E+02  0.30000014710E+02 0.  0.
         12    1    1    2    0    0  0.12824142382E+02  0.35737481719E+02  0.14544382309E+02  0.40659135311E+02  0.00000000000E+00 0. -1.
         11    1    3    3    0    0  0.21086400492E+01 -0.82921027694E+00 -0.38882754158E+01  0.45002931583E+01  0.51100000000E-03 0. -1.
        -11    1    3    3    0    0  0.21781531420E+00 -0.39142285688E+01  0.64296906411E+01  0.75305744005E+01  0.51100000000E-03 0.  1.
        -12    1    3    3    0    0 -0.15150597745E+02 -0.30994042873E+02 -0.17085797534E+02  0.38497997131E+02  0.00000000000E+00 0.  1.
</event>
<event>
 7    1  0.2755991E-011  0.5052885E+02  0.7816164E-02  0.1300439E+00
        -11   -1    0    0    0    0  0.00000000000E+00  0.00000000000E+00  0.45593999997E+02  0.45594000000E+02  0.51100000000E-03 0.  1.
         11   -1    0    0    0    0 -0.00000000000E+00 -0.00000000000E+00 -0.45593999997E+02  0.45594000000E+02  0.51100000000E-03 0. -1.
    9900012    2    1    2    0    0 -0.32780593004E+01  0.17564896927E+01  0.40488707074E+02  0.50528851837E+02  0.29999975643E+02 0.  0.
         12    1    1    2    0    0  0.32780593004E+01 -0.17564896927E+01 -0.40488707074E+02  0.40659148163E+02  0.00000000000E+00 0. -1.
         11    1    3    3    0    0  0.39327964720E+01  0.86254705547E+01  0.12170624064E+01  0.95575557305E+01  0.51100000000E-03 0. -1.
        -11    1    3    3    0    0  0.40444595341E+00 -0.17211782396E+01  0.13381785446E+02  0.13498081829E+02  0.51100000000E-03 0.  1.
        -12    1    3    3    0    0 -0.76153017258E+01 -0.51478026224E+01  0.25889859222E+02  0.27473214277E+02  0.00000000000E+00 0.  1.
</event>
<event>
 7    1  0.2755991E-011  0.5052886E+02  0.7816164E-02  0.1300439E+00
        -11   -1    0    0    0    0  0.00000000000E+00  0.00000000000E+00  0.45593999997E+02  0.45594000000E+02  0.51100000000E-03 0. -1.
         11   -1    0    0    0    0 -0.00000000000E+00 -0.00000000000E+00 -0.45593999997E+02  0.45594000000E+02  0.51100000000E-03 0.  1.
    9900012    2    1    2    0    0 -0.21655696924E+02 -0.32933982131E+02 -0.99774232637E+01  0.50528863717E+02  0.30000011755E+02 0.  0.
         12    1    1    2    0    0  0.21655696924E+02  0.32933982131E+02  0.99774232637E+01  0.40659136283E+02  0.00000000000E+00 0. -1.
         11    1    3    3    0    0 -0.19038679482E+01 -0.12432898698E+01  0.25506046702E+01  0.34170260914E+01  0.51100000000E-03 0. -1.
        -11    1    3    3    0    0 -0.15113405575E+02 -0.72194761202E+01  0.39995292475E+01  0.17220107374E+02  0.51100000000E-03 0.  1.
        -12    1    3    3    0    0 -0.46384234013E+01 -0.24471216141E+02 -0.16527557181E+02  0.29891730252E+02  0.00000000000E+00 0.  1.
</event>
<event>
 7    1  0.2755991E-011  0.5052886E+02  0.7816164E-02  0.1300439E+00
        -11   -1    0    0    0    0  0.00000000000E+00  0.00000000000E+00  0.45593999997E+02  0.45594000000E+02  0.51100000000E-03 0.  1.
         11   -1    0    0    0    0 -0.00000000000E+00 -0.00000000000E+00 -0.45593999997E+02  0.45594000000E+02  0.51100000000E-03 0. -1.
    9900012    2    1    2    0    0 -0.22967293260E+02 -0.24928284358E+02  0.22455497571E+02  0.50528864595E+02  0.30000014424E+02 0.  0.
         12    1    1    2    0    0  0.22967293260E+02  0.24928284358E+02 -0.22455497571E+02  0.40659135405E+02  0.00000000000E+00 0. -1.
         11    1    3    3    0    0 -0.19071281226E+00 -0.18678957253E+01 -0.24047146298E+01  0.30509110982E+01  0.51100000000E-03 0. -1.
        -11    1    3    3    0    0 -0.78748600426E+01  0.33573007642E+01  0.49898342099E+00  0.85751894339E+01  0.51100000000E-03 0.  1.
         12    1    3    3    0    0 -0.14901720405E+02 -0.26417689397E+02  0.24361228780E+02  0.38902764063E+02  0.00000000000E+00 0. -1.
</event>
<event>
 7    1  0.2755991E-011  0.5052884E+02  0.7816164E-02  0.1300439E+00
        -11   -1    0    0    0    0  0.00000000000E+00  0.00000000000E+00  0.45593999997E+02  0.45594000000E+02  0.51100000000E-03 0.  1.
         11   -1    0    0    0    0 -0.00000000000E+00 -0.00000000000E+00 -0.45593999997E+02  0.45594000000E+02  0.51100000000E-03 0. -1.
    9900012    2    1    2    0    0 -0.91706711273E+01 -0.39238655872E+02  0.54215986461E+01  0.50528842908E+02  0.29999948503E+02 0.  0.
         12    1    1    2    0    0  0.91706711273E+01  0.39238655872E+02 -0.54215986461E+01  0.40659157092E+02  0.00000000000E+00 0. -1.
         11    1    3    3    0    0  0.89384995698E+00  0.31856956244E+01  0.25280360769E+01  0.41639633793E+01  0.51100000000E-03 0. -1.
        -11    1    3    3    0    0 -0.92137219958E+01 -0.21700236431E+02  0.81907105446E+01  0.24957577480E+02  0.51100000000E-03 0.  1.
         12    1    3    3    0    0 -0.85079908851E+00 -0.20724115066E+02 -0.52971479754E+01  0.21407302049E+02  0.00000000000E+00 0. -1.
</event>
<event>
 7    1  0.2755991E-011  0.5052882E+02  0.7816164E-02  0.1300439E+00
        -11   -1    0    0    0    0  0.00000000000E+00  0.00000000000E+00  0.45593999997E+02  0.45594000000E+02  0.51100000000E-03 0. -1.
         11   -1    0    0    0    0 -0.00000000000E+00 -0.00000000000E+00 -0.45593999997E+02  0.45594000000E+02  0.51100000000E-03 0.  1.
    9900012    2    1    2    0    0  0.25929081958E+02 -0.30426366227E+02 -0.74221438030E+01  0.50528815655E+02  0.29999865666E+02 0.  0.
         12    1    1    2    0    0 -0.25929081958E+02  0.30426366227E+02  0.74221438030E+01  0.40659184345E+02  0.00000000000E+00 0. -1.
         11    1    3    3    0    0  0.14902953387E+02 -0.14732977571E+02  0.58396411697E+01  0.21754541067E+02  0.51100000000E-03 0. -1.
        -11    1    3    3    0    0 -0.40809921886E+01 -0.69753188336E+01 -0.46170307593E+01  0.93073381461E+01  0.51100000000E-03 0.  1.
         12    1    3    3    0    0  0.15107120759E+02 -0.87180698224E+01 -0.86447542134E+01  0.19466936443E+02  0.00000000000E+00 0. -1.
</event>
<event>
 7    1  0.2755991E-011  0.5052886E+02  0.7816164E-02  0.1300439E+00
        -11   -1    0    0    0    0  0.00000000000E+00  0.00000000000E+00  0.45593999997E+02  0.45594000000E+02  0.51100000000E-03 0.  1.
         11   -1    0    0    0    0 -0.00000000000E+00 -0.00000000000E+00 -0.45593999997E+02  0.45594000000E+02  0.51100000000E-03 0. -1.
    9900012    2    1    2    0    0 -0.14737081285E+02  0.26291733431E+01  0.37803061688E+02  0.50528860926E+02  0.30000003270E+02 0.  0.
         12    1    1    2    0    0  0.14737081285E+02 -0.26291733431E+01 -0.37803061688E+02  0.40659139074E+02  0.00000000000E+00 0. -1.
         11    1    3    3    0    0 -0.26026943283E+01  0.67927162130E+01  0.70068583767E+01  0.10100053262E+02  0.51100000000E-03 0. -1.
        -11    1    3    3    0    0 -0.39402635240E+01  0.93860655120E+01  0.14399704104E+02  0.17634494067E+02  0.51100000000E-03 0.  1.
         12    1    3    3    0    0 -0.81941234325E+01 -0.13549608382E+02  0.16396499207E+02  0.22794313597E+02  0.00000000000E+00 0. -1.
</event>
<event>
 7    1  0.2755991E-011  0.5052886E+02  0.7816164E-02  0.1300439E+00
        -11   -1    0    0    0    0  0.00000000000E+00  0.00000000000E+00  0.45593999997E+02  0.45594000000E+02  0.51100000000E-03 0. -1.
         11   -1    0    0    0    0 -0.00000000000E+00 -0.00000000000E+00 -0.45593999997E+02  0.45594000000E+02  0.51100000000E-03 0.  1.
    9900012    2    1    2    0    0  0.29534788710E+02 -0.12584033130E+02 -0.24950030105E+02  0.50528860361E+02  0.30000001554E+02 0.  0.
         12    1    1    2    0    0 -0.29534788710E+02  0.12584033130E+02  0.24950030105E+02  0.40659139639E+02  0.00000000000E+00 0. -1.
         11    1    3    3    0    0 -0.19936871339E+01 -0.39880343779E+01 -0.80377078778E+01  0.91915153689E+01  0.51100000000E-03 0. -1.
        -11    1    3    3    0    0  0.12045203275E+02  0.59097729774E+01 -0.65237014589E+01  0.14918814281E+02  0.51100000000E-03 0.  1.
        -12    1    3    3    0    0  0.19483272569E+02 -0.14505771729E+02 -0.10388620768E+02  0.26418530711E+02  0.00000000000E+00 0.  1.
</event>
<event>
 7    1  0.2755991E-011  0.5052886E+02  0.7816164E-02  0.1300439E+00
        -11   -1    0    0    0    0  0.00000000000E+00  0.00000000000E+00  0.45593999997E+02  0.45594000000E+02  0.51100000000E-03 0.  1.
         11   -1    0    0    0    0 -0.00000000000E+00 -0.00000000000E+00 -0.45593999997E+02  0.45594000000E+02  0.51100000000E-03 0. -1.
    9900012    2    1    2    0    0 -0.35931626584E+02 -0.18855001974E+02 -0.25636866320E+01  0.50528863541E+02  0.30000011220E+02 0.  0.
         12    1    1    2    0    0  0.35931626584E+02  0.18855001974E+02  0.25636866320E+01  0.40659136459E+02  0.00000000000E+00 0. -1.
         11    1    3    3    0    0  0.43428480169E+01 -0.34954787814E+01  0.99462496831E+00  0.56628596926E+01  0.51100000000E-03 0. -1.
        -11    1    3    3    0    0  0.38273045786E+00 -0.48633538401E+00  0.11626414101E+01  0.13170952960E+01  0.51100000000E-03 0.  1.
        -12    1    3    3    0    0 -0.40657205059E+02 -0.14873187808E+02 -0.47209530104E+01  0.43548908553E+02  0.00000000000E+00 0.  1.
</event>
<event>
 7    1  0.2755991E-011  0.5052886E+02  0.7816164E-02  0.1300439E+00
        -11   -1    0    0    0    0  0.00000000000E+00  0.00000000000E+00  0.45593999997E+02  0.45594000000E+02  0.51100000000E-03 0.  1.
         11   -1    0    0    0    0 -0.00000000000E+00 -0.00000000000E+00 -0.45593999997E+02  0.45594000000E+02  0.51100000000E-03 0. -1.
    9900012    2    1    2    0    0 -0.28565713431E+02 -0.98466274736E+01  0.27206790082E+02  0.50528862245E+02  0.30000007279E+02 0.  0.
         12    1    1    2    0    0  0.28565713431E+02  0.98466274736E+01 -0.27206790082E+02  0.40659137755E+02  0.00000000000E+00 0. -1.
         11    1    3    3    0    0 -0.90385343593E+01 -0.10273421398E+02  0.19776152303E+02  0.24048586045E+02  0.51100000000E-03 0. -1.
        -11    1    3    3    0    0 -0.11579698470E+02 -0.72685739630E+01  0.71165805878E+01  0.15413218471E+02  0.51100000000E-03 0.  1.
         12    1    3    3    0    0 -0.79474806025E+01  0.76953678878E+01  0.31405719111E+00  0.11067057729E+02  0.00000000000E+00 0. -1.
</event>
<event>
 7    1  0.2755991E-011  0.5052886E+02  0.7816164E-02  0.1300439E+00
        -11   -1    0    0    0    0  0.00000000000E+00  0.00000000000E+00  0.45593999997E+02  0.45594000000E+02  0.51100000000E-03 0.  1.
         11   -1    0    0    0    0 -0.00000000000E+00 -0.00000000000E+00 -0.45593999997E+02  0.45594000000E+02  0.51100000000E-03 0. -1.
    9900012    2    1    2    0    0 -0.50025070718E+01 -0.14366750614E+02  0.37705928848E+02  0.50528859939E+02  0.30000000270E+02 0.  0.
         12    1    1    2    0    0  0.50025070718E+01  0.14366750614E+02 -0.37705928848E+02  0.40659140061E+02  0.00000000000E+00 0. -1.
         11    1    3    3    0    0  0.33664948532E+01 -0.46096804739E+01 -0.74432662225E+00  0.57564280634E+01  0.51100000000E-03 0. -1.
        -11    1    3    3    0    0 -0.31834317000E+00 -0.12089545280E+02  0.12044578962E+02  0.17068401509E+02  0.51100000000E-03 0.  1.
        -12    1    3    3    0    0 -0.80506587549E+01  0.23324751395E+01  0.26405676509E+02  0.27704030367E+02  0.00000000000E+00 0.  1.
</event>
<event>
 7    1  0.2755991E-011  0.5052886E+02  0.7816164E-02  0.1300439E+00
        -11   -1    0    0    0    0  0.00000000000E+00  0.00000000000E+00  0.45593999997E+02  0.45594000000E+02  0.51100000000E-03 0.  1.
         11   -1    0    0    0    0 -0.00000000000E+00 -0.00000000000E+00 -0.45593999997E+02  0.45594000000E+02  0.51100000000E-03 0. -1.
    9900012    2    1    2    0    0  0.13929110237E+02 -0.30869422906E+02  0.22499421310E+02  0.50528863981E+02  0.30000012558E+02 0.  0.
         12    1    1    2    0    0 -0.13929110237E+02  0.30869422906E+02 -0.22499421310E+02  0.40659136019E+02  0.00000000000E+00 0. -1.
         11    1    3    3    0    0 -0.47006645806E+01 -0.84406872019E+01 -0.25419391509E+01  0.99901402817E+01  0.51100000000E-03 0. -1.
        -11    1    3    3    0    0 -0.15100438047E+01 -0.30470053441E+01  0.53818364388E+01  0.63662106134E+01  0.51100000000E-03 0.  1.
        -12    1    3    3    0    0  0.20139818622E+02 -0.19381730360E+02  0.19659524022E+02  0.34172513086E+02  0.00000000000E+00 0.  1.
</event>
<event>
 7    1  0.2755991E-011  0.5052888E+02  0.7816164E-02  0.1300439E+00
        -11   -1    0    0    0    0  0.00000000000E+00  0.00000000000E+00  0.45593999997E+02  0.45594000000E+02  0.51100000000E-03 0.  1.
         11   -1    0    0    0    0 -0.00000000000E+00 -0.00000000000E+00 -0.45593999997E+02  0.45594000000E+02  0.51100000000E-03 0. -1.
    9900012    2    1    2    0    0  0.10637934560E+02  0.40523209213E+01  0.39033023731E+02  0.50528881735E+02  0.30000066520E+02 0.  0.
         12    1    1    2    0    0 -0.10637934560E+02 -0.40523209213E+01 -0.39033023731E+02  0.40659118265E+02  0.00000000000E+00 0. -1.
         11    1    3    3    0    0  0.21003307168E+01 -0.28061498607E+01  0.43800364155E+00  0.35323807286E+01  0.51100000000E-03 0. -1.
        -11    1    3    3    0    0 -0.62590857321E+01 -0.48733747541E+01  0.11472927685E+02  0.13948261742E+02  0.51100000000E-03 0.  1.
        -12    1    3    3    0    0  0.14796689575E+02  0.11731845536E+02  0.27122092404E+02  0.33048239264E+02  0.00000000000E+00 0.  1.
</event>
<event>
 7    1  0.2755991E-011  0.5052896E+02  0.7816164E-02  0.1300438E+00
        -11   -1    0    0    0    0  0.00000000000E+00  0.00000000000E+00  0.45593999997E+02  0.45594000000E+02  0.51100000000E-03 0. -1.
         11   -1    0    0    0    0 -0.00000000000E+00 -0.00000000000E+00 -0.45593999997E+02  0.45594000000E+02  0.51100000000E-03 0.  1.
    9900012    2    1    2    0    0 -0.31982315630E+02  0.21023591412E+02 -0.13722150300E+02  0.50528962656E+02  0.30000312488E+02 0.  0.
         12    1    1    2    0    0  0.31982315630E+02 -0.21023591412E+02  0.13722150300E+02  0.40659037344E+02  0.00000000000E+00 0. -1.
         11    1    3    3    0    0 -0.28802081161E+00  0.72454895399E+01 -0.25656658433E+01  0.76917303736E+01  0.51100000000E-03 0. -1.
        -11    1    3    3    0    0 -0.24412201840E+02  0.14316459522E+02 -0.17407074294E+02  0.33225334425E+02  0.51100000000E-03 0.  1.
         12    1    3    3    0    0 -0.72820929778E+01 -0.53835765008E+00  0.62505898377E+01  0.96118978571E+01  0.00000000000E+00 0. -1.
</event>
<event>
 7    1  0.2755991E-011  0.5052887E+02  0.7816164E-02  0.1300439E+00
        -11   -1    0    0    0    0  0.00000000000E+00  0.00000000000E+00  0.45593999997E+02  0.45594000000E+02  0.51100000000E-03 0.  1.
         11   -1    0    0    0    0 -0.00000000000E+00 -0.00000000000E+00 -0.45593999997E+02  0.45594000000E+02  0.51100000000E-03 0. -1.
    9900012    2    1    2    0    0 -0.25868092635E+02 -0.16185926109E+02  0.26870480737E+02  0.50528866271E+02  0.30000019517E+02 0.  0.
         12    1    1    2    0    0  0.25868092635E+02  0.16185926109E+02 -0.26870480737E+02  0.40659133729E+02  0.00000000000E+00 0. -1.
         11    1    3    3    0    0 -0.24161886046E+02 -0.91924677373E+01  0.14343717474E+02  0.29564174800E+02  0.51100000000E-03 0. -1.
        -11    1    3    3    0    0 -0.71145448950E+01 -0.61323448744E+01  0.12309740326E+02  0.15483930698E+02  0.51100000000E-03 0.  1.
         12    1    3    3    0    0  0.54083383060E+01 -0.86111349720E+00  0.21702293682E+00  0.54807607722E+01  0.00000000000E+00 0. -1.
</event>
<event>
 7    1  0.2755991E-011  0.5052885E+02  0.7816164E-02  0.1300439E+00
        -11   -1    0    0    0    0  0.00000000000E+00  0.00000000000E+00  0.45593999997E+02  0.45594000000E+02  0.51100000000E-03 0. -1.
         11   -1    0    0    0    0 -0.00000000000E+00 -0.00000000000E+00 -0.45593999997E+02  0.45594000000E+02  0.51100000000E-03 0.  1.
    9900012    2    1    2    0    0  0.28576910610E+02 -0.22449261891E+02  0.18236145151E+02  0.50528853803E+02  0.29999981620E+02 0.  0.
         12    1    1    2    0    0 -0.28576910610E+02  0.22449261891E+02 -0.18236145151E+02  0.40659146197E+02  0.00000000000E+00 0. -1.
         11    1    3    3    0    0 -0.91946587634E+00 -0.45761516712E+00  0.35290207510E+01  0.36754342412E+01  0.51100000000E-03 0. -1.
        -11    1    3    3    0    0  0.52492707439E+01  0.18642358842E+01 -0.50482798126E+01  0.75176690604E+01  0.51100000000E-03 0.  1.
        -12    1    3    3    0    0  0.24247105743E+02 -0.23855882608E+02  0.19755404213E+02  0.39335750502E+02  0.00000000000E+00 0.  1.
</event>
<event>
 7    1  0.2755991E-011  0.5052890E+02  0.7816164E-02  0.1300439E+00
        -11   -1    0    0    0    0  0.00000000000E+00  0.00000000000E+00  0.45593999997E+02  0.45594000000E+02  0.51100000000E-03 0. -1.
         11   -1    0    0    0    0 -0.00000000000E+00 -0.00000000000E+00 -0.45593999997E+02  0.45594000000E+02  0.51100000000E-03 0.  1.
    9900012    2    1    2    0    0 -0.10181360945E+02  0.28314480488E+02 -0.27345791144E+02  0.50528902503E+02  0.30000129647E+02 0.  0.
         12    1    1    2    0    0  0.10181360945E+02 -0.28314480488E+02  0.27345791144E+02  0.40659097497E+02  0.00000000000E+00 0. -1.
         11    1    3    3    0    0  0.18086338946E+01  0.22667163589E+02 -0.11674718370E+02  0.25561113258E+02  0.51100000000E-03 0. -1.
        -11    1    3    3    0    0 -0.10593204587E+02  0.57901591623E+01 -0.32972265096E+01  0.12514536726E+02  0.51100000000E-03 0.  1.
        -12    1    3    3    0    0 -0.13967902525E+01 -0.14284226258E+00 -0.12373846264E+02  0.12453252518E+02  0.00000000000E+00 0.  1.
</event>
<event>
 7    1  0.2755991E-011  0.5052886E+02  0.7816164E-02  0.1300439E+00
        -11   -1    0    0    0    0  0.00000000000E+00  0.00000000000E+00  0.45593999997E+02  0.45594000000E+02  0.51100000000E-03 0.  1.
         11   -1    0    0    0    0 -0.00000000000E+00 -0.00000000000E+00 -0.45593999997E+02  0.45594000000E+02  0.51100000000E-03 0. -1.
    9900012    2    1    2    0    0  0.16004077460E+02 -0.30534018998E+02  0.21557103366E+02  0.50528861826E+02  0.30000006007E+02 0.  0.
         12    1    1    2    0    0 -0.16004077460E+02  0.30534018998E+02 -0.21557103366E+02  0.40659138174E+02  0.00000000000E+00 0. -1.
         11    1    3    3    0    0  0.35791403595E+01 -0.14548981357E+01  0.15139708659E+02  0.15624908090E+02  0.51100000000E-03 0. -1.
        -11    1    3    3    0    0  0.20010770703E+01 -0.19592268061E+02  0.67112740290E+01  0.20806308576E+02  0.51100000000E-03 0.  1.
        -12    1    3    3    0    0  0.10423860030E+02 -0.94868528011E+01 -0.29387932115E+00  0.14097645160E+02  0.00000000000E+00 0.  1.
</event>
<event>
 7    1  0.2755991E-011  0.5052886E+02  0.7816164E-02  0.1300439E+00
        -11   -1    0    0    0    0  0.00000000000E+00  0.00000000000E+00  0.45593999997E+02  0.45594000000E+02  0.51100000000E-03 0.  1.
         11   -1    0    0    0    0 -0.00000000000E+00 -0.00000000000E+00 -0.45593999997E+02  0.45594000000E+02  0.51100000000E-03 0. -1.
    9900012    2    1    2    0    0 -0.36975520778E+01  0.22027383684E+02  0.33974813487E+02  0.50528862346E+02  0.30000007586E+02 0.  0.
         12    1    1    2    0    0  0.36975520778E+01 -0.22027383684E+02 -0.33974813487E+02  0.40659137654E+02  0.00000000000E+00 0. -1.
         11    1    3    3    0    0  0.29755677406E+01  0.22373425414E+01 -0.21749929394E+01  0.43116469677E+01  0.51100000000E-03 0. -1.
        -11    1    3    3    0    0  0.12007321295E+01  0.10622831174E+02  0.32582825917E+01  0.11175987899E+02  0.51100000000E-03 0.  1.
         12    1    3    3    0    0 -0.78738519479E+01  0.91672099687E+01  0.32891523834E+02  0.35041227479E+02  0.00000000000E+00 0. -1.
</event>
<event>
 7    1  0.2755991E-011  0.5052886E+02  0.7816164E-02  0.1300439E+00
        -11   -1    0    0    0    0  0.00000000000E+00  0.00000000000E+00  0.45593999997E+02  0.45594000000E+02  0.51100000000E-03 0.  1.
         11   -1    0    0    0    0 -0.00000000000E+00 -0.00000000000E+00 -0.45593999997E+02  0.45594000000E+02  0.51100000000E-03 0. -1.
    9900012    2    1    2    0    0 -0.31284533521E+02 -0.11702376812E+02  0.23184009273E+02  0.50528856544E+02  0.29999989950E+02 0.  0.
         12    1    1    2    0    0  0.31284533521E+02  0.11702376812E+02 -0.23184009273E+02  0.40659143456E+02  0.00000000000E+00 0. -1.
         11    1    3    3    0    0 -0.15692776724E+02 -0.66054761975E+01  0.52233080548E+01  0.17809506012E+02  0.51100000000E-03 0. -1.
        -11    1    3    3    0    0 -0.19960681294E+02  0.73324815632E+00  0.11962321313E+02  0.23282258954E+02  0.51100000000E-03 0.  1.
         12    1    3    3    0    0  0.43689244968E+01 -0.58301487711E+01  0.59983799049E+01  0.94370915771E+01  0.00000000000E+00 0. -1.
</event>
<event>
 7    1  0.2755991E-011  0.5052886E+02  0.7816164E-02  0.1300439E+00
        -11   -1    0    0    0    0  0.00000000000E+00  0.00000000000E+00  0.45593999997E+02  0.45594000000E+02  0.51100000000E-03 0.  1.
         11   -1    0    0    0    0 -0.00000000000E+00 -0.00000000000E+00 -0.45593999997E+02  0.45594000000E+02  0.51100000000E-03 0. -1.
    9900012    2    1    2    0    0 -0.22101364593E+02  0.12854419706E+02  0.31614228640E+02  0.50528857420E+02  0.29999992614E+02 0.  0.
         12    1    1    2    0    0  0.22101364593E+02 -0.12854419706E+02 -0.31614228640E+02  0.40659142580E+02  0.00000000000E+00 0. -1.
         11    1    3    3    0    0 -0.32933788828E+01  0.10612694850E+02  0.10314945615E+02  0.15161587639E+02  0.51100000000E-03 0. -1.
        -11    1    3    3    0    0  0.37950967797E+01 -0.25007151646E+01  0.10791635488E+01  0.46712878447E+01  0.51100000000E-03 0.  1.
        -12    1    3    3    0    0 -0.22603082490E+02  0.47424400201E+01  0.20220119476E+02  0.30695981936E+02  0.00000000000E+00 0.  1.
</event>
<event>
 7    1  0.2755991E-011  0.5052886E+02  0.7816164E-02  0.1300439E+00
        -11   -1    0    0    0    0  0.00000000000E+00  0.00000000000E+00  0.45593999997E+02  0.45594000000E+02  0.51100000000E-03 0. -1.
         11   -1    0    0    0    0 -0.00000000000E+00 -0.00000000000E+00 -0.45593999997E+02  0.45594000000E+02  0.51100000000E-03 0.  1.
    9900012    2    1    2    0    0 -0.38836578346E+01 -0.32030576355E+02 -0.24741159053E+02  0.50528861161E+02  0.30000003986E+02 0.  0.
         12    1    1    2    0    0  0.38836578346E+01  0.32030576355E+02  0.24741159053E+02  0.40659138839E+02  0.00000000000E+00 0. -1.
         11    1    3    3    0    0 -0.67185873624E+01 -0.16249091650E+01 -0.66055618555E+00  0.69437799991E+01  0.51100000000E-03 0. -1.
        -11    1    3    3    0    0 -0.38911963476E+01  0.92236110010E+00 -0.10792144782E+01  0.41420843987E+01  0.51100000000E-03 0.  1.
        -12    1    3    3    0    0  0.67261258754E+01 -0.31328028291E+02 -0.23001388389E+02  0.39442996764E+02  0.00000000000E+00 0.  1.
</event>
<event>
 7    1  0.2755991E-011  0.5052887E+02  0.7816164E-02  0.1300439E+00
        -11   -1    0    0    0    0  0.00000000000E+00  0.00000000000E+00  0.45593999997E+02  0.45594000000E+02  0.51100000000E-03 0.  1.
         11   -1    0    0    0    0 -0.00000000000E+00 -0.00000000000E+00 -0.45593999997E+02  0.45594000000E+02  0.51100000000E-03 0. -1.
    9900012    2    1    2    0    0 -0.30702373209E+02 -0.24118202397E+02 -0.11350850675E+02  0.50528865497E+02  0.30000017164E+02 0.  0.
         12    1    1    2    0    0  0.30702373209E+02  0.24118202397E+02  0.11350850675E+02  0.40659134503E+02  0.00000000000E+00 0. -1.
         11    1    3    3    0    0 -0.10458901923E+02 -0.36117586955E+01 -0.85689504585E+01  0.13995011345E+02  0.51100000000E-03 0. -1.
        -11    1    3    3    0    0 -0.22684216941E+02 -0.22644142085E+02  0.30788094968E+00  0.32053481245E+02  0.51100000000E-03 0.  1.
         12    1    3    3    0    0  0.24407456553E+01  0.21376983838E+01 -0.30897811662E+01  0.44803729074E+01  0.00000000000E+00 0. -1.
</event>
<event>
 7    1  0.2755991E-011  0.5052887E+02  0.7816164E-02  0.1300439E+00
        -11   -1    0    0    0    0  0.00000000000E+00  0.00000000000E+00  0.45593999997E+02  0.45594000000E+02  0.51100000000E-03 0.  1.
         11   -1    0    0    0    0 -0.00000000000E+00 -0.00000000000E+00 -0.45593999997E+02  0.45594000000E+02  0.51100000000E-03 0. -1.
    9900012    2    1    2    0    0 -0.19241844445E+02  0.17420297059E+02  0.31296164678E+02  0.50528865100E+02  0.30000015959E+02 0.  0.
         12    1    1    2    0    0  0.19241844445E+02 -0.17420297059E+02 -0.31296164678E+02  0.40659134900E+02  0.00000000000E+00 0. -1.
         11    1    3    3    0    0 -0.12820080711E+02  0.28104841188E+00  0.45089935413E+01  0.13592809888E+02  0.51100000000E-03 0. -1.
        -11    1    3    3    0    0 -0.10823794470E+02  0.17175570510E+02  0.24949514330E+02  0.32165711785E+02  0.51100000000E-03 0.  1.
        -12    1    3    3    0    0  0.44020307357E+01 -0.36321862931E-01  0.18376568067E+01  0.47703434273E+01  0.00000000000E+00 0.  1.
</event>
<event>
 7    1  0.2755991E-011  0.5052886E+02  0.7816164E-02  0.1300439E+00
        -11   -1    0    0    0    0  0.00000000000E+00  0.00000000000E+00  0.45593999997E+02  0.45594000000E+02  0.51100000000E-03 0.  1.
         11   -1    0    0    0    0 -0.00000000000E+00 -0.00000000000E+00 -0.45593999997E+02  0.45594000000E+02  0.51100000000E-03 0. -1.
    9900012    2    1    2    0    0  0.41635048345E+01 -0.29921544482E+02  0.27212719780E+02  0.50528859398E+02  0.29999998625E+02 0.  0.
         12    1    1    2    0    0 -0.41635048345E+01  0.29921544482E+02 -0.27212719780E+02  0.40659140602E+02  0.00000000000E+00 0. -1.
         11    1    3    3    0    0 -0.62716595681E+01 -0.10126837595E+01  0.84431364301E+01  0.10566257387E+02  0.51100000000E-03 0. -1.
        -11    1    3    3    0    0  0.41315532828E+00 -0.40781870318E+01  0.11511372602E+02  0.12219411043E+02  0.51100000000E-03 0.  1.
         12    1    3    3    0    0  0.10022009074E+02 -0.24830673690E+02  0.72582107483E+01  0.27743190968E+02  0.00000000000E+00 0. -1.
</event>
<event>
 7    1  0.2755991E-011  0.5052891E+02  0.7816164E-02  0.1300439E+00
        -11   -1    0    0    0    0  0.00000000000E+00  0.00000000000E+00  0.45593999997E+02  0.45594000000E+02  0.51100000000E-03 0.  1.
         11   -1    0    0    0    0 -0.00000000000E+00 -0.00000000000E+00 -0.45593999997E+02  0.45594000000E+02  0.51100000000E-03 0. -1.
    9900012    2    1    2    0    0 -0.29726577504E+02 -0.23611009372E+02  0.14560655493E+02  0.50528906773E+02  0.30000142626E+02 0.  0.
         12    1    1    2    0    0  0.29726577504E+02  0.23611009372E+02 -0.14560655493E+02  0.40659093227E+02  0.00000000000E+00 0. -1.
         11    1    3    3    0    0 -0.10763871302E+02 -0.14364032734E+02 -0.20059829431E+00  0.17950671345E+02  0.51100000000E-03 0. -1.
        -11    1    3    3    0    0 -0.12477525703E+02 -0.14319649394E+02  0.46785609865E+01  0.19560928904E+02  0.51100000000E-03 0.  1.
         12    1    3    3    0    0 -0.64851804991E+01  0.50726727567E+01  0.10082692801E+02  0.13017306523E+02  0.00000000000E+00 0. -1.
</event>
<event>
 7    1  0.2755991E-011  0.5052886E+02  0.7816164E-02  0.1300439E+00
        -11   -1    0    0    0    0  0.00000000000E+00  0.00000000000E+00  0.45593999997E+02  0.45594000000E+02  0.51100000000E-03 0. -1.
         11   -1    0    0    0    0 -0.00000000000E+00 -0.00000000000E+00 -0.45593999997E+02  0.45594000000E+02  0.51100000000E-03 0.  1.
    9900012    2    1    2    0    0 -0.22534751567E+02 -0.18457150357E+02 -0.28366956596E+02  0.50528860142E+02  0.30000000887E+02 0.  0.
         12    1    1    2    0    0  0.22534751567E+02  0.18457150357E+02  0.28366956596E+02  0.40659139858E+02  0.00000000000E+00 0. -1.
         11    1    3    3    0    0 -0.47803911318E+01 -0.55557048966E+01  0.43561932754E+01  0.85261020628E+01  0.51100000000E-03 0. -1.
        -11    1    3    3    0    0 -0.73346070709E+01  0.24867153885E+01 -0.92831579161E+01  0.12089550673E+02  0.51100000000E-03 0.  1.
         12    1    3    3    0    0 -0.10419753364E+02 -0.15388160848E+02 -0.23439991956E+02  0.29913207407E+02  0.00000000000E+00 0. -1.
</event>
<event>
 7    1  0.2755991E-011  0.5052885E+02  0.7816164E-02  0.1300439E+00
        -11   -1    0    0    0    0  0.00000000000E+00  0.00000000000E+00  0.45593999997E+02  0.45594000000E+02  0.51100000000E-03 0.  1.
         11   -1    0    0    0    0 -0.00000000000E+00 -0.00000000000E+00 -0.45593999997E+02  0.45594000000E+02  0.51100000000E-03 0. -1.
    9900012    2    1    2    0    0 -0.14609200588E+02 -0.76865151561E+01  0.37157170624E+02  0.50528848682E+02  0.29999966055E+02 0.  0.
         12    1    1    2    0    0  0.14609200588E+02  0.76865151561E+01 -0.37157170624E+02  0.40659151318E+02  0.00000000000E+00 0. -1.
         11    1    3    3    0    0 -0.99272534021E+01 -0.23300440371E+01  0.19149642485E+01  0.10375285715E+02  0.51100000000E-03 0. -1.
        -11    1    3    3    0    0  0.16611397796E+01  0.57073174059E+01  0.71223146349E+01  0.92768649532E+01  0.51100000000E-03 0.  1.
         12    1    3    3    0    0 -0.63430869655E+01 -0.11063788525E+02  0.28119891741E+02  0.30876698015E+02  0.00000000000E+00 0. -1.
</event>
<event>
 7    1  0.2755991E-011  0.5052886E+02  0.7816164E-02  0.1300439E+00
        -11   -1    0    0    0    0  0.00000000000E+00  0.00000000000E+00  0.45593999997E+02  0.45594000000E+02  0.51100000000E-03 0.  1.
         11   -1    0    0    0    0 -0.00000000000E+00 -0.00000000000E+00 -0.45593999997E+02  0.45594000000E+02  0.51100000000E-03 0. -1.
    9900012    2    1    2    0    0 -0.35487926242E+02  0.12129699082E+02  0.15704864729E+02  0.50528864680E+02  0.30000014682E+02 0.  0.
         12    1    1    2    0    0  0.35487926242E+02 -0.12129699082E+02 -0.15704864729E+02  0.40659135320E+02  0.00000000000E+00 0. -1.
         11    1    3    3    0    0 -0.10133875209E+01  0.25509985002E+01  0.36868483275E+00  0.27695624894E+01  0.51100000000E-03 0. -1.
        -11    1    3    3    0    0 -0.24844669198E+02  0.13502322486E+02 -0.11134466648E+01  0.28298587664E+02  0.51100000000E-03 0.  1.
         12    1    3    3    0    0 -0.96298695236E+01 -0.39236219037E+01  0.16449626561E+02  0.19460714526E+02  0.00000000000E+00 0. -1.
</event>
<event>
 7    1  0.2755991E-011  0.5052886E+02  0.7816164E-02  0.1300439E+00
        -11   -1    0    0    0    0  0.00000000000E+00  0.00000000000E+00  0.45593999997E+02  0.45594000000E+02  0.51100000000E-03 0.  1.
         11   -1    0    0    0    0 -0.00000000000E+00 -0.00000000000E+00 -0.45593999997E+02  0.45594000000E+02  0.51100000000E-03 0. -1.
    9900012    2    1    2    0    0 -0.19139490131E+01  0.34252916832E+02  0.21822930891E+02  0.50528858039E+02  0.29999994496E+02 0.  0.
         12    1    1    2    0    0  0.19139490131E+01 -0.34252916832E+02 -0.21822930891E+02  0.40659141961E+02  0.00000000000E+00 0. -1.
         11    1    3    3    0    0 -0.58807243534E+01 -0.27374709032E+00 -0.14310376555E+01  0.60585250204E+01  0.51100000000E-03 0. -1.
        -11    1    3    3    0    0  0.29908968206E+01  0.64834593193E+01  0.12547905619E+02  0.14437127284E+02  0.51100000000E-03 0.  1.
        -12    1    3    3    0    0  0.97587851976E+00  0.28043204603E+02  0.10706062927E+02  0.30033205734E+02  0.00000000000E+00 0.  1.
</event>
<event>
 7    1  0.2755991E-011  0.5052884E+02  0.7816164E-02  0.1300439E+00
        -11   -1    0    0    0    0  0.00000000000E+00  0.00000000000E+00  0.45593999997E+02  0.45594000000E+02  0.51100000000E-03 0.  1.
         11   -1    0    0    0    0 -0.00000000000E+00 -0.00000000000E+00 -0.45593999997E+02  0.45594000000E+02  0.51100000000E-03 0. -1.
    9900012    2    1    2    0    0  0.20089414724E+02  0.98905222703E+01  0.33937588191E+02  0.50528844734E+02  0.29999954053E+02 0.  0.
         12    1    1    2    0    0 -0.20089414724E+02 -0.98905222703E+01 -0.33937588191E+02  0.40659155266E+02  0.00000000000E+00 0. -1.
         11    1    3    3    0    0  0.11700201924E+02  0.14054026594E+02  0.16387309776E+02  0.24555127988E+02  0.51100000000E-03 0. -1.
        -11    1    3    3    0    0  0.10640994901E+02  0.27448997612E+01  0.65592468733E+01  0.12798006367E+02  0.51100000000E-03 0.  1.
         12    1    3    3    0    0 -0.22517821005E+01 -0.69084040845E+01  0.10991031542E+02  0.13175710378E+02  0.00000000000E+00 0. -1.
</event>
<event>
 7    1  0.2755991E-011  0.5052885E+02  0.7816164E-02  0.1300439E+00
        -11   -1    0    0    0    0  0.00000000000E+00  0.00000000000E+00  0.45593999997E+02  0.45594000000E+02  0.51100000000E-03 0.  1.
         11   -1    0    0    0    0 -0.00000000000E+00 -0.00000000000E+00 -0.45593999997E+02  0.45594000000E+02  0.51100000000E-03 0. -1.
    9900012    2    1    2    0    0 -0.29214327015E+02 -0.21968649448E+02  0.17806405107E+02  0.50528849439E+02  0.29999968354E+02 0.  0.
         12    1    1    2    0    0  0.29214327015E+02  0.21968649448E+02 -0.17806405107E+02  0.40659150561E+02  0.00000000000E+00 0. -1.
         11    1    3    3    0    0 -0.19257729804E+01 -0.12252241162E+02  0.10625330528E+01  0.12448091895E+02  0.51100000000E-03 0. -1.
        -11    1    3    3    0    0 -0.75830929691E+01  0.52328074232E+01  0.66671583696E+01  0.11372623861E+02  0.51100000000E-03 0.  1.
         12    1    3    3    0    0 -0.19705461066E+02 -0.14949215709E+02  0.10076713685E+02  0.26708133683E+02  0.00000000000E+00 0. -1.
</event>
<event>
 7    1  0.2755991E-011  0.5052887E+02  0.7816164E-02  0.1300439E+00
        -11   -1    0    0    0    0  0.00000000000E+00  0.00000000000E+00  0.45593999997E+02  0.45594000000E+02  0.51100000000E-03 0.  1.
         11   -1    0    0    0    0 -0.00000000000E+00 -0.00000000000E+00 -0.45593999997E+02  0.45594000000E+02  0.51100000000E-03 0. -1.
    9900012    2    1    2    0    0 -0.43666839328E+01  0.21171136585E+02  0.34436601686E+02  0.50528874474E+02  0.30000044451E+02 0.  0.
         12    1    1    2    0    0  0.43666839328E+01 -0.21171136585E+02 -0.34436601686E+02  0.40659125526E+02  0.00000000000E+00 0. -1.
         11    1    3    3    0    0  0.65659814814E+01  0.57374573539E+01  0.76915953631E+01  0.11627173741E+02  0.51100000000E-03 0.  1.
        -11    1    3    3    0    0 -0.13124959852E+02  0.18579403965E+02  0.16906213128E+02  0.28342174677E+02  0.51100000000E-03 0. -1.
         12    1    3    3    0    0  0.21922944378E+01 -0.31457247343E+01  0.98387931950E+01  0.10559526057E+02  0.00000000000E+00 0. -1.
</event>
<event>
 7    1  0.2755991E-011  0.5052886E+02  0.7816164E-02  0.1300439E+00
        -11   -1    0    0    0    0  0.00000000000E+00  0.00000000000E+00  0.45593999997E+02  0.45594000000E+02  0.51100000000E-03 0. -1.
         11   -1    0    0    0    0 -0.00000000000E+00 -0.00000000000E+00 -0.45593999997E+02  0.45594000000E+02  0.51100000000E-03 0.  1.
    9900012    2    1    2    0    0  0.27189231070E+01 -0.17754028805E+02 -0.36476945144E+02  0.50528860699E+02  0.30000002580E+02 0.  0.
         12    1    1    2    0    0 -0.27189231070E+01  0.17754028805E+02  0.36476945144E+02  0.40659139301E+02  0.00000000000E+00 0. -1.
         11    1    3    3    0    0  0.23600780544E+01  0.58126277486E+00 -0.30779795165E+01  0.39219629016E+01  0.51100000000E-03 0. -1.
        -11    1    3    3    0    0  0.83123824908E+01 -0.99906413410E+01 -0.32548954600E+02  0.35047725503E+02  0.51100000000E-03 0.  1.
        -12    1    3    3    0    0 -0.79535374381E+01 -0.83446502385E+01 -0.85001102750E+00  0.11559172294E+02  0.00000000000E+00 0.  1.
</event>
<event>
 7    1  0.2755991E-011  0.5052883E+02  0.7816164E-02  0.1300439E+00
        -11   -1    0    0    0    0  0.00000000000E+00  0.00000000000E+00  0.45593999997E+02  0.45594000000E+02  0.51100000000E-03 0.  1.
         11   -1    0    0    0    0 -0.00000000000E+00 -0.00000000000E+00 -0.45593999997E+02  0.45594000000E+02  0.51100000000E-03 0. -1.
    9900012    2    1    2    0    0  0.39407064000E+02 -0.19546172302E+01 -0.98199072083E+01  0.50528833761E+02  0.29999920701E+02 0.  0.
         12    1    1    2    0    0 -0.39407064000E+02  0.19546172302E+01  0.98199072083E+01  0.40659166239E+02  0.00000000000E+00 0. -1.
         11    1    3    3    0    0  0.21475097267E+02  0.73593864428E+01 -0.93823021142E+01  0.24563549513E+02  0.51100000000E-03 0. -1.
        -11    1    3    3    0    0  0.14968198787E+02  0.12207016135E+01 -0.23266163385E+00  0.15019694372E+02  0.51100000000E-03 0.  1.
         12    1    3    3    0    0  0.29637679464E+01 -0.10534705286E+02 -0.20494346023E+00  0.10945589876E+02  0.00000000000E+00 0. -1.
</event>
<event>
 7    1  0.2755991E-011  0.5052885E+02  0.7816164E-02  0.1300439E+00
        -11   -1    0    0    0    0  0.00000000000E+00  0.00000000000E+00  0.45593999997E+02  0.45594000000E+02  0.51100000000E-03 0.  1.
         11   -1    0    0    0    0 -0.00000000000E+00 -0.00000000000E+00 -0.45593999997E+02  0.45594000000E+02  0.51100000000E-03 0. -1.
    9900012    2    1    2    0    0  0.14349898971E+02 -0.62990541559E+01  0.37517577804E+02  0.50528851854E+02  0.29999975695E+02 0.  0.
         12    1    1    2    0    0 -0.14349898971E+02  0.62990541559E+01 -0.37517577804E+02  0.40659148146E+02  0.00000000000E+00 0. -1.
         11    1    3    3    0    0  0.10902266882E+01 -0.52530619892E+01  0.98993246565E+00  0.54555678936E+01  0.51100000000E-03 0. -1.
        -11    1    3    3    0    0  0.11668537171E+02  0.88120227252E+01  0.29301632306E+02  0.32747399291E+02  0.51100000000E-03 0.  1.
         12    1    3    3    0    0  0.15911351113E+01 -0.98580148919E+01  0.72260130314E+01  0.12325884669E+02  0.00000000000E+00 0. -1.
</event>
<event>
 7    1  0.2755991E-011  0.5052887E+02  0.7816164E-02  0.1300439E+00
        -11   -1    0    0    0    0  0.00000000000E+00  0.00000000000E+00  0.45593999997E+02  0.45594000000E+02  0.51100000000E-03 0.  1.
         11   -1    0    0    0    0 -0.00000000000E+00 -0.00000000000E+00 -0.45593999997E+02  0.45594000000E+02  0.51100000000E-03 0. -1.
    9900012    2    1    2    0    0  0.16518204485E+02 -0.14091327463E+02 -0.34376563686E+02  0.50528871628E+02  0.30000035801E+02 0.  0.
         12    1    1    2    0    0 -0.16518204485E+02  0.14091327463E+02  0.34376563686E+02  0.40659128372E+02  0.00000000000E+00 0. -1.
         11    1    3    3    0    0 -0.28275169348E+01  0.46175706226E+01 -0.12326172202E+02  0.13462961483E+02  0.51100000000E-03 0. -1.
        -11    1    3    3    0    0 -0.17843444082E+01 -0.20618965008E+01 -0.98452142257E+00  0.28990662013E+01  0.51100000000E-03 0.  1.
         12    1    3    3    0    0  0.21130065828E+02 -0.16647001584E+02 -0.21065870062E+02  0.34166843944E+02  0.00000000000E+00 0. -1.
</event>
<event>
 7    1  0.2755991E-011  0.5052886E+02  0.7816164E-02  0.1300439E+00
        -11   -1    0    0    0    0  0.00000000000E+00  0.00000000000E+00  0.45593999997E+02  0.45594000000E+02  0.51100000000E-03 0. -1.
         11   -1    0    0    0    0 -0.00000000000E+00 -0.00000000000E+00 -0.45593999997E+02  0.45594000000E+02  0.51100000000E-03 0.  1.
    9900012    2    1    2    0    0  0.35125785863E+01 -0.67507383489E+01 -0.39940645478E+02  0.50528857882E+02  0.29999994017E+02 0.  0.
         12    1    1    2    0    0 -0.35125785863E+01  0.67507383489E+01  0.39940645478E+02  0.40659142118E+02  0.00000000000E+00 0. -1.
         11    1    3    3    0    0 -0.32072279846E+01 -0.10508836812E+02 -0.84326478971E+01  0.13850325386E+02  0.51100000000E-03 0. -1.
        -11    1    3    3    0    0  0.44478189127E+01 -0.60842918988E+01 -0.75023736530E+01  0.10634251816E+02  0.51100000000E-03 0.  1.
        -12    1    3    3    0    0  0.22719876583E+01  0.98423903618E+01 -0.24005623928E+02  0.26044280680E+02  0.00000000000E+00 0.  1.
</event>
<event>
 7    1  0.2755991E-011  0.5052889E+02  0.7816164E-02  0.1300439E+00
        -11   -1    0    0    0    0  0.00000000000E+00  0.00000000000E+00  0.45593999997E+02  0.45594000000E+02  0.51100000000E-03 0.  1.
         11   -1    0    0    0    0 -0.00000000000E+00 -0.00000000000E+00 -0.45593999997E+02  0.45594000000E+02  0.51100000000E-03 0. -1.
    9900012    2    1    2    0    0 -0.23897134266E+02  0.16544935822E+02  0.28431593357E+02  0.50528887512E+02  0.30000084081E+02 0.  0.
         12    1    1    2    0    0  0.23897134266E+02 -0.16544935822E+02 -0.28431593357E+02  0.40659112488E+02  0.00000000000E+00 0. -1.
         11    1    3    3    0    0  0.13019695739E+01 -0.72042167810E+00  0.82661388679E+00  0.17021818189E+01  0.51100000000E-03 0.  1.
        -11    1    3    3    0    0 -0.20115476079E+01  0.74572771593E-01  0.18428630197E+02  0.18538238753E+02  0.51100000000E-03 0. -1.
         12    1    3    3    0    0 -0.23187556232E+02  0.17190784728E+02  0.91763492739E+01  0.30288466940E+02  0.00000000000E+00 0. -1.
</event>
<event>
 7    1  0.2755991E-011  0.5052885E+02  0.7816164E-02  0.1300439E+00
        -11   -1    0    0    0    0  0.00000000000E+00  0.00000000000E+00  0.45593999997E+02  0.45594000000E+02  0.51100000000E-03 0. -1.
         11   -1    0    0    0    0 -0.00000000000E+00 -0.00000000000E+00 -0.45593999997E+02  0.45594000000E+02  0.51100000000E-03 0.  1.
    9900012    2    1    2    0    0  0.21718239820E+02 -0.25892985228E+02  0.22606139300E+02  0.50528853932E+02  0.29999982013E+02 0.  0.
         12    1    1    2    0    0 -0.21718239820E+02  0.25892985228E+02 -0.22606139300E+02  0.40659146068E+02  0.00000000000E+00 0. -1.
         11    1    3    3    0    0  0.16813963549E+02 -0.59739231677E+01  0.17755705375E+02  0.25172647892E+02  0.51100000000E-03 0. -1.
        -11    1    3    3    0    0  0.51484194183E+00 -0.15980624215E+02  0.88075710338E+01  0.18254279507E+02  0.51100000000E-03 0.  1.
        -12    1    3    3    0    0  0.43894343294E+01 -0.39384378448E+01 -0.39571371093E+01  0.71019265338E+01  0.00000000000E+00 0.  1.
</event>
<event>
 7    1  0.2755991E-011  0.5052885E+02  0.7816164E-02  0.1300439E+00
        -11   -1    0    0    0    0  0.00000000000E+00  0.00000000000E+00  0.45593999997E+02  0.45594000000E+02  0.51100000000E-03 0. -1.
         11   -1    0    0    0    0 -0.00000000000E+00 -0.00000000000E+00 -0.45593999997E+02  0.45594000000E+02  0.51100000000E-03 0.  1.
    9900012    2    1    2    0    0  0.13016340742E+02 -0.53949086155E+01 -0.38139696808E+02  0.50528848042E+02  0.29999964110E+02 0.  0.
         12    1    1    2    0    0 -0.13016340742E+02  0.53949086155E+01  0.38139696808E+02  0.40659151958E+02  0.00000000000E+00 0. -1.
         11    1    3    3    0    0  0.45388332215E+01 -0.69185164279E+01 -0.32392814315E+02  0.33432937294E+02  0.51100000000E-03 0. -1.
        -11    1    3    3    0    0  0.58851167844E+01 -0.10604469861E+01 -0.98963556433E+01  0.11562742004E+02  0.51100000000E-03 0.  1.
         12    1    3    3    0    0  0.25923907364E+01  0.25840547985E+01  0.41494731501E+01  0.55331687445E+01  0.00000000000E+00 0. -1.
</event>
<event>
 7    1  0.2755991E-011  0.5052886E+02  0.7816164E-02  0.1300439E+00
        -11   -1    0    0    0    0  0.00000000000E+00  0.00000000000E+00  0.45593999997E+02  0.45594000000E+02  0.51100000000E-03 0. -1.
         11   -1    0    0    0    0 -0.00000000000E+00 -0.00000000000E+00 -0.45593999997E+02  0.45594000000E+02  0.51100000000E-03 0.  1.
    9900012    2    1    2    0    0  0.10639386867E+02 -0.33922498269E+02 -0.19728991321E+02  0.50528861541E+02  0.30000005139E+02 0.  0.
         12    1    1    2    0    0 -0.10639386867E+02  0.33922498269E+02  0.19728991321E+02  0.40659138459E+02  0.00000000000E+00 0. -1.
         11    1    3    3    0    0 -0.73281055429E+01 -0.47344155060E+01 -0.60471619290E+01  0.10615271484E+02  0.51100000000E-03 0. -1.
        -11    1    3    3    0    0  0.11079690214E+02 -0.28147113629E+02 -0.12965468658E+02  0.32910832847E+02  0.51100000000E-03 0.  1.
         12    1    3    3    0    0  0.68878021965E+01 -0.10409691337E+01 -0.71636073396E+00  0.70027572096E+01  0.00000000000E+00 0. -1.
</event>
<event>
 7    1  0.2755991E-011  0.5052886E+02  0.7816164E-02  0.1300439E+00
        -11   -1    0    0    0    0  0.00000000000E+00  0.00000000000E+00  0.45593999997E+02  0.45594000000E+02  0.51100000000E-03 0. -1.
         11   -1    0    0    0    0 -0.00000000000E+00 -0.00000000000E+00 -0.45593999997E+02  0.45594000000E+02  0.51100000000E-03 0.  1.
    9900012    2    1    2    0    0 -0.37299107379E+02  0.16131331049E+02  0.13123704921E+01  0.50528861187E+02  0.30000004064E+02 0.  0.
         12    1    1    2    0    0  0.37299107379E+02 -0.16131331049E+02 -0.13123704921E+01  0.40659138813E+02  0.00000000000E+00 0. -1.
         11    1    3    3    0    0 -0.12427670072E+02  0.45235237954E+00  0.15258170846E+01  0.12529154965E+02  0.51100000000E-03 0. -1.
        -11    1    3    3    0    0 -0.18023621055E+02 -0.54403956249E+00  0.64808507728E+01  0.19161114842E+02  0.51100000000E-03 0.  1.
         12    1    3    3    0    0 -0.68478162517E+01  0.16223018232E+02 -0.66942973652E+01  0.18838591380E+02  0.00000000000E+00 0. -1.
</event>
<event>
 7    1  0.2755991E-011  0.5052889E+02  0.7816164E-02  0.1300439E+00
        -11   -1    0    0    0    0  0.00000000000E+00  0.00000000000E+00  0.45593999997E+02  0.45594000000E+02  0.51100000000E-03 0.  1.
         11   -1    0    0    0    0 -0.00000000000E+00 -0.00000000000E+00 -0.45593999997E+02  0.45594000000E+02  0.51100000000E-03 0. -1.
    9900012    2    1    2    0    0  0.27859405123E+02 -0.18184609630E+01  0.29558583765E+02  0.50528891202E+02  0.30000095297E+02 0.  0.
         12    1    1    2    0    0 -0.27859405123E+02  0.18184609630E+01 -0.29558583765E+02  0.40659108798E+02  0.00000000000E+00 0. -1.
         11    1    3    3    0    0 -0.13287566888E+01 -0.22855543831E+01  0.27309828019E+01  0.38010025653E+01  0.51100000000E-03 0. -1.
        -11    1    3    3    0    0 -0.36539500194E+01 -0.21546503102E+01  0.26167845990E-02  0.42419188832E+01  0.51100000000E-03 0.  1.
        -12    1    3    3    0    0  0.32842111831E+02  0.26217437303E+01  0.26824984178E+02  0.42485969753E+02  0.00000000000E+00 0.  1.
</event>
<event>
 7    1  0.2755991E-011  0.5052887E+02  0.7816164E-02  0.1300439E+00
        -11   -1    0    0    0    0  0.00000000000E+00  0.00000000000E+00  0.45593999997E+02  0.45594000000E+02  0.51100000000E-03 0.  1.
         11   -1    0    0    0    0 -0.00000000000E+00 -0.00000000000E+00 -0.45593999997E+02  0.45594000000E+02  0.51100000000E-03 0. -1.
    9900012    2    1    2    0    0  0.16564160290E+02  0.33799811290E+02  0.15374205228E+02  0.50528870204E+02  0.30000031472E+02 0.  0.
         12    1    1    2    0    0 -0.16564160290E+02 -0.33799811290E+02 -0.15374205228E+02  0.40659129796E+02  0.00000000000E+00 0. -1.
         11    1    3    3    0    0  0.85170125202E+01  0.11709995984E+02  0.21336715513E+02  0.25786022131E+02  0.51100000000E-03 0.  1.
        -11    1    3    3    0    0  0.30731918111E+00  0.55249375801E+01 -0.27490674485E+01  0.61787338865E+01  0.51100000000E-03 0. -1.
        -12    1    3    3    0    0  0.77398285883E+01  0.16564877726E+02 -0.32134428363E+01  0.18564114186E+02  0.00000000000E+00 0.  1.
</event>
<event>
 7    1  0.2755991E-011  0.5052886E+02  0.7816164E-02  0.1300439E+00
        -11   -1    0    0    0    0  0.00000000000E+00  0.00000000000E+00  0.45593999997E+02  0.45594000000E+02  0.51100000000E-03 0.  1.
         11   -1    0    0    0    0 -0.00000000000E+00 -0.00000000000E+00 -0.45593999997E+02  0.45594000000E+02  0.51100000000E-03 0. -1.
    9900012    2    1    2    0    0  0.33589155511E+02  0.17021283490E+02 -0.15336551663E+02  0.50528864784E+02  0.30000014998E+02 0.  0.
         12    1    1    2    0    0 -0.33589155511E+02 -0.17021283490E+02  0.15336551663E+02  0.40659135216E+02  0.00000000000E+00 0. -1.
         11    1    3    3    0    0  0.21474431021E+01  0.11607885819E+02  0.16717145464E+01  0.11922632044E+02  0.51100000000E-03 0. -1.
        -11    1    3    3    0    0  0.60835472225E+01  0.36197325493E+01  0.14045446172E+01  0.72169769557E+01  0.51100000000E-03 0.  1.
         12    1    3    3    0    0  0.25358165186E+02  0.17936651215E+01 -0.18412810827E+02  0.31389255785E+02  0.00000000000E+00 0. -1.
</event>
<event>
 7    1  0.2755991E-011  0.5052885E+02  0.7816164E-02  0.1300439E+00
        -11   -1    0    0    0    0  0.00000000000E+00  0.00000000000E+00  0.45593999997E+02  0.45594000000E+02  0.51100000000E-03 0.  1.
         11   -1    0    0    0    0 -0.00000000000E+00 -0.00000000000E+00 -0.45593999997E+02  0.45594000000E+02  0.51100000000E-03 0. -1.
    9900012    2    1    2    0    0 -0.33975611116E+02 -0.20923976169E+02  0.78109958959E+01  0.50528848677E+02  0.29999966039E+02 0.  0.
         12    1    1    2    0    0  0.33975611116E+02  0.20923976169E+02 -0.78109958959E+01  0.40659151323E+02  0.00000000000E+00 0. -1.
         11    1    3    3    0    0 -0.10996969998E+02 -0.45074530588E+01 -0.64101257549E+01  0.13503340130E+02  0.51100000000E-03 0. -1.
        -11    1    3    3    0    0 -0.24875013645E+02 -0.15637621984E+02  0.79655858201E+01  0.30442603090E+02  0.51100000000E-03 0.  1.
        -12    1    3    3    0    0  0.18963725276E+01 -0.77890112585E+00  0.62555358307E+01  0.65829054571E+01  0.00000000000E+00 0.  1.
</event>
<event>
 7    1  0.2755991E-011  0.5052887E+02  0.7816164E-02  0.1300439E+00
        -11   -1    0    0    0    0  0.00000000000E+00  0.00000000000E+00  0.45593999997E+02  0.45594000000E+02  0.51100000000E-03 0. -1.
         11   -1    0    0    0    0 -0.00000000000E+00 -0.00000000000E+00 -0.45593999997E+02  0.45594000000E+02  0.51100000000E-03 0.  1.
    9900012    2    1    2    0    0 -0.40332242491E+02  0.26510301808E+01  0.44098724246E+01  0.50528871625E+02  0.30000035792E+02 0.  0.
         12    1    1    2    0    0  0.40332242491E+02 -0.26510301808E+01 -0.44098724246E+01  0.40659128375E+02  0.00000000000E+00 0. -1.
         11    1    3    3    0    0 -0.48674448840E+01 -0.41138457949E+01 -0.21258368664E+00  0.63765930565E+01  0.51100000000E-03 0. -1.
        -11    1    3    3    0    0 -0.13878147499E+02 -0.75249874788E+01 -0.49599877081E+01  0.16547806287E+02  0.51100000000E-03 0.  1.
         12    1    3    3    0    0 -0.21586650108E+02  0.14289863455E+02  0.95824438193E+01  0.27604472282E+02  0.00000000000E+00 0. -1.
</event>
<event>
 7    1  0.2755991E-011  0.5052886E+02  0.7816164E-02  0.1300439E+00
        -11   -1    0    0    0    0  0.00000000000E+00  0.00000000000E+00  0.45593999997E+02  0.45594000000E+02  0.51100000000E-03 0.  1.
         11   -1    0    0    0    0 -0.00000000000E+00 -0.00000000000E+00 -0.45593999997E+02  0.45594000000E+02  0.51100000000E-03 0. -1.
    9900012    2    1    2    0    0  0.39423673897E+02 -0.89628020038E+01 -0.43136668738E+01  0.50528860742E+02  0.30000002710E+02 0.  0.
         12    1    1    2    0    0 -0.39423673897E+02  0.89628020038E+01  0.43136668738E+01  0.40659139258E+02  0.00000000000E+00 0. -1.
         11    1    3    3    0    0  0.23381485527E+01  0.35015329155E+01  0.72319062965E+01  0.83682818042E+01  0.51100000000E-03 0. -1.
        -11    1    3    3    0    0  0.14536086968E+02 -0.34982516779E+01 -0.97039398078E+01  0.17824198080E+02  0.51100000000E-03 0.  1.
        -12    1    3    3    0    0  0.22549438376E+02 -0.89660832414E+01 -0.18416333625E+01  0.24336380857E+02  0.00000000000E+00 0.  1.
</event>
<event>
 7    1  0.2755991E-011  0.5052887E+02  0.7816164E-02  0.1300439E+00
        -11   -1    0    0    0    0  0.00000000000E+00  0.00000000000E+00  0.45593999997E+02  0.45594000000E+02  0.51100000000E-03 0.  1.
         11   -1    0    0    0    0 -0.00000000000E+00 -0.00000000000E+00 -0.45593999997E+02  0.45594000000E+02  0.51100000000E-03 0. -1.
    9900012    2    1    2    0    0 -0.53549595163E+01 -0.27345597135E+02  0.29609253488E+02  0.50528866140E+02  0.30000019120E+02 0.  0.
         12    1    1    2    0    0  0.53549595163E+01  0.27345597135E+02 -0.29609253488E+02  0.40659133860E+02  0.00000000000E+00 0. -1.
         11    1    3    3    0    0  0.34761195292E+01  0.15977632908E+01 -0.32115806886E-01  0.38258706461E+01  0.51100000000E-03 0. -1.
        -11    1    3    3    0    0  0.31249741937E+01 -0.24900787238E+01  0.12197798650E+02  0.12835585219E+02  0.51100000000E-03 0.  1.
         12    1    3    3    0    0 -0.11956053239E+02 -0.26453281702E+02  0.17443570645E+02  0.33867410275E+02  0.00000000000E+00 0. -1.
</event>
<event>
 7    1  0.2755991E-011  0.5052888E+02  0.7816164E-02  0.1300439E+00
        -11   -1    0    0    0    0  0.00000000000E+00  0.00000000000E+00  0.45593999997E+02  0.45594000000E+02  0.51100000000E-03 0. -1.
         11   -1    0    0    0    0 -0.00000000000E+00 -0.00000000000E+00 -0.45593999997E+02  0.45594000000E+02  0.51100000000E-03 0.  1.
    9900012    2    1    2    0    0 -0.30614709978E+02 -0.77564085132E+01 -0.25607458517E+02  0.50528877140E+02  0.30000052555E+02 0.  0.
         12    1    1    2    0    0  0.30614709978E+02  0.77564085132E+01  0.25607458517E+02  0.40659122860E+02  0.00000000000E+00 0. -1.
         11    1    3    3    0    0 -0.57299767190E+01 -0.29055681169E+01  0.30735027513E+01  0.71218943200E+01  0.51100000000E-03 0. -1.
        -11    1    3    3    0    0 -0.41420157749E+01  0.26536395436E+01  0.22555768461E+01  0.54116286528E+01  0.51100000000E-03 0.  1.
        -12    1    3    3    0    0 -0.20742717484E+02 -0.75044799399E+01 -0.30936538114E+02  0.37995354167E+02  0.00000000000E+00 0.  1.
</event>
<event>
 7    1  0.2755991E-011  0.5052886E+02  0.7816164E-02  0.1300439E+00
        -11   -1    0    0    0    0  0.00000000000E+00  0.00000000000E+00  0.45593999997E+02  0.45594000000E+02  0.51100000000E-03 0.  1.
         11   -1    0    0    0    0 -0.00000000000E+00 -0.00000000000E+00 -0.45593999997E+02  0.45594000000E+02  0.51100000000E-03 0. -1.
    9900012    2    1    2    0    0  0.17082175366E+02 -0.36886670245E+02  0.85953637561E+00  0.50528856382E+02  0.29999989458E+02 0.  0.
         12    1    1    2    0    0 -0.17082175366E+02  0.36886670245E+02 -0.85953637561E+00  0.40659143618E+02  0.00000000000E+00 0. -1.
         11    1    3    3    0    0  0.15615360129E+01 -0.20547251447E+02  0.78588452519E+01  0.22054237364E+02  0.51100000000E-03 0. -1.
        -11    1    3    3    0    0  0.10501472969E+02 -0.17783864298E+02 -0.12259411979E+01  0.20689361904E+02  0.51100000000E-03 0.  1.
         12    1    3    3    0    0  0.50191663835E+01  0.14444455003E+01 -0.57733676783E+01  0.77852571144E+01  0.00000000000E+00 0. -1.
</event>
<event>
 7    1  0.2755991E-011  0.5052884E+02  0.7816164E-02  0.1300439E+00
        -11   -1    0    0    0    0  0.00000000000E+00  0.00000000000E+00  0.45593999997E+02  0.45594000000E+02  0.51100000000E-03 0. -1.
         11   -1    0    0    0    0 -0.00000000000E+00 -0.00000000000E+00 -0.45593999997E+02  0.45594000000E+02  0.51100000000E-03 0.  1.
    9900012    2    1    2    0    0  0.82212409284E+01  0.23482769951E+01 -0.39750015803E+02  0.50528844038E+02  0.29999951937E+02 0.  0.
         12    1    1    2    0    0 -0.82212409284E+01 -0.23482769951E+01  0.39750015803E+02  0.40659155962E+02  0.00000000000E+00 0. -1.
         11    1    3    3    0    0  0.85311759091E+01 -0.42598217181E+01 -0.15257963297E+01  0.96568679272E+01  0.51100000000E-03 0. -1.
        -11    1    3    3    0    0  0.70420292303E+00 -0.35758398351E+01 -0.56116973250E+01  0.66913137283E+01  0.51100000000E-03 0.  1.
        -12    1    3    3    0    0 -0.10141379037E+01  0.10183938548E+02 -0.32612522148E+02  0.34180662382E+02  0.00000000000E+00 0.  1.
</event>
<event>
 7    1  0.2755991E-011  0.5052886E+02  0.7816164E-02  0.1300439E+00
        -11   -1    0    0    0    0  0.00000000000E+00  0.00000000000E+00  0.45593999997E+02  0.45594000000E+02  0.51100000000E-03 0. -1.
         11   -1    0    0    0    0 -0.00000000000E+00 -0.00000000000E+00 -0.45593999997E+02  0.45594000000E+02  0.51100000000E-03 0.  1.
    9900012    2    1    2    0    0 -0.30324775154E+01  0.81567011626E+01 -0.39716974259E+02  0.50528859109E+02  0.29999997747E+02 0.  0.
         12    1    1    2    0    0  0.30324775154E+01 -0.81567011626E+01  0.39716974259E+02  0.40659140891E+02  0.00000000000E+00 0. -1.
         11    1    3    3    0    0  0.88671170242E+00  0.61919817664E+00  0.18106722558E+01  0.21090752249E+01  0.51100000000E-03 0.  1.
        -11    1    3    3    0    0  0.17718383900E+01  0.52157803795E+01  0.87186205940E+00  0.55770888427E+01  0.51100000000E-03 0. -1.
        -12    1    3    3    0    0 -0.56910276078E+01  0.23217226065E+01 -0.42399508574E+02  0.42842695041E+02  0.00000000000E+00 0.  1.
</event>
<event>
 7    1  0.2755991E-011  0.5052884E+02  0.7816164E-02  0.1300439E+00
        -11   -1    0    0    0    0  0.00000000000E+00  0.00000000000E+00  0.45593999997E+02  0.45594000000E+02  0.51100000000E-03 0.  1.
         11   -1    0    0    0    0 -0.00000000000E+00 -0.00000000000E+00 -0.45593999997E+02  0.45594000000E+02  0.51100000000E-03 0. -1.
    9900012    2    1    2    0    0 -0.40631862637E+01 -0.24233724056E+02  0.32394200927E+02  0.50528842140E+02  0.29999946167E+02 0.  0.
         12    1    1    2    0    0  0.40631862637E+01  0.24233724056E+02 -0.32394200927E+02  0.40659157860E+02  0.00000000000E+00 0. -1.
         11    1    3    3    0    0  0.52108141588E+01  0.59225793154E+00  0.19317408264E+01  0.55888260428E+01  0.51100000000E-03 0. -1.
        -11    1    3    3    0    0 -0.11305155949E+02 -0.66267833294E+01  0.19818632408E+02  0.23759187678E+02  0.51100000000E-03 0.  1.
         12    1    3    3    0    0  0.20311555265E+01 -0.18199198658E+02  0.10643827692E+02  0.21180828419E+02  0.00000000000E+00 0. -1.
</event>
<event>
 7    1  0.2755991E-011  0.5052885E+02  0.7816164E-02  0.1300439E+00
        -11   -1    0    0    0    0  0.00000000000E+00  0.00000000000E+00  0.45593999997E+02  0.45594000000E+02  0.51100000000E-03 0. -1.
         11   -1    0    0    0    0 -0.00000000000E+00 -0.00000000000E+00 -0.45593999997E+02  0.45594000000E+02  0.51100000000E-03 0.  1.
    9900012    2    1    2    0    0 -0.24519868673E+02  0.23919572592E+02 -0.21904258188E+02  0.50528850482E+02  0.29999971526E+02 0.  0.
         12    1    1    2    0    0  0.24519868673E+02 -0.23919572592E+02  0.21904258188E+02  0.40659149518E+02  0.00000000000E+00 0. -1.
         11    1    3    3    0    0 -0.84893252780E+00 -0.29819394062E+01 -0.91186851103E+01  0.96313585470E+01  0.51100000000E-03 0. -1.
        -11    1    3    3    0    0 -0.78485214829E+01  0.17622207631E+02 -0.14735305279E+01  0.19347164747E+02  0.51100000000E-03 0.  1.
         12    1    3    3    0    0 -0.15822414662E+02  0.92793043673E+01 -0.11312042550E+02  0.21550327188E+02  0.00000000000E+00 0. -1.
</event>
<event>
 7    1  0.2755991E-011  0.5052883E+02  0.7816164E-02  0.1300439E+00
        -11   -1    0    0    0    0  0.00000000000E+00  0.00000000000E+00  0.45593999997E+02  0.45594000000E+02  0.51100000000E-03 0.  1.
         11   -1    0    0    0    0 -0.00000000000E+00 -0.00000000000E+00 -0.45593999997E+02  0.45594000000E+02  0.51100000000E-03 0. -1.
    9900012    2    1    2    0    0 -0.33723520370E+02 -0.15658678506E+02  0.16452902227E+02  0.50528830919E+02  0.29999912062E+02 0.  0.
         12    1    1    2    0    0  0.33723520370E+02  0.15658678506E+02 -0.16452902227E+02  0.40659169081E+02  0.00000000000E+00 0. -1.
         11    1    3    3    0    0 -0.49035388301E+00 -0.68506810543E+01  0.83564225188E+01  0.10816749762E+02  0.51100000000E-03 0. -1.
        -11    1    3    3    0    0 -0.16389754176E+02 -0.34575656442E+01 -0.52631689793E+01  0.17557897087E+02  0.51100000000E-03 0.  1.
         12    1    3    3    0    0 -0.16843412310E+02 -0.53504318070E+01  0.13359648688E+02  0.22154184071E+02  0.00000000000E+00 0. -1.
</event>
<event>
 7    1  0.2755991E-011  0.5052892E+02  0.7816164E-02  0.1300439E+00
        -11   -1    0    0    0    0  0.00000000000E+00  0.00000000000E+00  0.45593999997E+02  0.45594000000E+02  0.51100000000E-03 0.  1.
         11   -1    0    0    0    0 -0.00000000000E+00 -0.00000000000E+00 -0.45593999997E+02  0.45594000000E+02  0.51100000000E-03 0. -1.
    9900012    2    1    2    0    0 -0.24720539511E+02  0.34318117729E+01  0.32097948793E+02  0.50528920786E+02  0.30000185221E+02 0.  0.
         12    1    1    2    0    0  0.24720539511E+02 -0.34318117729E+01 -0.32097948793E+02  0.40659079214E+02  0.00000000000E+00 0. -1.
         11    1    3    3    0    0 -0.11039945743E+02  0.68260099769E+01  0.58086856027E+01  0.14220254671E+02  0.51100000000E-03 0. -1.
        -11    1    3    3    0    0 -0.10211696956E+02  0.29404680745E+01  0.18017288340E+01  0.10778280673E+02  0.51100000000E-03 0.  1.
        -12    1    3    3    0    0 -0.34688968119E+01 -0.63346662785E+01  0.24487534357E+02  0.25530385442E+02  0.00000000000E+00 0.  1.
</event>
<event>
 7    1  0.2755991E-011  0.5052886E+02  0.7816164E-02  0.1300439E+00
        -11   -1    0    0    0    0  0.00000000000E+00  0.00000000000E+00  0.45593999997E+02  0.45594000000E+02  0.51100000000E-03 0.  1.
         11   -1    0    0    0    0 -0.00000000000E+00 -0.00000000000E+00 -0.45593999997E+02  0.45594000000E+02  0.51100000000E-03 0. -1.
    9900012    2    1    2    0    0 -0.19346172584E+02  0.30722129225E+01 -0.35629381068E+02  0.50528859807E+02  0.29999999871E+02 0.  0.
         12    1    1    2    0    0  0.19346172584E+02 -0.30722129225E+01  0.35629381068E+02  0.40659140193E+02  0.00000000000E+00 0. -1.
         11    1    3    3    0    0 -0.10596860643E+02  0.10839338882E+02 -0.15277115683E+02  0.21521500569E+02  0.51100000000E-03 0. -1.
        -11    1    3    3    0    0 -0.33757999036E+01 -0.24749410197E+01  0.25457807670E+01  0.48992201435E+01  0.51100000000E-03 0.  1.
         12    1    3    3    0    0 -0.53735120373E+01 -0.52921849395E+01 -0.22898046152E+02  0.24108139095E+02  0.00000000000E+00 0. -1.
</event>
<event>
 7    1  0.2755991E-011  0.5052886E+02  0.7816164E-02  0.1300439E+00
        -11   -1    0    0    0    0  0.00000000000E+00  0.00000000000E+00  0.45593999997E+02  0.45594000000E+02  0.51100000000E-03 0.  1.
         11   -1    0    0    0    0 -0.00000000000E+00 -0.00000000000E+00 -0.45593999997E+02  0.45594000000E+02  0.51100000000E-03 0. -1.
    9900012    2    1    2    0    0  0.30661591358E+02  0.11988003436E+02  0.23860434573E+02  0.50528858973E+02  0.29999997335E+02 0.  0.
         12    1    1    2    0    0 -0.30661591358E+02 -0.11988003436E+02 -0.23860434573E+02  0.40659141027E+02  0.00000000000E+00 0. -1.
         11    1    3    3    0    0  0.99789467489E+00  0.67661983246E+00 -0.11331358310E+01  0.16545710177E+01  0.51100000000E-03 0. -1.
        -11    1    3    3    0    0  0.13921494837E+02  0.13952210207E+02  0.26291971900E+02  0.32859397054E+02  0.51100000000E-03 0.  1.
        -12    1    3    3    0    0  0.15742201847E+02 -0.26408266028E+01 -0.12984014953E+01  0.16014890901E+02  0.00000000000E+00 0.  1.
</event>
<event>
 7    1  0.2755991E-011  0.5052885E+02  0.7816164E-02  0.1300439E+00
        -11   -1    0    0    0    0  0.00000000000E+00  0.00000000000E+00  0.45593999997E+02  0.45594000000E+02  0.51100000000E-03 0. -1.
         11   -1    0    0    0    0 -0.00000000000E+00 -0.00000000000E+00 -0.45593999997E+02  0.45594000000E+02  0.51100000000E-03 0.  1.
    9900012    2    1    2    0    0  0.32507761239E+02  0.10641720684E+02 -0.21981021965E+02  0.50528854823E+02  0.29999984721E+02 0.  0.
         12    1    1    2    0    0 -0.32507761239E+02 -0.10641720684E+02  0.21981021965E+02  0.40659145177E+02  0.00000000000E+00 0. -1.
         11    1    3    3    0    0  0.60241663948E+00  0.21373959989E+01 -0.28248226082E+01  0.35931866766E+01  0.51100000000E-03 0.  1.
        -11    1    3    3    0    0  0.13334309934E+02  0.16220295778E+02 -0.16388013409E+02  0.26635855539E+02  0.51100000000E-03 0. -1.
        -12    1    3    3    0    0  0.18571034665E+02 -0.77159710936E+01 -0.27681859480E+01  0.20299812607E+02  0.00000000000E+00 0.  1.
</event>
<event>
 7    1  0.2755991E-011  0.5052886E+02  0.7816164E-02  0.1300439E+00
        -11   -1    0    0    0    0  0.00000000000E+00  0.00000000000E+00  0.45593999997E+02  0.45594000000E+02  0.51100000000E-03 0.  1.
         11   -1    0    0    0    0 -0.00000000000E+00 -0.00000000000E+00 -0.45593999997E+02  0.45594000000E+02  0.51100000000E-03 0. -1.
    9900012    2    1    2    0    0 -0.16315930951E+02 -0.16853554838E+02  0.33210144849E+02  0.50528860383E+02  0.30000001622E+02 0.  0.
         12    1    1    2    0    0  0.16315930951E+02  0.16853554838E+02 -0.33210144849E+02  0.40659139617E+02  0.00000000000E+00 0. -1.
         11    1    3    3    0    0 -0.61903375804E+01 -0.10995312907E+01  0.14799581310E+02  0.16079703220E+02  0.51100000000E-03 0. -1.
        -11    1    3    3    0    0 -0.16836911202E+02 -0.85774284166E+01  0.14721786639E+02  0.23953806778E+02  0.51100000000E-03 0.  1.
         12    1    3    3    0    0  0.67113178313E+01 -0.71765951303E+01  0.36887768998E+01  0.10495350385E+02  0.00000000000E+00 0. -1.
</event>
<event>
 7    1  0.2755991E-011  0.5052886E+02  0.7816164E-02  0.1300439E+00
        -11   -1    0    0    0    0  0.00000000000E+00  0.00000000000E+00  0.45593999997E+02  0.45594000000E+02  0.51100000000E-03 0.  1.
         11   -1    0    0    0    0 -0.00000000000E+00 -0.00000000000E+00 -0.45593999997E+02  0.45594000000E+02  0.51100000000E-03 0. -1.
    9900012    2    1    2    0    0  0.33704418099E+02  0.22729220518E+02  0.74883725182E+00  0.50528855617E+02  0.29999987132E+02 0.  0.
         12    1    1    2    0    0 -0.33704418099E+02 -0.22729220518E+02 -0.74883725182E+00  0.40659144383E+02  0.00000000000E+00 0. -1.
         11    1    3    3    0    0  0.19499101950E+02  0.30576955959E+00  0.63089578171E+01  0.20496619742E+02  0.51100000000E-03 0. -1.
        -11    1    3    3    0    0  0.90619256288E+01  0.32203765651E+01 -0.13508631448E+01  0.97115473958E+01  0.51100000000E-03 0.  1.
         12    1    3    3    0    0  0.51433905208E+01  0.19203074393E+02 -0.42092574205E+01  0.20320688478E+02  0.00000000000E+00 0. -1.
</event>
<event>
 7    1  0.2755991E-011  0.5052882E+02  0.7816164E-02  0.1300439E+00
        -11   -1    0    0    0    0  0.00000000000E+00  0.00000000000E+00  0.45593999997E+02  0.45594000000E+02  0.51100000000E-03 0. -1.
         11   -1    0    0    0    0 -0.00000000000E+00 -0.00000000000E+00 -0.45593999997E+02  0.45594000000E+02  0.51100000000E-03 0.  1.
    9900012    2    1    2    0    0  0.24196922763E+02 -0.32348123552E+02 -0.46126493756E+01  0.50528822650E+02  0.29999886927E+02 0.  0.
         12    1    1    2    0    0 -0.24196922763E+02  0.32348123552E+02  0.46126493756E+01  0.40659177350E+02  0.00000000000E+00 0. -1.
         11    1    3    3    0    0  0.49713098496E+01 -0.94010068940E+01  0.64396591738E+01  0.12432299175E+02  0.51100000000E-03 0. -1.
        -11    1    3    3    0    0 -0.25154571723E+01 -0.71231346104E+01  0.25355646914E+01  0.79684164066E+01  0.51100000000E-03 0.  1.
         12    1    3    3    0    0  0.21741070086E+02 -0.15823982047E+02 -0.13587873241E+02  0.30128107068E+02  0.00000000000E+00 0. -1.
</event>
<event>
 7    1  0.2755991E-011  0.5052888E+02  0.7816164E-02  0.1300439E+00
        -11   -1    0    0    0    0  0.00000000000E+00  0.00000000000E+00  0.45593999997E+02  0.45594000000E+02  0.51100000000E-03 0. -1.
         11   -1    0    0    0    0 -0.00000000000E+00 -0.00000000000E+00 -0.45593999997E+02  0.45594000000E+02  0.51100000000E-03 0.  1.
    9900012    2    1    2    0    0 -0.89112984206E+01 -0.25902360457E+02 -0.30046976449E+02  0.50528876663E+02  0.30000051106E+02 0.  0.
         12    1    1    2    0    0  0.89112984206E+01  0.25902360457E+02  0.30046976449E+02  0.40659123337E+02  0.00000000000E+00 0. -1.
         11    1    3    3    0    0  0.51630179417E+01  0.21947923098E+01 -0.43990851645E+01  0.71292228255E+01  0.51100000000E-03 0. -1.
        -11    1    3    3    0    0  0.17229763669E-01  0.10062246440E+01  0.10591900768E+01  0.14610505737E+01  0.51100000000E-03 0.  1.
        -12    1    3    3    0    0 -0.14091546126E+02 -0.29103377410E+02 -0.26707081361E+02  0.41938603264E+02  0.00000000000E+00 0.  1.
</event>
<event>
 7    1  0.2755991E-011  0.5052886E+02  0.7816164E-02  0.1300439E+00
        -11   -1    0    0    0    0  0.00000000000E+00  0.00000000000E+00  0.45593999997E+02  0.45594000000E+02  0.51100000000E-03 0.  1.
         11   -1    0    0    0    0 -0.00000000000E+00 -0.00000000000E+00 -0.45593999997E+02  0.45594000000E+02  0.51100000000E-03 0. -1.
    9900012    2    1    2    0    0  0.52710072990E+01 -0.27456513659E+02  0.29521550385E+02  0.50528860838E+02  0.30000003003E+02 0.  0.
         12    1    1    2    0    0 -0.52710072990E+01  0.27456513659E+02 -0.29521550385E+02  0.40659139162E+02  0.00000000000E+00 0. -1.
         11    1    3    3    0    0 -0.71726106118E+01 -0.10677708272E+02  0.11395417597E+02  0.17184741470E+02  0.51100000000E-03 0. -1.
        -11    1    3    3    0    0 -0.26491726336E+01 -0.10769102779E+02  0.10947957371E+02  0.15583627985E+02  0.51100000000E-03 0.  1.
         12    1    3    3    0    0  0.15092790544E+02 -0.60097026083E+01  0.71781754171E+01  0.17760491383E+02  0.00000000000E+00 0. -1.
</event>
<event>
 7    1  0.2755991E-011  0.5052886E+02  0.7816164E-02  0.1300439E+00
        -11   -1    0    0    0    0  0.00000000000E+00  0.00000000000E+00  0.45593999997E+02  0.45594000000E+02  0.51100000000E-03 0.  1.
         11   -1    0    0    0    0 -0.00000000000E+00 -0.00000000000E+00 -0.45593999997E+02  0.45594000000E+02  0.51100000000E-03 0. -1.
    9900012    2    1    2    0    0 -0.20162837440E+02  0.29166763591E+02  0.19897871403E+02  0.50528863285E+02  0.30000010442E+02 0.  0.
         12    1    1    2    0    0  0.20162837440E+02 -0.29166763591E+02 -0.19897871403E+02  0.40659136715E+02  0.00000000000E+00 0. -1.
         11    1    3    3    0    0 -0.13283797820E+02  0.22496124535E+02  0.16274598232E+02  0.30779822149E+02  0.51100000000E-03 0.  1.
        -11    1    3    3    0    0 -0.66228712508E+01  0.46192078904E+01  0.10111196690E+02  0.12939698757E+02  0.51100000000E-03 0. -1.
         12    1    3    3    0    0 -0.25616836862E+00  0.20514311660E+01 -0.64879235190E+01  0.68093423802E+01  0.00000000000E+00 0. -1.
</event>
<event>
 7    1  0.2755991E-011  0.5052886E+02  0.7816164E-02  0.1300439E+00
        -11   -1    0    0    0    0  0.00000000000E+00  0.00000000000E+00  0.45593999997E+02  0.45594000000E+02  0.51100000000E-03 0.  1.
         11   -1    0    0    0    0 -0.00000000000E+00 -0.00000000000E+00 -0.45593999997E+02  0.45594000000E+02  0.51100000000E-03 0. -1.
    9900012    2    1    2    0    0  0.17221089975E+02  0.36274288480E+02  0.63856073436E+01  0.50528856799E+02  0.29999990727E+02 0.  0.
         12    1    1    2    0    0 -0.17221089975E+02 -0.36274288480E+02 -0.63856073436E+01  0.40659143201E+02  0.00000000000E+00 0. -1.
         11    1    3    3    0    0  0.20330398161E+02  0.13947790054E+02  0.10098887199E+01  0.24675611689E+02  0.51100000000E-03 0. -1.
        -11    1    3    3    0    0 -0.36036014925E+01  0.10045764606E+01 -0.38644370498E+00  0.37609116688E+01  0.51100000000E-03 0.  1.
        -12    1    3    3    0    0  0.49429330718E+00  0.21321921966E+02  0.57621623287E+01  0.22092333441E+02  0.00000000000E+00 0.  1.
</event>
<event>
 7    1  0.2755991E-011  0.5052886E+02  0.7816164E-02  0.1300439E+00
        -11   -1    0    0    0    0  0.00000000000E+00  0.00000000000E+00  0.45593999997E+02  0.45594000000E+02  0.51100000000E-03 0.  1.
         11   -1    0    0    0    0 -0.00000000000E+00 -0.00000000000E+00 -0.45593999997E+02  0.45594000000E+02  0.51100000000E-03 0. -1.
    9900012    2    1    2    0    0  0.11932220296E+02 -0.28417280129E+02  0.26518777879E+02  0.50528864848E+02  0.30000015191E+02 0.  0.
         12    1    1    2    0    0 -0.11932220296E+02  0.28417280129E+02 -0.26518777879E+02  0.40659135152E+02  0.00000000000E+00 0. -1.
         11    1    3    3    0    0 -0.26601461687E+01  0.35378590603E+01  0.29123168250E+01  0.52985294111E+01  0.51100000000E-03 0. -1.
        -11    1    3    3    0    0 -0.11293094618E+01 -0.38881083332E+01  0.90611899518E+01  0.99246103135E+01  0.51100000000E-03 0.  1.
         12    1    3    3    0    0  0.15721675926E+02 -0.28067030857E+02  0.14545271102E+02  0.35305725123E+02  0.00000000000E+00 0. -1.
</event>
<event>
 7    1  0.2755991E-011  0.5052886E+02  0.7816164E-02  0.1300439E+00
        -11   -1    0    0    0    0  0.00000000000E+00  0.00000000000E+00  0.45593999997E+02  0.45594000000E+02  0.51100000000E-03 0.  1.
         11   -1    0    0    0    0 -0.00000000000E+00 -0.00000000000E+00 -0.45593999997E+02  0.45594000000E+02  0.51100000000E-03 0. -1.
    9900012    2    1    2    0    0  0.15154728584E+02  0.35848785893E+01  0.37558600857E+02  0.50528860175E+02  0.30000000989E+02 0.  0.
         12    1    1    2    0    0 -0.15154728584E+02 -0.35848785893E+01 -0.37558600857E+02  0.40659139825E+02  0.00000000000E+00 0. -1.
         11    1    3    3    0    0  0.44475246113E+01 -0.12005552409E+01  0.12001421741E+01  0.47604778703E+01  0.51100000000E-03 0. -1.
        -11    1    3    3    0    0 -0.27145474112E+01 -0.65766616082E+01  0.21822809136E+02  0.22953349307E+02  0.51100000000E-03 0.  1.
         12    1    3    3    0    0  0.13421751384E+02  0.11362095438E+02  0.14535649546E+02  0.22815032998E+02  0.00000000000E+00 0. -1.
</event>
<event>
 7    1  0.2755991E-011  0.5052886E+02  0.7816164E-02  0.1300439E+00
        -11   -1    0    0    0    0  0.00000000000E+00  0.00000000000E+00  0.45593999997E+02  0.45594000000E+02  0.51100000000E-03 0.  1.
         11   -1    0    0    0    0 -0.00000000000E+00 -0.00000000000E+00 -0.45593999997E+02  0.45594000000E+02  0.51100000000E-03 0. -1.
    9900012    2    1    2    0    0 -0.21742385869E+02 -0.19522239261E+02  0.28272181569E+02  0.50528863023E+02  0.30000009644E+02 0.  0.
         12    1    1    2    0    0  0.21742385869E+02  0.19522239261E+02 -0.28272181569E+02  0.40659136977E+02  0.00000000000E+00 0. -1.
         11    1    3    3    0    0  0.45212990881E+00 -0.26972782982E+01 -0.39329669171E+01  0.47904029793E+01  0.51100000000E-03 0. -1.
        -11    1    3    3    0    0 -0.54436786274E+01 -0.16195618683E+00 -0.41335791825E+00  0.54617517185E+01  0.51100000000E-03 0.  1.
        -12    1    3    3    0    0 -0.16750837151E+02 -0.16663004776E+02  0.32618506405E+02  0.40276708325E+02  0.00000000000E+00 0.  1.
</event>
<event>
 7    1  0.2755991E-011  0.5052886E+02  0.7816164E-02  0.1300439E+00
        -11   -1    0    0    0    0  0.00000000000E+00  0.00000000000E+00  0.45593999997E+02  0.45594000000E+02  0.51100000000E-03 0.  1.
         11   -1    0    0    0    0 -0.00000000000E+00 -0.00000000000E+00 -0.45593999997E+02  0.45594000000E+02  0.51100000000E-03 0. -1.
    9900012    2    1    2    0    0  0.54379673880E+01 -0.39089237022E+02  0.97788428406E+01  0.50528859483E+02  0.29999998885E+02 0.  0.
         12    1    1    2    0    0 -0.54379673880E+01  0.39089237022E+02 -0.97788428406E+01  0.40659140517E+02  0.00000000000E+00 0. -1.
         11    1    3    3    0    0  0.33420112616E+01 -0.16516873131E+02  0.85082555593E+01  0.18877673326E+02  0.51100000000E-03 0.  1.
        -11    1    3    3    0    0  0.10181848634E+02 -0.17707432667E+02  0.57291961769E+01  0.21214308906E+02  0.51100000000E-03 0. -1.
         12    1    3    3    0    0 -0.80858925079E+01 -0.48649312242E+01 -0.44586088956E+01  0.10436877251E+02  0.00000000000E+00 0. -1.
</event>
<event>
 7    1  0.2755991E-011  0.5052886E+02  0.7816164E-02  0.1300439E+00
        -11   -1    0    0    0    0  0.00000000000E+00  0.00000000000E+00  0.45593999997E+02  0.45594000000E+02  0.51100000000E-03 0. -1.
         11   -1    0    0    0    0 -0.00000000000E+00 -0.00000000000E+00 -0.45593999997E+02  0.45594000000E+02  0.51100000000E-03 0.  1.
    9900012    2    1    2    0    0  0.10595240419E+02  0.38281397314E+02  0.86856812571E+01  0.50528861314E+02  0.30000004449E+02 0.  0.
         12    1    1    2    0    0 -0.10595240419E+02 -0.38281397314E+02 -0.86856812571E+01  0.40659138686E+02  0.00000000000E+00 0. -1.
         11    1    3    3    0    0 -0.44970369412E+01  0.10063836321E+02  0.77266433151E+01  0.13461246596E+02  0.51100000000E-03 0. -1.
        -11    1    3    3    0    0  0.31643930649E+01  0.54326292203E+01 -0.76909801912E+01  0.99336811040E+01  0.51100000000E-03 0.  1.
         12    1    3    3    0    0  0.11927884295E+02  0.22784931772E+02  0.86500181331E+01  0.27133933613E+02  0.00000000000E+00 0. -1.
</event>
<event>
 7    1  0.2755991E-011  0.5052886E+02  0.7816164E-02  0.1300439E+00
        -11   -1    0    0    0    0  0.00000000000E+00  0.00000000000E+00  0.45593999997E+02  0.45594000000E+02  0.51100000000E-03 0.  1.
         11   -1    0    0    0    0 -0.00000000000E+00 -0.00000000000E+00 -0.45593999997E+02  0.45594000000E+02  0.51100000000E-03 0. -1.
    9900012    2    1    2    0    0  0.40018233114E+02  0.63342890503E+01  0.34034034244E+01  0.50528863829E+02  0.30000012094E+02 0.  0.
         12    1    1    2    0    0 -0.40018233114E+02 -0.63342890503E+01 -0.34034034244E+01  0.40659136171E+02  0.00000000000E+00 0. -1.
         11    1    3    3    0    0  0.68046850552E+01  0.28637776229E+00 -0.22629742981E+01  0.71768240788E+01  0.51100000000E-03 0. -1.
        -11    1    3    3    0    0  0.29867537411E+01  0.23011906069E+01 -0.88439441678E+01  0.96141315168E+01  0.51100000000E-03 0.  1.
        -12    1    3    3    0    0  0.30226794318E+02  0.37467206811E+01  0.14510321890E+02  0.33737908233E+02  0.00000000000E+00 0.  1.
</event>
<event>
 7    1  0.2755991E-011  0.5052886E+02  0.7816164E-02  0.1300439E+00
        -11   -1    0    0    0    0  0.00000000000E+00  0.00000000000E+00  0.45593999997E+02  0.45594000000E+02  0.51100000000E-03 0.  1.
         11   -1    0    0    0    0 -0.00000000000E+00 -0.00000000000E+00 -0.45593999997E+02  0.45594000000E+02  0.51100000000E-03 0. -1.
    9900012    2    1    2    0    0 -0.33037065857E+02 -0.20138633407E+02  0.12496133010E+02  0.50528860607E+02  0.30000002302E+02 0.  0.
         12    1    1    2    0    0  0.33037065857E+02  0.20138633407E+02 -0.12496133010E+02  0.40659139393E+02  0.00000000000E+00 0. -1.
         11    1    3    3    0    0  0.59949566422E+00  0.20464325999E+01 -0.45337460214E+01  0.50102030582E+01  0.51100000000E-03 0. -1.
        -11    1    3    3    0    0 -0.29179676864E+01 -0.48993563881E+01  0.66789396807E+01  0.87821673837E+01  0.51100000000E-03 0.  1.
        -12    1    3    3    0    0 -0.30718593835E+02 -0.17285709619E+02  0.10350939350E+02  0.36736490165E+02  0.00000000000E+00 0.  1.
</event>
<event>
 7    1  0.2755991E-011  0.5052886E+02  0.7816164E-02  0.1300439E+00
        -11   -1    0    0    0    0  0.00000000000E+00  0.00000000000E+00  0.45593999997E+02  0.45594000000E+02  0.51100000000E-03 0. -1.
         11   -1    0    0    0    0 -0.00000000000E+00 -0.00000000000E+00 -0.45593999997E+02  0.45594000000E+02  0.51100000000E-03 0.  1.
    9900012    2    1    2    0    0  0.20837372817E+02 -0.29671504542E+02 -0.18400302784E+02  0.50528862894E+02  0.30000009252E+02 0.  0.
         12    1    1    2    0    0 -0.20837372817E+02  0.29671504542E+02  0.18400302784E+02  0.40659137106E+02  0.00000000000E+00 0. -1.
         11    1    3    3    0    0  0.85568337018E+00 -0.48562511437E+01  0.41353215205E+00  0.49483712778E+01  0.51100000000E-03 0. -1.
        -11    1    3    3    0    0  0.25093468991E+02 -0.22803296020E+02 -0.10279197380E+02  0.35430698475E+02  0.51100000000E-03 0.  1.
        -12    1    3    3    0    0 -0.51117795439E+01 -0.20119573783E+01 -0.85346375560E+01  0.10149793141E+02  0.00000000000E+00 0.  1.
</event>
<event>
 7    1  0.2755991E-011  0.5052882E+02  0.7816164E-02  0.1300439E+00
        -11   -1    0    0    0    0  0.00000000000E+00  0.00000000000E+00  0.45593999997E+02  0.45594000000E+02  0.51100000000E-03 0. -1.
         11   -1    0    0    0    0 -0.00000000000E+00 -0.00000000000E+00 -0.45593999997E+02  0.45594000000E+02  0.51100000000E-03 0.  1.
    9900012    2    1    2    0    0 -0.40840649414E+01 -0.40423682633E+02  0.15539704091E+01  0.50528824798E+02  0.29999893457E+02 0.  0.
         12    1    1    2    0    0  0.40840649414E+01  0.40423682633E+02 -0.15539704091E+01  0.40659175202E+02  0.00000000000E+00 0. -1.
         11    1    3    3    0    0 -0.80825401808E+01 -0.44236424011E+01 -0.42265924400E+01  0.10137068205E+02  0.51100000000E-03 0. -1.
        -11    1    3    3    0    0  0.92283619551E+01 -0.18580976311E+02 -0.15017800788E+01  0.20800737696E+02  0.51100000000E-03 0.  1.
         12    1    3    3    0    0 -0.52298867157E+01 -0.17419063921E+02  0.72823429279E+01  0.19591018898E+02  0.00000000000E+00 0. -1.
</event>
<event>
 7    1  0.2755991E-011  0.5052887E+02  0.7816164E-02  0.1300439E+00
        -11   -1    0    0    0    0  0.00000000000E+00  0.00000000000E+00  0.45593999997E+02  0.45594000000E+02  0.51100000000E-03 0. -1.
         11   -1    0    0    0    0 -0.00000000000E+00 -0.00000000000E+00 -0.45593999997E+02  0.45594000000E+02  0.51100000000E-03 0.  1.
    9900012    2    1    2    0    0  0.63360406090E+01  0.18799591214E+02 -0.35490770596E+02  0.50528870178E+02  0.30000031392E+02 0.  0.
         12    1    1    2    0    0 -0.63360406090E+01 -0.18799591214E+02  0.35490770596E+02  0.40659129822E+02  0.00000000000E+00 0. -1.
         11    1    3    3    0    0  0.14041751516E+02  0.13469072510E+02 -0.11788627465E+02  0.22749910717E+02  0.51100000000E-03 0. -1.
        -11    1    3    3    0    0  0.25643474004E+01  0.26179953760E+01 -0.42193531073E+01  0.55886240063E+01  0.51100000000E-03 0.  1.
        -12    1    3    3    0    0 -0.10270058307E+02  0.27125233285E+01 -0.19482790024E+02  0.22190335454E+02  0.00000000000E+00 0.  1.
</event>
<event>
 7    1  0.2755991E-011  0.5052892E+02  0.7816164E-02  0.1300439E+00
        -11   -1    0    0    0    0  0.00000000000E+00  0.00000000000E+00  0.45593999997E+02  0.45594000000E+02  0.51100000000E-03 0.  1.
         11   -1    0    0    0    0 -0.00000000000E+00 -0.00000000000E+00 -0.45593999997E+02  0.45594000000E+02  0.51100000000E-03 0. -1.
    9900012    2    1    2    0    0  0.35342986655E+02 -0.14893660414E+02  0.13498631277E+02  0.50528918941E+02  0.30000179612E+02 0.  0.
         12    1    1    2    0    0 -0.35342986655E+02  0.14893660414E+02 -0.13498631277E+02  0.40659081059E+02  0.00000000000E+00 0. -1.
         11    1    3    3    0    0  0.11355517422E+02  0.23197034745E+01  0.71652645898E+00  0.11612157877E+02  0.51100000000E-03 0. -1.
        -11    1    3    3    0    0  0.83902265461E+01  0.45722085954E+01  0.86994479719E+00  0.95946754581E+01  0.51100000000E-03 0.  1.
        -12    1    3    3    0    0  0.15597242686E+02 -0.21785572484E+02  0.11912160021E+02  0.29322085605E+02  0.00000000000E+00 0.  1.
</event>
<event>
 7    1  0.2755991E-011  0.5052885E+02  0.7816164E-02  0.1300439E+00
        -11   -1    0    0    0    0  0.00000000000E+00  0.00000000000E+00  0.45593999997E+02  0.45594000000E+02  0.51100000000E-03 0.  1.
         11   -1    0    0    0    0 -0.00000000000E+00 -0.00000000000E+00 -0.45593999997E+02  0.45594000000E+02  0.51100000000E-03 0. -1.
    9900012    2    1    2    0    0 -0.77797101372E+01  0.22795616498E+02  0.32756721915E+02  0.50528845410E+02  0.29999956109E+02 0.  0.
         12    1    1    2    0    0  0.77797101372E+01 -0.22795616498E+02 -0.32756721915E+02  0.40659154590E+02  0.00000000000E+00 0. -1.
         11    1    3    3    0    0 -0.43018758167E+01 -0.19017799034E+01  0.37934221953E+01  0.60425950184E+01  0.51100000000E-03 0. -1.
        -11    1    3    3    0    0  0.52996898007E+00  0.24924908559E+02  0.13179226038E+02  0.28199715123E+02  0.51100000000E-03 0.  1.
         12    1    3    3    0    0 -0.40078033006E+01 -0.22751215737E+00  0.15784073682E+02  0.16286535269E+02  0.00000000000E+00 0. -1.
</event>
<event>
 7    1  0.2755991E-011  0.5052886E+02  0.7816164E-02  0.1300439E+00
        -11   -1    0    0    0    0  0.00000000000E+00  0.00000000000E+00  0.45593999997E+02  0.45594000000E+02  0.51100000000E-03 0.  1.
         11   -1    0    0    0    0 -0.00000000000E+00 -0.00000000000E+00 -0.45593999997E+02  0.45594000000E+02  0.51100000000E-03 0. -1.
    9900012    2    1    2    0    0  0.20513991411E+02 -0.72455124274E+01  0.34348862212E+02  0.50528860447E+02  0.30000001816E+02 0.  0.
         12    1    1    2    0    0 -0.20513991411E+02  0.72455124274E+01 -0.34348862212E+02  0.40659139553E+02  0.00000000000E+00 0. -1.
         11    1    3    3    0    0  0.74514748096E+01 -0.11968158029E+01 -0.35753535420E+01  0.83510477256E+01  0.51100000000E-03 0. -1.
        -11    1    3    3    0    0  0.18633821479E+01  0.33478500315E+01  0.73769536425E+01  0.83126252272E+01  0.51100000000E-03 0.  1.
        -12    1    3    3    0    0  0.11199134453E+02 -0.93965466560E+01  0.30547262111E+02  0.33865187494E+02  0.00000000000E+00 0.  1.
</event>
<event>
 7    1  0.2755991E-011  0.5052885E+02  0.7816164E-02  0.1300439E+00
        -11   -1    0    0    0    0  0.00000000000E+00  0.00000000000E+00  0.45593999997E+02  0.45594000000E+02  0.51100000000E-03 0. -1.
         11   -1    0    0    0    0 -0.00000000000E+00 -0.00000000000E+00 -0.45593999997E+02  0.45594000000E+02  0.51100000000E-03 0.  1.
    9900012    2    1    2    0    0  0.57784446922E+01  0.35496370845E+02 -0.18967955764E+02  0.50528854509E+02  0.29999983765E+02 0.  0.
         12    1    1    2    0    0 -0.57784446922E+01 -0.35496370845E+02  0.18967955764E+02  0.40659145491E+02  0.00000000000E+00 0. -1.
         11    1    3    3    0    0  0.65168163015E+01  0.30149504194E+01 -0.62963062284E+01  0.95499891687E+01  0.51100000000E-03 0. -1.
        -11    1    3    3    0    0  0.20517385175E+01 -0.66141192965E+00  0.34105588749E+01  0.40347253668E+01  0.51100000000E-03 0.  1.
        -12    1    3    3    0    0 -0.27901101268E+01  0.33142832355E+02 -0.16082208410E+02  0.36944139973E+02  0.00000000000E+00 0.  1.
</event>
<event>
 7    1  0.2755991E-011  0.5052887E+02  0.7816164E-02  0.1300439E+00
        -11   -1    0    0    0    0  0.00000000000E+00  0.00000000000E+00  0.45593999997E+02  0.45594000000E+02  0.51100000000E-03 0. -1.
         11   -1    0    0    0    0 -0.00000000000E+00 -0.00000000000E+00 -0.45593999997E+02  0.45594000000E+02  0.51100000000E-03 0.  1.
    9900012    2    1    2    0    0  0.34783983580E+02  0.14173746262E+02  0.15567411300E+02  0.50528869520E+02  0.30000029394E+02 0.  0.
         12    1    1    2    0    0 -0.34783983580E+02 -0.14173746262E+02 -0.15567411300E+02  0.40659130480E+02  0.00000000000E+00 0. -1.
         11    1    3    3    0    0  0.68576361201E+01  0.77347479310E+01  0.16207218359E+02  0.19223096159E+02  0.51100000000E-03 0. -1.
        -11    1    3    3    0    0  0.48246923387E+01  0.61440333716E+01 -0.22975965961E+01  0.81428344336E+01  0.51100000000E-03 0.  1.
         12    1    3    3    0    0  0.23101655121E+02  0.29496495925E+00  0.16577895370E+01  0.23162938928E+02  0.00000000000E+00 0. -1.
</event>
<event>
 7    1  0.2755991E-011  0.5052886E+02  0.7816164E-02  0.1300439E+00
        -11   -1    0    0    0    0  0.00000000000E+00  0.00000000000E+00  0.45593999997E+02  0.45594000000E+02  0.51100000000E-03 0. -1.
         11   -1    0    0    0    0 -0.00000000000E+00 -0.00000000000E+00 -0.45593999997E+02  0.45594000000E+02  0.51100000000E-03 0.  1.
    9900012    2    1    2    0    0  0.21585675998E+02  0.34125371040E+02  0.47627282898E+01  0.50528856654E+02  0.29999990285E+02 0.  0.
         12    1    1    2    0    0 -0.21585675998E+02 -0.34125371040E+02 -0.47627282898E+01  0.40659143346E+02  0.00000000000E+00 0. -1.
         11    1    3    3    0    0  0.12927814583E+02 -0.54837186682E+00  0.26937009008E+01  0.13216850093E+02  0.51100000000E-03 0. -1.
        -11    1    3    3    0    0  0.25103974702E+01  0.58243560099E+01 -0.35739511237E+01  0.72799962421E+01  0.51100000000E-03 0.  1.
         12    1    3    3    0    0  0.61474639454E+01  0.28849386896E+02  0.56429785127E+01  0.30032010318E+02  0.00000000000E+00 0. -1.
</event>
<event>
 7    1  0.2755991E-011  0.5052886E+02  0.7816164E-02  0.1300439E+00
        -11   -1    0    0    0    0  0.00000000000E+00  0.00000000000E+00  0.45593999997E+02  0.45594000000E+02  0.51100000000E-03 0. -1.
         11   -1    0    0    0    0 -0.00000000000E+00 -0.00000000000E+00 -0.45593999997E+02  0.45594000000E+02  0.51100000000E-03 0.  1.
    9900012    2    1    2    0    0 -0.21517664858E+02  0.28372218497E+02  0.19625818888E+02  0.50528862646E+02  0.30000008497E+02 0.  0.
         12    1    1    2    0    0  0.21517664858E+02 -0.28372218497E+02 -0.19625818888E+02  0.40659137354E+02  0.00000000000E+00 0. -1.
         11    1    3    3    0    0 -0.37110418784E+00  0.85743914421E+01  0.72467354553E+01  0.11232679197E+02  0.51100000000E-03 0. -1.
        -11    1    3    3    0    0 -0.34712542591E+01  0.69029289541E+01  0.15380477740E+02  0.17212179700E+02  0.51100000000E-03 0.  1.
        -12    1    3    3    0    0 -0.17675306411E+02  0.12894898101E+02 -0.30013943072E+01  0.22084003748E+02  0.00000000000E+00 0.  1.
</event>
<event>
 7    1  0.2755991E-011  0.5052887E+02  0.7816164E-02  0.1300439E+00
        -11   -1    0    0    0    0  0.00000000000E+00  0.00000000000E+00  0.45593999997E+02  0.45594000000E+02  0.51100000000E-03 0.  1.
         11   -1    0    0    0    0 -0.00000000000E+00 -0.00000000000E+00 -0.45593999997E+02  0.45594000000E+02  0.51100000000E-03 0. -1.
    9900012    2    1    2    0    0  0.38530114992E+02 -0.83148038302E+00  0.12957777296E+02  0.50528866791E+02  0.30000021096E+02 0.  0.
         12    1    1    2    0    0 -0.38530114992E+02  0.83148038302E+00 -0.12957777296E+02  0.40659133209E+02  0.00000000000E+00 0. -1.
         11    1    3    3    0    0  0.24049532155E+02  0.53897713566E+01  0.86030021647E+01  0.26104430250E+02  0.51100000000E-03 0. -1.
        -11    1    3    3    0    0  0.10381915242E+02  0.43364014318E+01  0.63579481197E+01  0.12923314050E+02  0.51100000000E-03 0.  1.
         12    1    3    3    0    0  0.40986675943E+01 -0.10557653171E+02 -0.20031729882E+01  0.11501122491E+02  0.00000000000E+00 0. -1.
</event>
<event>
 7    1  0.2755991E-011  0.5052886E+02  0.7816164E-02  0.1300439E+00
        -11   -1    0    0    0    0  0.00000000000E+00  0.00000000000E+00  0.45593999997E+02  0.45594000000E+02  0.51100000000E-03 0.  1.
         11   -1    0    0    0    0 -0.00000000000E+00 -0.00000000000E+00 -0.45593999997E+02  0.45594000000E+02  0.51100000000E-03 0. -1.
    9900012    2    1    2    0    0  0.12302747758E+02 -0.28467885769E+01  0.38648466434E+02  0.50528858773E+02  0.29999996726E+02 0.  0.
         12    1    1    2    0    0 -0.12302747758E+02  0.28467885769E+01 -0.38648466434E+02  0.40659141227E+02  0.00000000000E+00 0. -1.
         11    1    3    3    0    0  0.27718020636E+01 -0.23522605635E+01 -0.26584889550E+01  0.45037295904E+01  0.51100000000E-03 0.  1.
        -11    1    3    3    0    0 -0.65588916614E+00  0.72709752014E+01  0.12083034447E+02  0.14117258681E+02  0.51100000000E-03 0. -1.
        -12    1    3    3    0    0  0.10186834860E+02 -0.77655032148E+01  0.29223920943E+02  0.31907870501E+02  0.00000000000E+00 0.  1.
</event>
<event>
 7    1  0.2755991E-011  0.5052885E+02  0.7816164E-02  0.1300439E+00
        -11   -1    0    0    0    0  0.00000000000E+00  0.00000000000E+00  0.45593999997E+02  0.45594000000E+02  0.51100000000E-03 0. -1.
         11   -1    0    0    0    0 -0.00000000000E+00 -0.00000000000E+00 -0.45593999997E+02  0.45594000000E+02  0.51100000000E-03 0.  1.
    9900012    2    1    2    0    0  0.21451692665E+02  0.31205677523E+02  0.14805293643E+02  0.50528854070E+02  0.29999982432E+02 0.  0.
         12    1    1    2    0    0 -0.21451692665E+02 -0.31205677523E+02 -0.14805293643E+02  0.40659145930E+02  0.00000000000E+00 0. -1.
         11    1    3    3    0    0  0.46147853029E+01  0.88165396643E+01  0.10457015439E+02  0.14435261937E+02  0.51100000000E-03 0. -1.
        -11    1    3    3    0    0  0.85896357162E+01  0.14477347732E+02  0.13398911218E+02  0.21515256475E+02  0.51100000000E-03 0.  1.
         12    1    3    3    0    0  0.82472716455E+01  0.79117901268E+01 -0.90506330137E+01  0.14578335658E+02  0.00000000000E+00 0. -1.
</event>
<event>
 7    1  0.2755991E-011  0.5052886E+02  0.7816164E-02  0.1300439E+00
        -11   -1    0    0    0    0  0.00000000000E+00  0.00000000000E+00  0.45593999997E+02  0.45594000000E+02  0.51100000000E-03 0.  1.
         11   -1    0    0    0    0 -0.00000000000E+00 -0.00000000000E+00 -0.45593999997E+02  0.45594000000E+02  0.51100000000E-03 0. -1.
    9900012    2    1    2    0    0 -0.86651848656E+01  0.39692371863E+02 -0.16111747963E+01  0.50528859612E+02  0.29999999277E+02 0.  0.
         12    1    1    2    0    0  0.86651848656E+01 -0.39692371863E+02  0.16111747963E+01  0.40659140388E+02  0.00000000000E+00 0. -1.
         11    1    3    3    0    0  0.12003237431E+01  0.31907949165E+01 -0.76406763181E+01  0.83667128639E+01  0.51100000000E-03 0. -1.
        -11    1    3    3    0    0 -0.69473624567E+01  0.36944832741E+02  0.26654041285E+01  0.37686746885E+02  0.51100000000E-03 0.  1.
         12    1    3    3    0    0 -0.29181461521E+01 -0.44325579462E+00  0.33640973932E+01  0.44753998632E+01  0.00000000000E+00 0. -1.
</event>
<event>
 7    1  0.2755991E-011  0.5052880E+02  0.7816164E-02  0.1300439E+00
        -11   -1    0    0    0    0  0.00000000000E+00  0.00000000000E+00  0.45593999997E+02  0.45594000000E+02  0.51100000000E-03 0.  1.
         11   -1    0    0    0    0 -0.00000000000E+00 -0.00000000000E+00 -0.45593999997E+02  0.45594000000E+02  0.51100000000E-03 0. -1.
    9900012    2    1    2    0    0  0.24855605031E+02 -0.11049017935E+02  0.30220670516E+02  0.50528796549E+02  0.29999807590E+02 0.  0.
         12    1    1    2    0    0 -0.24855605031E+02  0.11049017935E+02 -0.30220670516E+02  0.40659203451E+02  0.00000000000E+00 0. -1.
         11    1    3    3    0    0  0.10346601396E+02 -0.57972259250E+00  0.89379635500E+01  0.13684861396E+02  0.51100000000E-03 0. -1.
        -11    1    3    3    0    0  0.16870423955E+02  0.21908812836E+01  0.10075993965E+02  0.19772122291E+02  0.51100000000E-03 0.  1.
         12    1    3    3    0    0 -0.23614203202E+01 -0.12660176626E+02  0.11206713002E+02  0.17071812863E+02  0.00000000000E+00 0. -1.
</event>
<event>
 7    1  0.2755991E-011  0.5052886E+02  0.7816164E-02  0.1300439E+00
        -11   -1    0    0    0    0  0.00000000000E+00  0.00000000000E+00  0.45593999997E+02  0.45594000000E+02  0.51100000000E-03 0. -1.
         11   -1    0    0    0    0 -0.00000000000E+00 -0.00000000000E+00 -0.45593999997E+02  0.45594000000E+02  0.51100000000E-03 0.  1.
    9900012    2    1    2    0    0  0.14234401691E+02  0.14930357884E+02 -0.35037580390E+02  0.50528858130E+02  0.29999994771E+02 0.  0.
         12    1    1    2    0    0 -0.14234401691E+02 -0.14930357884E+02  0.35037580390E+02  0.40659141870E+02  0.00000000000E+00 0. -1.
         11    1    3    3    0    0 -0.25876518857E+01  0.31674127609E+01 -0.13208758847E+02  0.13827500006E+02  0.51100000000E-03 0. -1.
        -11    1    3    3    0    0 -0.69386028735E+00 -0.10568515377E+01 -0.13331476036E+02  0.13391289364E+02  0.51100000000E-03 0.  1.
         12    1    3    3    0    0  0.17515913864E+02  0.12819796661E+02 -0.84973455076E+01  0.23310068760E+02  0.00000000000E+00 0. -1.
</event>
<event>
 7    1  0.2755991E-011  0.5052885E+02  0.7816164E-02  0.1300439E+00
        -11   -1    0    0    0    0  0.00000000000E+00  0.00000000000E+00  0.45593999997E+02  0.45594000000E+02  0.51100000000E-03 0. -1.
         11   -1    0    0    0    0 -0.00000000000E+00 -0.00000000000E+00 -0.45593999997E+02  0.45594000000E+02  0.51100000000E-03 0.  1.
    9900012    2    1    2    0    0 -0.26178707406E+02 -0.25448436155E+02 -0.17894654093E+02  0.50528852575E+02  0.29999977887E+02 0.  0.
         12    1    1    2    0    0  0.26178707406E+02  0.25448436155E+02  0.17894654093E+02  0.40659147425E+02  0.00000000000E+00 0. -1.
         11    1    3    3    0    0 -0.12989548501E+02 -0.22597177356E+00 -0.90236117410E+01  0.15817869725E+02  0.51100000000E-03 0.  1.
        -11    1    3    3    0    0 -0.31916427306E+01  0.20975169170E+01  0.10722794213E+01  0.39668556762E+01  0.51100000000E-03 0. -1.
        -12    1    3    3    0    0 -0.99975161744E+01 -0.27319981298E+02 -0.99433217737E+01  0.30744127174E+02  0.00000000000E+00 0.  1.
</event>
<event>
 7    1  0.2755991E-011  0.5052887E+02  0.7816164E-02  0.1300439E+00
        -11   -1    0    0    0    0  0.00000000000E+00  0.00000000000E+00  0.45593999997E+02  0.45594000000E+02  0.51100000000E-03 0.  1.
         11   -1    0    0    0    0 -0.00000000000E+00 -0.00000000000E+00 -0.45593999997E+02  0.45594000000E+02  0.51100000000E-03 0. -1.
    9900012    2    1    2    0    0 -0.30239173170E+02 -0.20983383188E+02  0.17275841309E+02  0.50528872403E+02  0.30000038156E+02 0.  0.
         12    1    1    2    0    0  0.30239173170E+02  0.20983383188E+02 -0.17275841309E+02  0.40659127597E+02  0.00000000000E+00 0. -1.
         11    1    3    3    0    0 -0.53428666414E+01  0.59431632982E+01  0.99862569419E+00  0.80538604082E+01  0.51100000000E-03 0. -1.
        -11    1    3    3    0    0 -0.65322611388E+01 -0.86176587163E-02  0.15368259132E+01  0.67106142788E+01  0.51100000000E-03 0.  1.
        -12    1    3    3    0    0 -0.18364045390E+02 -0.26917928827E+02  0.14740389701E+02  0.35764397716E+02  0.00000000000E+00 0.  1.
</event>
<event>
 7    1  0.2755991E-011  0.5052886E+02  0.7816164E-02  0.1300439E+00
        -11   -1    0    0    0    0  0.00000000000E+00  0.00000000000E+00  0.45593999997E+02  0.45594000000E+02  0.51100000000E-03 0. -1.
         11   -1    0    0    0    0 -0.00000000000E+00 -0.00000000000E+00 -0.45593999997E+02  0.45594000000E+02  0.51100000000E-03 0.  1.
    9900012    2    1    2    0    0  0.11941932224E+02  0.37178923773E+02 -0.11326240533E+02  0.50528857820E+02  0.29999993831E+02 0.  0.
         12    1    1    2    0    0 -0.11941932224E+02 -0.37178923773E+02  0.11326240533E+02  0.40659142180E+02  0.00000000000E+00 0. -1.
         11    1    3    3    0    0  0.10249577210E+01  0.12976909233E+02 -0.12523641061E+01  0.13077428175E+02  0.51100000000E-03 0. -1.
        -11    1    3    3    0    0  0.13912168208E+01  0.20589079606E+02  0.30255032424E+01  0.20856638114E+02  0.51100000000E-03 0.  1.
         12    1    3    3    0    0  0.95257576820E+01  0.36129349340E+01 -0.13099379669E+02  0.16594791531E+02  0.00000000000E+00 0. -1.
</event>
<event>
 7    1  0.2755991E-011  0.5052886E+02  0.7816164E-02  0.1300439E+00
        -11   -1    0    0    0    0  0.00000000000E+00  0.00000000000E+00  0.45593999997E+02  0.45594000000E+02  0.51100000000E-03 0.  1.
         11   -1    0    0    0    0 -0.00000000000E+00 -0.00000000000E+00 -0.45593999997E+02  0.45594000000E+02  0.51100000000E-03 0. -1.
    9900012    2    1    2    0    0  0.20294416559E+02 -0.45169635256E+00  0.35229229727E+02  0.50528855885E+02  0.29999987947E+02 0.  0.
         12    1    1    2    0    0 -0.20294416559E+02  0.45169635256E+00 -0.35229229727E+02  0.40659144115E+02  0.00000000000E+00 0. -1.
         11    1    3    3    0    0  0.11992250955E+02  0.41303610176E+01  0.11142150627E+02  0.16882579363E+02  0.51100000000E-03 0. -1.
        -11    1    3    3    0    0  0.50686246147E+01  0.85224527580E+01  0.11574709062E+02  0.15241294126E+02  0.51100000000E-03 0.  1.
         12    1    3    3    0    0  0.32335409890E+01 -0.13104510128E+02  0.12512370037E+02  0.18404982395E+02  0.00000000000E+00 0. -1.
</event>
<event>
 7    1  0.2755991E-011  0.5052882E+02  0.7816164E-02  0.1300439E+00
        -11   -1    0    0    0    0  0.00000000000E+00  0.00000000000E+00  0.45593999997E+02  0.45594000000E+02  0.51100000000E-03 0.  1.
         11   -1    0    0    0    0 -0.00000000000E+00 -0.00000000000E+00 -0.45593999997E+02  0.45594000000E+02  0.51100000000E-03 0. -1.
    9900012    2    1    2    0    0 -0.21257009349E+02 -0.21988187899E+02  0.26792312005E+02  0.50528821010E+02  0.29999881943E+02 0.  0.
         12    1    1    2    0    0  0.21257009349E+02  0.21988187899E+02 -0.26792312005E+02  0.40659178990E+02  0.00000000000E+00 0. -1.
         11    1    3    3    0    0 -0.62410398742E+00 -0.40027878209E+01 -0.15379170149E+01  0.43332441809E+01  0.51100000000E-03 0. -1.
        -11    1    3    3    0    0 -0.84737552855E+01 -0.20364783797E+02  0.10362611024E+02  0.24370323248E+02  0.51100000000E-03 0.  1.
         12    1    3    3    0    0 -0.12159150076E+02  0.23793837183E+01  0.17967617996E+02  0.21825253581E+02  0.00000000000E+00 0. -1.
</event>
<event>
 7    1  0.2755991E-011  0.5052886E+02  0.7816164E-02  0.1300439E+00
        -11   -1    0    0    0    0  0.00000000000E+00  0.00000000000E+00  0.45593999997E+02  0.45594000000E+02  0.51100000000E-03 0.  1.
         11   -1    0    0    0    0 -0.00000000000E+00 -0.00000000000E+00 -0.45593999997E+02  0.45594000000E+02  0.51100000000E-03 0. -1.
    9900012    2    1    2    0    0  0.24265881544E+02  0.18415532666E+02  0.26929551176E+02  0.50528861089E+02  0.30000003766E+02 0.  0.
         12    1    1    2    0    0 -0.24265881544E+02 -0.18415532666E+02 -0.26929551176E+02  0.40659138911E+02  0.00000000000E+00 0. -1.
         11    1    3    3    0    0  0.16208479587E+02  0.69115655237E+01  0.63305900034E+01  0.18723272111E+02  0.51100000000E-03 0. -1.
        -11    1    3    3    0    0  0.12808470749E+02  0.28899694726E+01  0.66001848025E+01  0.14695961560E+02  0.51100000000E-03 0.  1.
         12    1    3    3    0    0 -0.47510687918E+01  0.86139976695E+01  0.13998776370E+02  0.17109627417E+02  0.00000000000E+00 0. -1.
</event>
<event>
 7    1  0.2755991E-011  0.5052887E+02  0.7816164E-02  0.1300439E+00
        -11   -1    0    0    0    0  0.00000000000E+00  0.00000000000E+00  0.45593999997E+02  0.45594000000E+02  0.51100000000E-03 0. -1.
         11   -1    0    0    0    0 -0.00000000000E+00 -0.00000000000E+00 -0.45593999997E+02  0.45594000000E+02  0.51100000000E-03 0.  1.
    9900012    2    1    2    0    0  0.12458878878E+02  0.60406392581E+01 -0.38228939631E+02  0.50528870510E+02  0.30000032402E+02 0.  0.
         12    1    1    2    0    0 -0.12458878878E+02 -0.60406392581E+01  0.38228939631E+02  0.40659129490E+02  0.00000000000E+00 0. -1.
         11    1    3    3    0    0  0.67440639230E+01 -0.62557283891E+01 -0.78136933139E+01  0.12069396809E+02  0.51100000000E-03 0. -1.
        -11    1    3    3    0    0  0.97292489172E+01 -0.80167823338E+00 -0.14199212707E+02  0.17231326537E+02  0.51100000000E-03 0.  1.
         12    1    3    3    0    0 -0.40144339623E+01  0.13098045881E+02 -0.16216033611E+02  0.21228147163E+02  0.00000000000E+00 0. -1.
</event>
<event>
 7    1  0.2755991E-011  0.5052886E+02  0.7816164E-02  0.1300439E+00
        -11   -1    0    0    0    0  0.00000000000E+00  0.00000000000E+00  0.45593999997E+02  0.45594000000E+02  0.51100000000E-03 0.  1.
         11   -1    0    0    0    0 -0.00000000000E+00 -0.00000000000E+00 -0.45593999997E+02  0.45594000000E+02  0.51100000000E-03 0. -1.
    9900012    2    1    2    0    0 -0.17723173026E+02  0.33166540707E+02  0.15460762645E+02  0.50528862452E+02  0.30000007908E+02 0.  0.
         12    1    1    2    0    0  0.17723173026E+02 -0.33166540707E+02 -0.15460762645E+02  0.40659137548E+02  0.00000000000E+00 0. -1.
         11    1    3    3    0    0 -0.13395279001E+02  0.20250791425E+02  0.35578526288E+01  0.24539485904E+02  0.51100000000E-03 0. -1.
        -11    1    3    3    0    0 -0.53489233708E+01  0.13583646426E+02  0.58989774683E+00  0.14610763534E+02  0.51100000000E-03 0.  1.
        -12    1    3    3    0    0  0.10210293451E+01 -0.66789714290E+00  0.11313012269E+02  0.11378613014E+02  0.00000000000E+00 0.  1.
</event>
<event>
 7    1  0.2755991E-011  0.5052886E+02  0.7816164E-02  0.1300439E+00
        -11   -1    0    0    0    0  0.00000000000E+00  0.00000000000E+00  0.45593999997E+02  0.45594000000E+02  0.51100000000E-03 0. -1.
         11   -1    0    0    0    0 -0.00000000000E+00 -0.00000000000E+00 -0.45593999997E+02  0.45594000000E+02  0.51100000000E-03 0.  1.
    9900012    2    1    2    0    0 -0.29975190356E+02 -0.44173447987E+01 -0.27113473618E+02  0.50528862975E+02  0.30000009499E+02 0.  0.
         12    1    1    2    0    0  0.29975190356E+02  0.44173447987E+01  0.27113473618E+02  0.40659137025E+02  0.00000000000E+00 0. -1.
         11    1    3    3    0    0 -0.14439728957E+02 -0.16300184411E+01 -0.26553749081E+02  0.30269858325E+02  0.51100000000E-03 0. -1.
        -11    1    3    3    0    0 -0.20535494233E+01 -0.14279427616E+01 -0.53347536534E+01  0.58920015757E+01  0.51100000000E-03 0.  1.
         12    1    3    3    0    0 -0.13481911976E+02 -0.13593835961E+01  0.47750291164E+01  0.14367003075E+02  0.00000000000E+00 0. -1.
</event>
<event>
 7    1  0.2755991E-011  0.5052894E+02  0.7816164E-02  0.1300439E+00
        -11   -1    0    0    0    0  0.00000000000E+00  0.00000000000E+00  0.45593999997E+02  0.45594000000E+02  0.51100000000E-03 0.  1.
         11   -1    0    0    0    0 -0.00000000000E+00 -0.00000000000E+00 -0.45593999997E+02  0.45594000000E+02  0.51100000000E-03 0. -1.
    9900012    2    1    2    0    0  0.22663485879E+02  0.45862644558E+01  0.33443858566E+02  0.50528940866E+02  0.30000246257E+02 0.  0.
         12    1    1    2    0    0 -0.22663485879E+02 -0.45862644558E+01 -0.33443858566E+02  0.40659059134E+02  0.00000000000E+00 0. -1.
         11    1    3    3    0    0 -0.22188060009E+00  0.10174653168E+02  0.17107861500E+02  0.19906072527E+02  0.51100000000E-03 0. -1.
        -11    1    3    3    0    0  0.10241663152E+01  0.72065273145E+00  0.50903968615E+01  0.52421748797E+01  0.51100000000E-03 0.  1.
        -12    1    3    3    0    0  0.21861200164E+02 -0.63090414436E+01  0.11245600205E+02  0.25380693460E+02  0.00000000000E+00 0.  1.
</event>
<event>
 7    1  0.2755991E-011  0.5052886E+02  0.7816164E-02  0.1300439E+00
        -11   -1    0    0    0    0  0.00000000000E+00  0.00000000000E+00  0.45593999997E+02  0.45594000000E+02  0.51100000000E-03 0.  1.
         11   -1    0    0    0    0 -0.00000000000E+00 -0.00000000000E+00 -0.45593999997E+02  0.45594000000E+02  0.51100000000E-03 0. -1.
    9900012    2    1    2    0    0  0.33246689908E+02 -0.12145407855E+02  0.20007805068E+02  0.50528860985E+02  0.30000003451E+02 0.  0.
         12    1    1    2    0    0 -0.33246689908E+02  0.12145407855E+02 -0.20007805068E+02  0.40659139015E+02  0.00000000000E+00 0. -1.
         11    1    3    3    0    0 -0.21957732825E+01  0.56831691498E+00  0.88550326853E+00  0.24348553805E+01  0.51100000000E-03 0. -1.
        -11    1    3    3    0    0  0.73928321459E+01  0.33663996056E+01  0.12784235159E+02  0.15146725135E+02  0.51100000000E-03 0.  1.
         12    1    3    3    0    0  0.28049631044E+02 -0.16080124375E+02  0.63380666400E+01  0.32947280470E+02  0.00000000000E+00 0. -1.
</event>
<event>
 7    1  0.2755991E-011  0.5052888E+02  0.7816164E-02  0.1300439E+00
        -11   -1    0    0    0    0  0.00000000000E+00  0.00000000000E+00  0.45593999997E+02  0.45594000000E+02  0.51100000000E-03 0.  1.
         11   -1    0    0    0    0 -0.00000000000E+00 -0.00000000000E+00 -0.45593999997E+02  0.45594000000E+02  0.51100000000E-03 0. -1.
    9900012    2    1    2    0    0  0.34483953874E+02 -0.19508134934E+01  0.21452634851E+02  0.50528876914E+02  0.30000051869E+02 0.  0.
         12    1    1    2    0    0 -0.34483953874E+02  0.19508134934E+01 -0.21452634851E+02  0.40659123086E+02  0.00000000000E+00 0. -1.
         11    1    3    3    0    0  0.51657593293E+01 -0.28171538264E+01 -0.42304463586E+01  0.72469374072E+01  0.51100000000E-03 0. -1.
        -11    1    3    3    0    0  0.12882882508E+02 -0.12817897178E+01  0.27989405277E+00  0.12949516884E+02  0.51100000000E-03 0.  1.
        -12    1    3    3    0    0  0.16435312037E+02  0.21481300508E+01  0.25403187157E+02  0.30332422623E+02  0.00000000000E+00 0.  1.
</event>
<event>
 7    1  0.2755991E-011  0.5052887E+02  0.7816164E-02  0.1300439E+00
        -11   -1    0    0    0    0  0.00000000000E+00  0.00000000000E+00  0.45593999997E+02  0.45594000000E+02  0.51100000000E-03 0.  1.
         11   -1    0    0    0    0 -0.00000000000E+00 -0.00000000000E+00 -0.45593999997E+02  0.45594000000E+02  0.51100000000E-03 0. -1.
    9900012    2    1    2    0    0 -0.24142216133E+02  0.16737769840E+02  0.28109886328E+02  0.50528865130E+02  0.30000016048E+02 0.  0.
         12    1    1    2    0    0  0.24142216133E+02 -0.16737769840E+02 -0.28109886328E+02  0.40659134870E+02  0.00000000000E+00 0. -1.
         11    1    3    3    0    0 -0.32008167843E+00 -0.26044365901E+01 -0.27712168311E+01  0.38164361935E+01  0.51100000000E-03 0. -1.
        -11    1    3    3    0    0  0.18530246372E+01  0.74956834818E+00  0.62675028413E+01  0.65785367021E+01  0.51100000000E-03 0.  1.
        -12    1    3    3    0    0 -0.25675159092E+02  0.18592638082E+02  0.24613600318E+02  0.40133892234E+02  0.00000000000E+00 0.  1.
</event>
<event>
 7    1  0.2755991E-011  0.5052887E+02  0.7816164E-02  0.1300439E+00
        -11   -1    0    0    0    0  0.00000000000E+00  0.00000000000E+00  0.45593999997E+02  0.45594000000E+02  0.51100000000E-03 0.  1.
         11   -1    0    0    0    0 -0.00000000000E+00 -0.00000000000E+00 -0.45593999997E+02  0.45594000000E+02  0.51100000000E-03 0. -1.
    9900012    2    1    2    0    0 -0.74151066666E+01  0.25768477143E+02  0.30564138983E+02  0.50528870485E+02  0.30000032328E+02 0.  0.
         12    1    1    2    0    0  0.74151066666E+01 -0.25768477143E+02 -0.30564138983E+02  0.40659129515E+02  0.00000000000E+00 0. -1.
         11    1    3    3    0    0 -0.75400183422E+01  0.13777433010E+02  0.14020540821E+02  0.21053386951E+02  0.51100000000E-03 0. -1.
        -11    1    3    3    0    0 -0.90831109979E+01  0.11138397612E+02  0.13557628070E+02  0.19757937289E+02  0.51100000000E-03 0.  1.
         12    1    3    3    0    0  0.92080226735E+01  0.85264652088E+00  0.29859700917E+01  0.97175462455E+01  0.00000000000E+00 0. -1.
</event>
<event>
 7    1  0.2755991E-011  0.5052884E+02  0.7816164E-02  0.1300439E+00
        -11   -1    0    0    0    0  0.00000000000E+00  0.00000000000E+00  0.45593999997E+02  0.45594000000E+02  0.51100000000E-03 0.  1.
         11   -1    0    0    0    0 -0.00000000000E+00 -0.00000000000E+00 -0.45593999997E+02  0.45594000000E+02  0.51100000000E-03 0. -1.
    9900012    2    1    2    0    0 -0.40119122805E+02 -0.62223074259E+01  0.22149266889E+01  0.50528843288E+02  0.29999949657E+02 0.  0.
         12    1    1    2    0    0  0.40119122805E+02  0.62223074259E+01 -0.22149266889E+01  0.40659156712E+02  0.00000000000E+00 0. -1.
         11    1    3    3    0    0 -0.13792170635E+02  0.17529722914E+01  0.82155001722E+01  0.16149034832E+02  0.51100000000E-03 0. -1.
        -11    1    3    3    0    0 -0.14888259863E+02 -0.81863964290E+01  0.57909851630E+01  0.17950289069E+02  0.51100000000E-03 0.  1.
         12    1    3    3    0    0 -0.11438692307E+02  0.21111671174E+00 -0.11791558646E+02  0.16429519387E+02  0.00000000000E+00 0. -1.
</event>
<event>
 7    1  0.2755991E-011  0.5052887E+02  0.7816164E-02  0.1300439E+00
        -11   -1    0    0    0    0  0.00000000000E+00  0.00000000000E+00  0.45593999997E+02  0.45594000000E+02  0.51100000000E-03 0.  1.
         11   -1    0    0    0    0 -0.00000000000E+00 -0.00000000000E+00 -0.45593999997E+02  0.45594000000E+02  0.51100000000E-03 0. -1.
    9900012    2    1    2    0    0  0.85232345145E+01 -0.38084937823E+02  0.11404249176E+02  0.50528869232E+02  0.30000028517E+02 0.  0.
         12    1    1    2    0    0 -0.85232345145E+01  0.38084937823E+02 -0.11404249176E+02  0.40659130768E+02  0.00000000000E+00 0. -1.
         11    1    3    3    0    0 -0.97433826634E+00 -0.98725643299E+00  0.10572228154E+02  0.10662833522E+02  0.51100000000E-03 0. -1.
        -11    1    3    3    0    0 -0.86567707683E+00 -0.17673263951E+02 -0.13285539781E+01  0.17744258548E+02  0.51100000000E-03 0.  1.
        -12    1    3    3    0    0  0.10363249858E+02 -0.19424417439E+02  0.21605750004E+01  0.22121777162E+02  0.00000000000E+00 0.  1.
</event>
<event>
 7    1  0.2755991E-011  0.5052897E+02  0.7816164E-02  0.1300438E+00
        -11   -1    0    0    0    0  0.00000000000E+00  0.00000000000E+00  0.45593999997E+02  0.45594000000E+02  0.51100000000E-03 0. -1.
         11   -1    0    0    0    0 -0.00000000000E+00 -0.00000000000E+00 -0.45593999997E+02  0.45594000000E+02  0.51100000000E-03 0.  1.
    9900012    2    1    2    0    0  0.78193870942E+01 -0.61930819883E+01 -0.39416486592E+02  0.50528972783E+02  0.30000343268E+02 0.  0.
         12    1    1    2    0    0 -0.78193870942E+01  0.61930819883E+01  0.39416486592E+02  0.40659027217E+02  0.00000000000E+00 0. -1.
         11    1    3    3    0    0 -0.56376781745E-01  0.54792109990E+00 -0.17024927282E+02  0.17033835302E+02  0.51100000000E-03 0. -1.
        -11    1    3    3    0    0  0.13869391271E+02 -0.31519863486E+01 -0.22370428478E+02  0.26509075856E+02  0.51100000000E-03 0.  1.
         12    1    3    3    0    0 -0.59936273955E+01 -0.35890167397E+01 -0.21130831515E-01  0.69860616248E+01  0.00000000000E+00 0. -1.
</event>
<event>
 7    1  0.2755991E-011  0.5052886E+02  0.7816164E-02  0.1300439E+00
        -11   -1    0    0    0    0  0.00000000000E+00  0.00000000000E+00  0.45593999997E+02  0.45594000000E+02  0.51100000000E-03 0.  1.
         11   -1    0    0    0    0 -0.00000000000E+00 -0.00000000000E+00 -0.45593999997E+02  0.45594000000E+02  0.51100000000E-03 0. -1.
    9900012    2    1    2    0    0  0.29258131212E+02  0.20243193624E+02  0.19680976965E+02  0.50528856079E+02  0.29999988537E+02 0.  0.
         12    1    1    2    0    0 -0.29258131212E+02 -0.20243193624E+02 -0.19680976965E+02  0.40659143921E+02  0.00000000000E+00 0. -1.
         11    1    3    3    0    0  0.78782656121E+01 -0.26892399238E+00  0.10397838471E+02  0.13048158273E+02  0.51100000000E-03 0.  1.
        -11    1    3    3    0    0  0.75692851826E+01  0.10431120992E+02  0.14695190083E+02  0.19546124300E+02  0.51100000000E-03 0. -1.
         12    1    3    3    0    0  0.13810580418E+02  0.10080996625E+02 -0.54120515901E+01  0.17934573506E+02  0.00000000000E+00 0. -1.
</event>
<event>
 7    1  0.2755991E-011  0.5052886E+02  0.7816164E-02  0.1300439E+00
        -11   -1    0    0    0    0  0.00000000000E+00  0.00000000000E+00  0.45593999997E+02  0.45594000000E+02  0.51100000000E-03 0. -1.
         11   -1    0    0    0    0 -0.00000000000E+00 -0.00000000000E+00 -0.45593999997E+02  0.45594000000E+02  0.51100000000E-03 0.  1.
    9900012    2    1    2    0    0 -0.10120585704E+02  0.41870018955E+01 -0.39156207029E+02  0.50528858485E+02  0.29999995852E+02 0.  0.
         12    1    1    2    0    0  0.10120585704E+02 -0.41870018955E+01  0.39156207029E+02  0.40659141515E+02  0.00000000000E+00 0. -1.
         11    1    3    3    0    0 -0.24558385815E+01  0.12639517480E+02 -0.20884390071E+02  0.24534593826E+02  0.51100000000E-03 0. -1.
        -11    1    3    3    0    0 -0.58641626715E+01  0.28975036754E+01 -0.95140717397E+01  0.11545626562E+02  0.51100000000E-03 0.  1.
         12    1    3    3    0    0 -0.18005844506E+01 -0.11350019260E+02 -0.87577452176E+01  0.14448638097E+02  0.00000000000E+00 0. -1.
</event>
<event>
 7    1  0.2755991E-011  0.5052886E+02  0.7816164E-02  0.1300439E+00
        -11   -1    0    0    0    0  0.00000000000E+00  0.00000000000E+00  0.45593999997E+02  0.45594000000E+02  0.51100000000E-03 0. -1.
         11   -1    0    0    0    0 -0.00000000000E+00 -0.00000000000E+00 -0.45593999997E+02  0.45594000000E+02  0.51100000000E-03 0.  1.
    9900012    2    1    2    0    0 -0.39045039032E+02  0.10957065683E+02 -0.29313991088E+01  0.50528862501E+02  0.30000008060E+02 0.  0.
         12    1    1    2    0    0  0.39045039032E+02 -0.10957065683E+02  0.29313991088E+01  0.40659137499E+02  0.00000000000E+00 0. -1.
         11    1    3    3    0    0 -0.13879972597E+02 -0.30689017178E+00 -0.85021934988E+01  0.16279899122E+02  0.51100000000E-03 0. -1.
        -11    1    3    3    0    0 -0.89219945481E+01  0.56544177297E+01 -0.72476705007E+01  0.12810275349E+02  0.51100000000E-03 0.  1.
         12    1    3    3    0    0 -0.16243071887E+02  0.56095381250E+01  0.12818464891E+02  0.21438688030E+02  0.00000000000E+00 0. -1.
</event>
<event>
 7    1  0.2755991E-011  0.5052886E+02  0.7816164E-02  0.1300439E+00
        -11   -1    0    0    0    0  0.00000000000E+00  0.00000000000E+00  0.45593999997E+02  0.45594000000E+02  0.51100000000E-03 0.  1.
         11   -1    0    0    0    0 -0.00000000000E+00 -0.00000000000E+00 -0.45593999997E+02  0.45594000000E+02  0.51100000000E-03 0. -1.
    9900012    2    1    2    0    0  0.31181460140E+02 -0.43998745047E+01  0.25720101087E+02  0.50528856477E+02  0.29999989747E+02 0.  0.
         12    1    1    2    0    0 -0.31181460140E+02  0.43998745047E+01 -0.25720101087E+02  0.40659143523E+02  0.00000000000E+00 0. -1.
         11    1    3    3    0    0 -0.79752451389E+00 -0.45720736698E+00  0.61802190955E+00  0.11077162401E+01  0.51100000000E-03 0. -1.
        -11    1    3    3    0    0  0.27431487845E+02 -0.14431447357E+02  0.16499973154E+02  0.35114132661E+02  0.51100000000E-03 0.  1.
         12    1    3    3    0    0  0.45474968094E+01  0.10488780220E+02  0.86021060233E+01  0.14307007576E+02  0.00000000000E+00 0. -1.
</event>
<event>
 7    1  0.2755991E-011  0.5052886E+02  0.7816164E-02  0.1300439E+00
        -11   -1    0    0    0    0  0.00000000000E+00  0.00000000000E+00  0.45593999997E+02  0.45594000000E+02  0.51100000000E-03 0. -1.
         11   -1    0    0    0    0 -0.00000000000E+00 -0.00000000000E+00 -0.45593999997E+02  0.45594000000E+02  0.51100000000E-03 0.  1.
    9900012    2    1    2    0    0  0.38534789224E+02 -0.16533828743E+01 -0.12864744231E+02  0.50528864501E+02  0.30000014136E+02 0.  0.
         12    1    1    2    0    0 -0.38534789224E+02  0.16533828743E+01  0.12864744231E+02  0.40659135499E+02  0.00000000000E+00 0. -1.
         11    1    3    3    0    0 -0.20010400369E+01  0.43767319713E+01 -0.13225788533E+01  0.49909076391E+01  0.51100000000E-03 0. -1.
        -11    1    3    3    0    0  0.92022557060E+01 -0.72000677430E+01  0.10870071866E+01  0.11734737767E+02  0.51100000000E-03 0.  1.
        -12    1    3    3    0    0  0.31333573554E+02  0.11699528974E+01 -0.12629172564E+02  0.33803219094E+02  0.00000000000E+00 0.  1.
</event>
<event>
 7    1  0.2755991E-011  0.5052886E+02  0.7816164E-02  0.1300439E+00
        -11   -1    0    0    0    0  0.00000000000E+00  0.00000000000E+00  0.45593999997E+02  0.45594000000E+02  0.51100000000E-03 0. -1.
         11   -1    0    0    0    0 -0.00000000000E+00 -0.00000000000E+00 -0.45593999997E+02  0.45594000000E+02  0.51100000000E-03 0.  1.
    9900012    2    1    2    0    0  0.28465437732E+02  0.17572957825E+02 -0.23110079886E+02  0.50528858540E+02  0.29999996017E+02 0.  0.
         12    1    1    2    0    0 -0.28465437732E+02 -0.17572957825E+02  0.23110079886E+02  0.40659141460E+02  0.00000000000E+00 0. -1.
         11    1    3    3    0    0  0.45240577764E+01  0.73964084975E+01 -0.56532881949E+01  0.10350537431E+02  0.51100000000E-03 0. -1.
        -11    1    3    3    0    0  0.24427375943E+02  0.13607756996E+02 -0.65287636199E+01  0.28713977443E+02  0.51100000000E-03 0.  1.
         12    1    3    3    0    0 -0.48599598799E+00 -0.34312076687E+01 -0.10928028071E+02  0.11464343666E+02  0.00000000000E+00 0. -1.
</event>
<event>
 7    1  0.2755991E-011  0.5052886E+02  0.7816164E-02  0.1300439E+00
        -11   -1    0    0    0    0  0.00000000000E+00  0.00000000000E+00  0.45593999997E+02  0.45594000000E+02  0.51100000000E-03 0.  1.
         11   -1    0    0    0    0 -0.00000000000E+00 -0.00000000000E+00 -0.45593999997E+02  0.45594000000E+02  0.51100000000E-03 0. -1.
    9900012    2    1    2    0    0 -0.26895097702E+02  0.51825707847E+01  0.30049304428E+02  0.50528855679E+02  0.29999987321E+02 0.  0.
         12    1    1    2    0    0  0.26895097702E+02 -0.51825707847E+01 -0.30049304428E+02  0.40659144321E+02  0.00000000000E+00 0. -1.
         11    1    3    3    0    0 -0.92318199744E+01  0.13383706947E+01 -0.45123947743E+00  0.93392373074E+01  0.51100000000E-03 0. -1.
        -11    1    3    3    0    0 -0.11422081070E+02 -0.82348962120E+01  0.15902070676E+02  0.21240369668E+02  0.51100000000E-03 0.  1.
        -12    1    3    3    0    0 -0.62411966574E+01  0.12079096302E+02  0.14598473229E+02  0.19949248703E+02  0.00000000000E+00 0.  1.
</event>
<event>
 7    1  0.2755991E-011  0.5052886E+02  0.7816164E-02  0.1300439E+00
        -11   -1    0    0    0    0  0.00000000000E+00  0.00000000000E+00  0.45593999997E+02  0.45594000000E+02  0.51100000000E-03 0.  1.
         11   -1    0    0    0    0 -0.00000000000E+00 -0.00000000000E+00 -0.45593999997E+02  0.45594000000E+02  0.51100000000E-03 0. -1.
    9900012    2    1    2    0    0 -0.92965203928E+01 -0.32726878903E+02  0.22264144214E+02  0.50528855743E+02  0.29999987516E+02 0.  0.
         12    1    1    2    0    0  0.92965203928E+01  0.32726878903E+02 -0.22264144214E+02  0.40659144257E+02  0.00000000000E+00 0. -1.
         11    1    3    3    0    0  0.37964886297E+01  0.14431747806E+00  0.50754188418E+01  0.63398761921E+01  0.51100000000E-03 0. -1.
        -11    1    3    3    0    0 -0.93395311574E+01 -0.22398856235E+01  0.61941655360E+01  0.11428543949E+02  0.51100000000E-03 0.  1.
         12    1    3    3    0    0 -0.37534778651E+01 -0.30631310758E+02  0.10994559836E+02  0.32760435602E+02  0.00000000000E+00 0. -1.
</event>
<event>
 7    1  0.2755991E-011  0.5052886E+02  0.7816164E-02  0.1300439E+00
        -11   -1    0    0    0    0  0.00000000000E+00  0.00000000000E+00  0.45593999997E+02  0.45594000000E+02  0.51100000000E-03 0.  1.
         11   -1    0    0    0    0 -0.00000000000E+00 -0.00000000000E+00 -0.45593999997E+02  0.45594000000E+02  0.51100000000E-03 0. -1.
    9900012    2    1    2    0    0  0.15634621831E+02  0.55405519587E+01  0.37121781725E+02  0.50528858418E+02  0.29999995646E+02 0.  0.
         12    1    1    2    0    0 -0.15634621831E+02 -0.55405519587E+01 -0.37121781725E+02  0.40659141582E+02  0.00000000000E+00 0. -1.
         11    1    3    3    0    0 -0.18446400142E+01 -0.14605545321E+01 -0.20875218530E+01  0.31454195382E+01  0.51100000000E-03 0. -1.
        -11    1    3    3    0    0  0.81102706033E+01  0.12771901619E+02  0.26979548639E+02  0.30932086985E+02  0.51100000000E-03 0.  1.
        -12    1    3    3    0    0  0.93689912419E+01 -0.57707951277E+01  0.12229754938E+02  0.16451351894E+02  0.00000000000E+00 0.  1.
</event>
<event>
 7    1  0.2755991E-011  0.5052887E+02  0.7816164E-02  0.1300439E+00
        -11   -1    0    0    0    0  0.00000000000E+00  0.00000000000E+00  0.45593999997E+02  0.45594000000E+02  0.51100000000E-03 0.  1.
         11   -1    0    0    0    0 -0.00000000000E+00 -0.00000000000E+00 -0.45593999997E+02  0.45594000000E+02  0.51100000000E-03 0. -1.
    9900012    2    1    2    0    0 -0.20610127796E+02  0.30495257600E+02  0.17275022478E+02  0.50528874266E+02  0.30000043820E+02 0.  0.
         12    1    1    2    0    0  0.20610127796E+02 -0.30495257600E+02 -0.17275022478E+02  0.40659125734E+02  0.00000000000E+00 0. -1.
         11    1    3    3    0    0 -0.14002788427E+02  0.28641358020E+02  0.70834186340E+01  0.32658540885E+02  0.51100000000E-03 0. -1.
        -11    1    3    3    0    0  0.12312350152E+00  0.64715206847E+01  0.38216955906E+01  0.75167211481E+01  0.51100000000E-03 0.  1.
        -12    1    3    3    0    0 -0.67304628699E+01 -0.46176211049E+01  0.63699082533E+01  0.10353612233E+02  0.00000000000E+00 0.  1.
</event>
<event>
 7    1  0.2755991E-011  0.5052885E+02  0.7816164E-02  0.1300439E+00
        -11   -1    0    0    0    0  0.00000000000E+00  0.00000000000E+00  0.45593999997E+02  0.45594000000E+02  0.51100000000E-03 0.  1.
         11   -1    0    0    0    0 -0.00000000000E+00 -0.00000000000E+00 -0.45593999997E+02  0.45594000000E+02  0.51100000000E-03 0. -1.
    9900012    2    1    2    0    0 -0.26056638612E+02 -0.27438644325E+02  0.14877461959E+02  0.50528849830E+02  0.29999969545E+02 0.  0.
         12    1    1    2    0    0  0.26056638612E+02  0.27438644325E+02 -0.14877461959E+02  0.40659150170E+02  0.00000000000E+00 0. -1.
         11    1    3    3    0    0 -0.38235781498E+01 -0.90213717366E+01  0.11004140239E+02  0.14734177973E+02  0.51100000000E-03 0. -1.
        -11    1    3    3    0    0 -0.16232343135E+01 -0.21770252612E+01  0.87008716318E+01  0.91147954469E+01  0.51100000000E-03 0.  1.
         12    1    3    3    0    0 -0.20609826149E+02 -0.16240247328E+02 -0.48275499118E+01  0.26679876411E+02  0.00000000000E+00 0. -1.
</event>
<event>
 7    1  0.2755991E-011  0.5052880E+02  0.7816164E-02  0.1300439E+00
        -11   -1    0    0    0    0  0.00000000000E+00  0.00000000000E+00  0.45593999997E+02  0.45594000000E+02  0.51100000000E-03 0. -1.
         11   -1    0    0    0    0 -0.00000000000E+00 -0.00000000000E+00 -0.45593999997E+02  0.45594000000E+02  0.51100000000E-03 0.  1.
    9900012    2    1    2    0    0  0.10283566194E+02  0.38925041679E+02 -0.56797614314E+01  0.50528803091E+02  0.29999827475E+02 0.  0.
         12    1    1    2    0    0 -0.10283566194E+02 -0.38925041679E+02  0.56797614314E+01  0.40659196909E+02  0.00000000000E+00 0. -1.
         11    1    3    3    0    0 -0.41656756906E+01  0.20604755987E+01 -0.35579935019E+01  0.58530104795E+01  0.51100000000E-03 0. -1.
        -11    1    3    3    0    0  0.13018566504E+02  0.32666341813E+02 -0.91765943922E+01  0.36342576218E+02  0.51100000000E-03 0.  1.
         12    1    3    3    0    0  0.14306753808E+01  0.41982242670E+01  0.70548264628E+01  0.83332163935E+01  0.00000000000E+00 0. -1.
</event>
<event>
 7    1  0.2755991E-011  0.5052877E+02  0.7816164E-02  0.1300439E+00
        -11   -1    0    0    0    0  0.00000000000E+00  0.00000000000E+00  0.45593999997E+02  0.45594000000E+02  0.51100000000E-03 0.  1.
         11   -1    0    0    0    0 -0.00000000000E+00 -0.00000000000E+00 -0.45593999997E+02  0.45594000000E+02  0.51100000000E-03 0. -1.
    9900012    2    1    2    0    0  0.38576860882E+02 -0.52335057563E+01  0.11730683592E+02  0.50528773304E+02  0.29999736934E+02 0.  0.
         12    1    1    2    0    0 -0.38576860882E+02  0.52335057563E+01 -0.11730683592E+02  0.40659226696E+02  0.00000000000E+00 0. -1.
         11    1    3    3    0    0  0.16886849044E+02  0.22018400919E+01  0.17228504293E+02  0.24224680201E+02  0.51100000000E-03 0. -1.
        -11    1    3    3    0    0  0.79842502189E+01 -0.35958476298E+01  0.35384921186E+01  0.94445380230E+01  0.51100000000E-03 0.  1.
         12    1    3    3    0    0  0.13705761619E+02 -0.38394982184E+01 -0.90363128197E+01  0.16859555080E+02  0.00000000000E+00 0. -1.
</event>
<event>
 7    1  0.2755991E-011  0.5052887E+02  0.7816164E-02  0.1300439E+00
        -11   -1    0    0    0    0  0.00000000000E+00  0.00000000000E+00  0.45593999997E+02  0.45594000000E+02  0.51100000000E-03 0. -1.
         11   -1    0    0    0    0 -0.00000000000E+00 -0.00000000000E+00 -0.45593999997E+02  0.45594000000E+02  0.51100000000E-03 0.  1.
    9900012    2    1    2    0    0  0.13010279413E+02  0.26733824048E+02 -0.27734454203E+02  0.50528872260E+02  0.30000037720E+02 0.  0.
         12    1    1    2    0    0 -0.13010279413E+02 -0.26733824048E+02  0.27734454203E+02  0.40659127740E+02  0.00000000000E+00 0. -1.
         11    1    3    3    0    0  0.87804617519E+01  0.73815656680E+01 -0.74090315119E+01  0.13655686306E+02  0.51100000000E-03 0. -1.
        -11    1    3    3    0    0 -0.88458734380E+01  0.22899760681E+01 -0.45382162607E+01  0.10202395521E+02  0.51100000000E-03 0.  1.
         12    1    3    3    0    0  0.13075691099E+02  0.17062282312E+02 -0.15787206431E+02  0.26670790433E+02  0.00000000000E+00 0. -1.
</event>
<event>
 7    1  0.2755991E-011  0.5052886E+02  0.7816164E-02  0.1300439E+00
        -11   -1    0    0    0    0  0.00000000000E+00  0.00000000000E+00  0.45593999997E+02  0.45594000000E+02  0.51100000000E-03 0. -1.
         11   -1    0    0    0    0 -0.00000000000E+00 -0.00000000000E+00 -0.45593999997E+02  0.45594000000E+02  0.51100000000E-03 0.  1.
    9900012    2    1    2    0    0 -0.24310294791E+02  0.25465685258E+02 -0.20338978554E+02  0.50528860718E+02  0.30000002638E+02 0.  0.
         12    1    1    2    0    0  0.24310294791E+02 -0.25465685258E+02  0.20338978554E+02  0.40659139282E+02  0.00000000000E+00 0. -1.
         11    1    3    3    0    0 -0.19150099922E+02  0.27318675400E+02 -0.14947775115E+02  0.36557794433E+02  0.51100000000E-03 0. -1.
        -11    1    3    3    0    0 -0.43850381599E+01  0.36498918895E+01 -0.61192944684E+01  0.83663633390E+01  0.51100000000E-03 0.  1.
        -12    1    3    3    0    0 -0.77515670955E+00 -0.55028820309E+01  0.72809102925E+00  0.56047029464E+01  0.00000000000E+00 0.  1.
</event>
<event>
 7    1  0.2755991E-011  0.5052886E+02  0.7816164E-02  0.1300439E+00
        -11   -1    0    0    0    0  0.00000000000E+00  0.00000000000E+00  0.45593999997E+02  0.45594000000E+02  0.51100000000E-03 0.  1.
         11   -1    0    0    0    0 -0.00000000000E+00 -0.00000000000E+00 -0.45593999997E+02  0.45594000000E+02  0.51100000000E-03 0. -1.
    9900012    2    1    2    0    0 -0.17124237648E+02  0.19116431868E+02  0.31535507478E+02  0.50528859401E+02  0.29999998634E+02 0.  0.
         12    1    1    2    0    0  0.17124237648E+02 -0.19116431868E+02 -0.31535507478E+02  0.40659140599E+02  0.00000000000E+00 0. -1.
         11    1    3    3    0    0 -0.26545724166E+01 -0.23697698427E+01  0.19420366742E+01  0.40538957224E+01  0.51100000000E-03 0. -1.
        -11    1    3    3    0    0 -0.23827789186E+01  0.36964464328E+00 -0.41944425567E+01  0.48381423253E+01  0.51100000000E-03 0.  1.
        -12    1    3    3    0    0 -0.12086886313E+02  0.21116557067E+02  0.33787913361E+02  0.41636821353E+02  0.00000000000E+00 0.  1.
</event>
<event>
 7    1  0.2755991E-011  0.5052886E+02  0.7816164E-02  0.1300439E+00
        -11   -1    0    0    0    0  0.00000000000E+00  0.00000000000E+00  0.45593999997E+02  0.45594000000E+02  0.51100000000E-03 0. -1.
         11   -1    0    0    0    0 -0.00000000000E+00 -0.00000000000E+00 -0.45593999997E+02  0.45594000000E+02  0.51100000000E-03 0.  1.
    9900012    2    1    2    0    0  0.31711227918E+02  0.25140867946E+02  0.39370798777E+01  0.50528858160E+02  0.29999994865E+02 0.  0.
         12    1    1    2    0    0 -0.31711227918E+02 -0.25140867946E+02 -0.39370798777E+01  0.40659141840E+02  0.00000000000E+00 0. -1.
         11    1    3    3    0    0  0.17590842872E+02  0.23182094433E+02  0.38205617193E+01  0.29350365370E+02  0.51100000000E-03 0. -1.
        -11    1    3    3    0    0  0.78851245342E+01  0.76728547777E+01  0.42128848841E+01  0.11781183670E+02  0.51100000000E-03 0.  1.
         12    1    3    3    0    0  0.62352605120E+01 -0.57140812645E+01 -0.40963667258E+01  0.93973091203E+01  0.00000000000E+00 0. -1.
</event>
<event>
 7    1  0.2755991E-011  0.5052888E+02  0.7816164E-02  0.1300439E+00
        -11   -1    0    0    0    0  0.00000000000E+00  0.00000000000E+00  0.45593999997E+02  0.45594000000E+02  0.51100000000E-03 0.  1.
         11   -1    0    0    0    0 -0.00000000000E+00 -0.00000000000E+00 -0.45593999997E+02  0.45594000000E+02  0.51100000000E-03 0. -1.
    9900012    2    1    2    0    0  0.28234327614E+02  0.15378971942E+02  0.24889232347E+02  0.50528881458E+02  0.30000065679E+02 0.  0.
         12    1    1    2    0    0 -0.28234327614E+02 -0.15378971942E+02 -0.24889232347E+02  0.40659118542E+02  0.00000000000E+00 0. -1.
         11    1    3    3    0    0  0.23398873803E+02  0.23743456845E+01  0.75169130054E+01  0.24691067090E+02  0.51100000000E-03 0. -1.
        -11    1    3    3    0    0  0.63620433689E+01  0.11838737775E+02  0.67435170159E+01  0.15036832443E+02  0.51100000000E-03 0.  1.
        -12    1    3    3    0    0 -0.15265895579E+01  0.11658884823E+01  0.10628802326E+02  0.10800981924E+02  0.00000000000E+00 0.  1.
</event>
<event>
 7    1  0.2755991E-011  0.5052886E+02  0.7816164E-02  0.1300439E+00
        -11   -1    0    0    0    0  0.00000000000E+00  0.00000000000E+00  0.45593999997E+02  0.45594000000E+02  0.51100000000E-03 0. -1.
         11   -1    0    0    0    0 -0.00000000000E+00 -0.00000000000E+00 -0.45593999997E+02  0.45594000000E+02  0.51100000000E-03 0.  1.
    9900012    2    1    2    0    0  0.26589425674E+02 -0.13582511287E+02 -0.27598608147E+02  0.50528863977E+02  0.30000012544E+02 0.  0.
         12    1    1    2    0    0 -0.26589425674E+02  0.13582511287E+02  0.27598608147E+02  0.40659136023E+02  0.00000000000E+00 0. -1.
         11    1    3    3    0    0  0.12877895707E+01 -0.11590980901E+02 -0.87453366878E+01  0.14577042028E+02  0.51100000000E-03 0. -1.
        -11    1    3    3    0    0  0.42252400344E+01 -0.72350549510E+01 -0.83416473425E+01  0.11822933398E+02  0.51100000000E-03 0.  1.
         12    1    3    3    0    0  0.21076396069E+02  0.52435245658E+01 -0.10511624117E+02  0.24128888551E+02  0.00000000000E+00 0. -1.
</event>
<event>
 7    1  0.2755991E-011  0.5052887E+02  0.7816164E-02  0.1300439E+00
        -11   -1    0    0    0    0  0.00000000000E+00  0.00000000000E+00  0.45593999997E+02  0.45594000000E+02  0.51100000000E-03 0.  1.
         11   -1    0    0    0    0 -0.00000000000E+00 -0.00000000000E+00 -0.45593999997E+02  0.45594000000E+02  0.51100000000E-03 0. -1.
    9900012    2    1    2    0    0  0.71902438634E+01 -0.38520927935E+02  0.10844519264E+02  0.50528867030E+02  0.30000021824E+02 0.  0.
         12    1    1    2    0    0 -0.71902438634E+01  0.38520927935E+02 -0.10844519264E+02  0.40659132970E+02  0.00000000000E+00 0. -1.
         11    1    3    3    0    0 -0.42975077249E+01 -0.51859639312E+01 -0.46852556291E+01  0.82045362522E+01  0.51100000000E-03 0. -1.
        -11    1    3    3    0    0  0.50622142965E+01  0.24138042593E+00  0.93466910102E+00  0.51534342611E+01  0.51100000000E-03 0.  1.
        -12    1    3    3    0    0  0.64255372918E+01 -0.33576344430E+02  0.14595105792E+02  0.37170896517E+02  0.00000000000E+00 0.  1.
</event>
<event>
 7    1  0.2755991E-011  0.5052884E+02  0.7816164E-02  0.1300439E+00
        -11   -1    0    0    0    0  0.00000000000E+00  0.00000000000E+00  0.45593999997E+02  0.45594000000E+02  0.51100000000E-03 0.  1.
         11   -1    0    0    0    0 -0.00000000000E+00 -0.00000000000E+00 -0.45593999997E+02  0.45594000000E+02  0.51100000000E-03 0. -1.
    9900012    2    1    2    0    0 -0.32176591837E+01  0.40482286664E+02  0.19995442067E+01  0.50528843083E+02  0.29999949034E+02 0.  0.
         12    1    1    2    0    0  0.32176591837E+01 -0.40482286664E+02 -0.19995442067E+01  0.40659156917E+02  0.00000000000E+00 0. -1.
         11    1    3    3    0    0  0.52587322874E+01  0.49477291097E+01 -0.31715266625E+01  0.78862456370E+01  0.51100000000E-03 0. -1.
        -11    1    3    3    0    0  0.13587321194E+01  0.16390772873E+02 -0.70479367756E+01  0.17893490476E+02  0.51100000000E-03 0.  1.
        -12    1    3    3    0    0 -0.98351235905E+01  0.19143784681E+02  0.12219007645E+02  0.24749106970E+02  0.00000000000E+00 0.  1.
</event>
<event>
 7    1  0.2755991E-011  0.5052882E+02  0.7816164E-02  0.1300439E+00
        -11   -1    0    0    0    0  0.00000000000E+00  0.00000000000E+00  0.45593999997E+02  0.45594000000E+02  0.51100000000E-03 0. -1.
         11   -1    0    0    0    0 -0.00000000000E+00 -0.00000000000E+00 -0.45593999997E+02  0.45594000000E+02  0.51100000000E-03 0.  1.
    9900012    2    1    2    0    0  0.21635876395E+02 -0.28476717897E+02 -0.19342542269E+02  0.50528824517E+02  0.29999892601E+02 0.  0.
         12    1    1    2    0    0 -0.21635876395E+02  0.28476717897E+02  0.19342542269E+02  0.40659175483E+02  0.00000000000E+00 0. -1.
         11    1    3    3    0    0 -0.46458974270E+01 -0.16043982724E+01 -0.47312495221E+01  0.68222561532E+01  0.51100000000E-03 0. -1.
        -11    1    3    3    0    0 -0.79287217365E-01 -0.88232930961E+01 -0.58231187203E+01  0.10571920328E+02  0.51100000000E-03 0.  1.
         12    1    3    3    0    0  0.26361061039E+02 -0.18049026528E+02 -0.87881740270E+01  0.33134648036E+02  0.00000000000E+00 0. -1.
</event>
<event>
 7    1  0.2755991E-011  0.5052886E+02  0.7816164E-02  0.1300439E+00
        -11   -1    0    0    0    0  0.00000000000E+00  0.00000000000E+00  0.45593999997E+02  0.45594000000E+02  0.51100000000E-03 0.  1.
         11   -1    0    0    0    0 -0.00000000000E+00 -0.00000000000E+00 -0.45593999997E+02  0.45594000000E+02  0.51100000000E-03 0. -1.
    9900012    2    1    2    0    0  0.68969140546E+01 -0.34602864243E+02 -0.20204948695E+02  0.50528860941E+02  0.30000003316E+02 0.  0.
         12    1    1    2    0    0 -0.68969140546E+01  0.34602864243E+02  0.20204948695E+02  0.40659139059E+02  0.00000000000E+00 0. -1.
         11    1    3    3    0    0  0.85728766293E+00  0.36809145651E+01 -0.66162710128E+01  0.76196533090E+01  0.51100000000E-03 0. -1.
        -11    1    3    3    0    0  0.22075551373E+00 -0.42677227007E+01 -0.63403504283E+01  0.76460600221E+01  0.51100000000E-03 0.  1.
        -12    1    3    3    0    0  0.58188708779E+01 -0.34016056107E+02 -0.72483272539E+01  0.35263147610E+02  0.00000000000E+00 0.  1.
</event>
<event>
 7    1  0.2755991E-011  0.5052886E+02  0.7816164E-02  0.1300439E+00
        -11   -1    0    0    0    0  0.00000000000E+00  0.00000000000E+00  0.45593999997E+02  0.45594000000E+02  0.51100000000E-03 0.  1.
         11   -1    0    0    0    0 -0.00000000000E+00 -0.00000000000E+00 -0.45593999997E+02  0.45594000000E+02  0.51100000000E-03 0. -1.
    9900012    2    1    2    0    0  0.34933825256E+02  0.58469189284E+01  0.19965155077E+02  0.50528855577E+02  0.29999987011E+02 0.  0.
         12    1    1    2    0    0 -0.34933825256E+02 -0.58469189284E+01 -0.19965155077E+02  0.40659144423E+02  0.00000000000E+00 0. -1.
         11    1    3    3    0    0  0.68486525194E+01  0.48287986499E+01  0.11544104555E+02  0.14264911075E+02  0.51100000000E-03 0. -1.
        -11    1    3    3    0    0  0.13174531680E+02  0.35593062623E+01  0.14545769957E+02  0.19945334541E+02  0.51100000000E-03 0.  1.
        -12    1    3    3    0    0  0.14910641056E+02 -0.25411859838E+01 -0.61247194343E+01  0.16318609961E+02  0.00000000000E+00 0.  1.
</event>
<event>
 7    1  0.2755991E-011  0.5052886E+02  0.7816164E-02  0.1300439E+00
        -11   -1    0    0    0    0  0.00000000000E+00  0.00000000000E+00  0.45593999997E+02  0.45594000000E+02  0.51100000000E-03 0.  1.
         11   -1    0    0    0    0 -0.00000000000E+00 -0.00000000000E+00 -0.45593999997E+02  0.45594000000E+02  0.51100000000E-03 0. -1.
    9900012    2    1    2    0    0 -0.10118087345E+02 -0.39140418923E+01  0.39185077995E+02  0.50528858925E+02  0.29999997188E+02 0.  0.
         12    1    1    2    0    0  0.10118087345E+02  0.39140418923E+01 -0.39185077995E+02  0.40659141075E+02  0.00000000000E+00 0. -1.
         11    1    3    3    0    0 -0.59526701984E+01  0.64912926617E+00  0.21232635152E+02  0.22060835139E+02  0.51100000000E-03 0. -1.
        -11    1    3    3    0    0 -0.11269762187E+02  0.13051130572E+01  0.45943572958E+01  0.12240056334E+02  0.51100000000E-03 0.  1.
         12    1    3    3    0    0  0.71043450407E+01 -0.58682842157E+01  0.13358085548E+02  0.16227967451E+02  0.00000000000E+00 0. -1.
</event>
<event>
 7    1  0.2755991E-011  0.5052885E+02  0.7816164E-02  0.1300439E+00
        -11   -1    0    0    0    0  0.00000000000E+00  0.00000000000E+00  0.45593999997E+02  0.45594000000E+02  0.51100000000E-03 0.  1.
         11   -1    0    0    0    0 -0.00000000000E+00 -0.00000000000E+00 -0.45593999997E+02  0.45594000000E+02  0.51100000000E-03 0. -1.
    9900012    2    1    2    0    0 -0.13527609409E+02 -0.74654792789E+01  0.37608999380E+02  0.50528850580E+02  0.29999971823E+02 0.  0.
         12    1    1    2    0    0  0.13527609409E+02  0.74654792789E+01 -0.37608999380E+02  0.40659149420E+02  0.00000000000E+00 0. -1.
         11    1    3    3    0    0  0.76802263093E+00  0.62555910245E+01  0.38321340035E+01  0.73761459523E+01  0.51100000000E-03 0. -1.
        -11    1    3    3    0    0 -0.11522393031E+02 -0.26718593044E+01  0.62854514887E+01  0.13394449372E+02  0.51100000000E-03 0.  1.
        -12    1    3    3    0    0 -0.27732390094E+01 -0.11049210999E+02  0.27491413888E+02  0.29758255256E+02  0.00000000000E+00 0.  1.
</event>
<event>
 7    1  0.2755991E-011  0.5052889E+02  0.7816164E-02  0.1300439E+00
        -11   -1    0    0    0    0  0.00000000000E+00  0.00000000000E+00  0.45593999997E+02  0.45594000000E+02  0.51100000000E-03 0.  1.
         11   -1    0    0    0    0 -0.00000000000E+00 -0.00000000000E+00 -0.45593999997E+02  0.45594000000E+02  0.51100000000E-03 0. -1.
    9900012    2    1    2    0    0  0.11206849999E+02  0.16744979482E+02  0.35315373050E+02  0.50528887880E+02  0.30000085199E+02 0.  0.
         12    1    1    2    0    0 -0.11206849999E+02 -0.16744979482E+02 -0.35315373050E+02  0.40659112120E+02  0.00000000000E+00 0. -1.
         11    1    3    3    0    0 -0.37193912102E+01  0.34399774833E+01  0.33672879976E+01  0.60832511685E+01  0.51100000000E-03 0. -1.
        -11    1    3    3    0    0  0.43888660363E+01  0.94672112814E+01 -0.15912112269E+00  0.10436261511E+02  0.51100000000E-03 0.  1.
        -12    1    3    3    0    0  0.10537375172E+02  0.38377907172E+01  0.32107206175E+02  0.34009375200E+02  0.00000000000E+00 0.  1.
</event>
<event>
 7    1  0.2755991E-011  0.5052886E+02  0.7816164E-02  0.1300439E+00
        -11   -1    0    0    0    0  0.00000000000E+00  0.00000000000E+00  0.45593999997E+02  0.45594000000E+02  0.51100000000E-03 0.  1.
         11   -1    0    0    0    0 -0.00000000000E+00 -0.00000000000E+00 -0.45593999997E+02  0.45594000000E+02  0.51100000000E-03 0. -1.
    9900012    2    1    2    0    0  0.13857415972E+02  0.31102937850E+02  0.22220371833E+02  0.50528860256E+02  0.30000001236E+02 0.  0.
         12    1    1    2    0    0 -0.13857415972E+02 -0.31102937850E+02 -0.22220371833E+02  0.40659139744E+02  0.00000000000E+00 0. -1.
         11    1    3    3    0    0  0.36540266257E+01  0.42722816549E+01  0.16909509590E+01  0.58705720783E+01  0.51100000000E-03 0. -1.
        -11    1    3    3    0    0  0.12939821172E+02  0.14305353227E+02 -0.13098939815E+01  0.19333854385E+02  0.51100000000E-03 0.  1.
        -12    1    3    3    0    0 -0.27364318253E+01  0.12525302968E+02  0.21839314855E+02  0.25324433793E+02  0.00000000000E+00 0.  1.
</event>
<event>
 7    1  0.2755991E-011  0.5052885E+02  0.7816164E-02  0.1300439E+00
        -11   -1    0    0    0    0  0.00000000000E+00  0.00000000000E+00  0.45593999997E+02  0.45594000000E+02  0.51100000000E-03 0. -1.
         11   -1    0    0    0    0 -0.00000000000E+00 -0.00000000000E+00 -0.45593999997E+02  0.45594000000E+02  0.51100000000E-03 0.  1.
    9900012    2    1    2    0    0 -0.19230175141E+01 -0.29702364721E+02 -0.27699067864E+02  0.50528845718E+02  0.29999957044E+02 0.  0.
         12    1    1    2    0    0  0.19230175141E+01  0.29702364721E+02  0.27699067864E+02  0.40659154282E+02  0.00000000000E+00 0. -1.
         11    1    3    3    0    0  0.14693907704E+01 -0.25994444787E+02 -0.23930870125E+02  0.35363212725E+02  0.51100000000E-03 0. -1.
        -11    1    3    3    0    0 -0.12407964226E+01 -0.62534486889E+01 -0.77094135590E+01  0.10004011893E+02  0.51100000000E-03 0.  1.
         12    1    3    3    0    0 -0.21516118620E+01  0.25455287545E+01  0.39412158200E+01  0.51616211004E+01  0.00000000000E+00 0. -1.
</event>
<event>
 7    1  0.2755991E-011  0.5052889E+02  0.7816164E-02  0.1300439E+00
        -11   -1    0    0    0    0  0.00000000000E+00  0.00000000000E+00  0.45593999997E+02  0.45594000000E+02  0.51100000000E-03 0. -1.
         11   -1    0    0    0    0 -0.00000000000E+00 -0.00000000000E+00 -0.45593999997E+02  0.45594000000E+02  0.51100000000E-03 0.  1.
    9900012    2    1    2    0    0 -0.30936097765E+02 -0.14077983220E+02  0.22314369186E+02  0.50528894886E+02  0.30000106496E+02 0.  0.
         12    1    1    2    0    0  0.30936097765E+02  0.14077983220E+02 -0.22314369186E+02  0.40659105114E+02  0.00000000000E+00 0. -1.
         11    1    3    3    0    0 -0.52571494163E+01  0.48339200831E+01  0.19061905675E+01  0.73917498670E+01  0.51100000000E-03 0.  1.
        -11    1    3    3    0    0 -0.22188474481E+02 -0.18221734854E+02  0.73983533932E+01  0.29649547283E+02  0.51100000000E-03 0. -1.
         12    1    3    3    0    0 -0.34904738673E+01 -0.69016845001E+00  0.13009825225E+02  0.13487597736E+02  0.00000000000E+00 0. -1.
</event>
<event>
 7    1  0.2755991E-011  0.5052886E+02  0.7816164E-02  0.1300439E+00
        -11   -1    0    0    0    0  0.00000000000E+00  0.00000000000E+00  0.45593999997E+02  0.45594000000E+02  0.51100000000E-03 0.  1.
         11   -1    0    0    0    0 -0.00000000000E+00 -0.00000000000E+00 -0.45593999997E+02  0.45594000000E+02  0.51100000000E-03 0. -1.
    9900012    2    1    2    0    0 -0.40418983604E+02 -0.28607572560E+01 -0.33596456571E+01  0.50528863431E+02  0.30000010883E+02 0.  0.
         12    1    1    2    0    0  0.40418983604E+02  0.28607572560E+01  0.33596456571E+01  0.40659136569E+02  0.00000000000E+00 0. -1.
         11    1    3    3    0    0 -0.66145919740E+01 -0.46662484374E+01 -0.84091068646E+00  0.81384170762E+01  0.51100000000E-03 0. -1.
        -11    1    3    3    0    0 -0.18943781842E+02 -0.57534677269E+01  0.93795522462E+01  0.21907653046E+02  0.51100000000E-03 0.  1.
        -12    1    3    3    0    0 -0.14860609788E+02  0.75589589083E+01 -0.11898287217E+02  0.20482793309E+02  0.00000000000E+00 0.  1.
</event>
<event>
 7    1  0.2755991E-011  0.5052886E+02  0.7816164E-02  0.1300439E+00
        -11   -1    0    0    0    0  0.00000000000E+00  0.00000000000E+00  0.45593999997E+02  0.45594000000E+02  0.51100000000E-03 0.  1.
         11   -1    0    0    0    0 -0.00000000000E+00 -0.00000000000E+00 -0.45593999997E+02  0.45594000000E+02  0.51100000000E-03 0. -1.
    9900012    2    1    2    0    0  0.16257213509E+00  0.64873373110E+01  0.40137936846E+02  0.50528856510E+02  0.29999989848E+02 0.  0.
         12    1    1    2    0    0 -0.16257213509E+00 -0.64873373110E+01 -0.40137936846E+02  0.40659143490E+02  0.00000000000E+00 0. -1.
         11    1    3    3    0    0  0.83277617063E+01  0.30118167247E+01  0.63923347456E+01  0.10921748888E+02  0.51100000000E-03 0. -1.
        -11    1    3    3    0    0 -0.36058825280E+01 -0.74897874319E+01  0.18503332044E+02  0.20284787442E+02  0.51100000000E-03 0.  1.
         12    1    3    3    0    0 -0.45593070432E+01  0.10965308018E+02  0.15242270057E+02  0.19322320180E+02  0.00000000000E+00 0. -1.
</event>
<event>
 7    1  0.2755991E-011  0.5052887E+02  0.7816164E-02  0.1300439E+00
        -11   -1    0    0    0    0  0.00000000000E+00  0.00000000000E+00  0.45593999997E+02  0.45594000000E+02  0.51100000000E-03 0.  1.
         11   -1    0    0    0    0 -0.00000000000E+00 -0.00000000000E+00 -0.45593999997E+02  0.45594000000E+02  0.51100000000E-03 0. -1.
    9900012    2    1    2    0    0  0.19798039740E+02  0.96094145537E+01  0.34188619468E+02  0.50528869086E+02  0.30000028073E+02 0.  0.
         12    1    1    2    0    0 -0.19798039740E+02 -0.96094145537E+01 -0.34188619468E+02  0.40659130914E+02  0.00000000000E+00 0. -1.
         11    1    3    3    0    0  0.11229683297E+02  0.80158092403E+01  0.20904532519E+01  0.13954532589E+02  0.51100000000E-03 0. -1.
        -11    1    3    3    0    0  0.84209347458E+01  0.34717508598E+01  0.72147772774E+01  0.11619733536E+02  0.51100000000E-03 0.  1.
         12    1    3    3    0    0  0.14742169709E+00 -0.18781455464E+01  0.24883388938E+02  0.24954602960E+02  0.00000000000E+00 0. -1.
</event>
<event>
 7    1  0.2755991E-011  0.5052885E+02  0.7816164E-02  0.1300439E+00
        -11   -1    0    0    0    0  0.00000000000E+00  0.00000000000E+00  0.45593999997E+02  0.45594000000E+02  0.51100000000E-03 0. -1.
         11   -1    0    0    0    0 -0.00000000000E+00 -0.00000000000E+00 -0.45593999997E+02  0.45594000000E+02  0.51100000000E-03 0.  1.
    9900012    2    1    2    0    0 -0.10071470241E+02 -0.26227352465E+02 -0.29391458279E+02  0.50528851584E+02  0.29999974874E+02 0.  0.
         12    1    1    2    0    0  0.10071470241E+02  0.26227352465E+02  0.29391458279E+02  0.40659148416E+02  0.00000000000E+00 0. -1.
         11    1    3    3    0    0 -0.44448848555E+01 -0.43996352399E+01 -0.12899967031E+02  0.14336071334E+02  0.51100000000E-03 0. -1.
        -11    1    3    3    0    0 -0.12490381097E+02 -0.42365471337E+01 -0.84834716968E+01  0.15682067588E+02  0.51100000000E-03 0.  1.
         12    1    3    3    0    0  0.68637957109E+01 -0.17591170092E+02 -0.80080195511E+01  0.20510712662E+02  0.00000000000E+00 0. -1.
</event>
<event>
 7    1  0.2755991E-011  0.5052886E+02  0.7816164E-02  0.1300439E+00
        -11   -1    0    0    0    0  0.00000000000E+00  0.00000000000E+00  0.45593999997E+02  0.45594000000E+02  0.51100000000E-03 0.  1.
         11   -1    0    0    0    0 -0.00000000000E+00 -0.00000000000E+00 -0.45593999997E+02  0.45594000000E+02  0.51100000000E-03 0. -1.
    9900012    2    1    2    0    0 -0.50093878057E+01 -0.22655858955E+02  0.33388382339E+02  0.50528856055E+02  0.29999988464E+02 0.  0.
         12    1    1    2    0    0  0.50093878057E+01  0.22655858955E+02 -0.33388382339E+02  0.40659143945E+02  0.00000000000E+00 0. -1.
         11    1    3    3    0    0  0.46659595425E+01 -0.89098288473E+01  0.75141671645E+01  0.12554638066E+02  0.51100000000E-03 0. -1.
        -11    1    3    3    0    0 -0.28560332515E+00 -0.17598965271E+02  0.17432207276E+02  0.24772706728E+02  0.51100000000E-03 0.  1.
         12    1    3    3    0    0 -0.93897440230E+01  0.38529351639E+01  0.84420078985E+01  0.13201511260E+02  0.00000000000E+00 0. -1.
</event>
<event>
 7    1  0.2755991E-011  0.5052889E+02  0.7816164E-02  0.1300439E+00
        -11   -1    0    0    0    0  0.00000000000E+00  0.00000000000E+00  0.45593999997E+02  0.45594000000E+02  0.51100000000E-03 0.  1.
         11   -1    0    0    0    0 -0.00000000000E+00 -0.00000000000E+00 -0.45593999997E+02  0.45594000000E+02  0.51100000000E-03 0. -1.
    9900012    2    1    2    0    0 -0.32969482767E+02 -0.84431188068E+01  0.22246130776E+02  0.50528888061E+02  0.30000085751E+02 0.  0.
         12    1    1    2    0    0  0.32969482767E+02  0.84431188068E+01 -0.22246130776E+02  0.40659111939E+02  0.00000000000E+00 0. -1.
         11    1    3    3    0    0 -0.10129153430E+02 -0.89277585478E+01  0.62750928710E+01  0.14888969497E+02  0.51100000000E-03 0.  1.
        -11    1    3    3    0    0 -0.62541192793E+01 -0.74159279976E+01  0.14180268242E+02  0.17181094369E+02  0.51100000000E-03 0. -1.
         12    1    3    3    0    0 -0.16586210058E+02  0.79005677386E+01  0.17907696629E+01  0.18458824195E+02  0.00000000000E+00 0. -1.
</event>
<event>
 7    1  0.2755991E-011  0.5052887E+02  0.7816164E-02  0.1300439E+00
        -11   -1    0    0    0    0  0.00000000000E+00  0.00000000000E+00  0.45593999997E+02  0.45594000000E+02  0.51100000000E-03 0. -1.
         11   -1    0    0    0    0 -0.00000000000E+00 -0.00000000000E+00 -0.45593999997E+02  0.45594000000E+02  0.51100000000E-03 0.  1.
    9900012    2    1    2    0    0 -0.24200828357E+02 -0.23498670194E+02 -0.22700154714E+02  0.50528872881E+02  0.30000039609E+02 0.  0.
         12    1    1    2    0    0  0.24200828357E+02  0.23498670194E+02  0.22700154714E+02  0.40659127119E+02  0.00000000000E+00 0. -1.
         11    1    3    3    0    0 -0.92646527178E+01  0.40006987319E+01 -0.64456865729E+01  0.11974400026E+02  0.51100000000E-03 0. -1.
        -11    1    3    3    0    0  0.27288765754E+00  0.87452603530E+00 -0.40070185070E+01  0.41104088649E+01  0.51100000000E-03 0.  1.
         12    1    3    3    0    0 -0.15209063297E+02 -0.28373894961E+02 -0.12247449634E+02  0.34444063990E+02  0.00000000000E+00 0. -1.
</event>
<event>
 7    1  0.2755991E-011  0.5052885E+02  0.7816164E-02  0.1300439E+00
        -11   -1    0    0    0    0  0.00000000000E+00  0.00000000000E+00  0.45593999997E+02  0.45594000000E+02  0.51100000000E-03 0.  1.
         11   -1    0    0    0    0 -0.00000000000E+00 -0.00000000000E+00 -0.45593999997E+02  0.45594000000E+02  0.51100000000E-03 0. -1.
    9900012    2    1    2    0    0 -0.27155577756E+02  0.60735404079E+01  0.29645453055E+02  0.50528853634E+02  0.29999981106E+02 0.  0.
         12    1    1    2    0    0  0.27155577756E+02 -0.60735404079E+01 -0.29645453055E+02  0.40659146366E+02  0.00000000000E+00 0. -1.
         11    1    3    3    0    0 -0.41452366367E+00  0.35708971591E+01  0.11229596788E+02  0.11790970303E+02  0.51100000000E-03 0. -1.
        -11    1    3    3    0    0  0.14806066551E+01  0.43080237458E+01  0.67577803289E+01  0.81497766777E+01  0.51100000000E-03 0.  1.
         12    1    3    3    0    0 -0.28221660747E+02 -0.18053804971E+01  0.11658075938E+02  0.30588106654E+02  0.00000000000E+00 0. -1.
</event>
<event>
 7    1  0.2755991E-011  0.5052886E+02  0.7816164E-02  0.1300439E+00
        -11   -1    0    0    0    0  0.00000000000E+00  0.00000000000E+00  0.45593999997E+02  0.45594000000E+02  0.51100000000E-03 0.  1.
         11   -1    0    0    0    0 -0.00000000000E+00 -0.00000000000E+00 -0.45593999997E+02  0.45594000000E+02  0.51100000000E-03 0. -1.
    9900012    2    1    2    0    0 -0.66715490754E+01  0.36736864243E+02  0.16095313233E+02  0.50528857491E+02  0.29999992830E+02 0.  0.
         12    1    1    2    0    0  0.66715490754E+01 -0.36736864243E+02 -0.16095313233E+02  0.40659142509E+02  0.00000000000E+00 0. -1.
         11    1    3    3    0    0  0.27981101472E+01 -0.85118083917E+00  0.54637395060E+01  0.61972880252E+01  0.51100000000E-03 0. -1.
        -11    1    3    3    0    0  0.46377010987E+01  0.70173516582E+01  0.60306857797E+01  0.10349911449E+02  0.51100000000E-03 0.  1.
        -12    1    3    3    0    0 -0.14107360321E+02  0.30570693424E+02  0.46008879477E+01  0.33981658017E+02  0.00000000000E+00 0.  1.
</event>
<event>
 7    1  0.2755991E-011  0.5052886E+02  0.7816164E-02  0.1300439E+00
        -11   -1    0    0    0    0  0.00000000000E+00  0.00000000000E+00  0.45593999997E+02  0.45594000000E+02  0.51100000000E-03 0.  1.
         11   -1    0    0    0    0 -0.00000000000E+00 -0.00000000000E+00 -0.45593999997E+02  0.45594000000E+02  0.51100000000E-03 0. -1.
    9900012    2    1    2    0    0 -0.81890081022E+01 -0.13810346198E+01  0.39801996610E+02  0.50528855340E+02  0.29999986291E+02 0.  0.
         12    1    1    2    0    0  0.81890081022E+01  0.13810346198E+01 -0.39801996610E+02  0.40659144660E+02  0.00000000000E+00 0. -1.
         11    1    3    3    0    0  0.22926223591E+01  0.15290198615E+01  0.48949492266E+00  0.27988612968E+01  0.51100000000E-03 0. -1.
        -11    1    3    3    0    0 -0.27003061141E+01  0.94361256950E+01  0.26680678100E+02  0.28428695105E+02  0.51100000000E-03 0.  1.
         12    1    3    3    0    0 -0.77813243471E+01 -0.12346180176E+02  0.12631823588E+02  0.19301298938E+02  0.00000000000E+00 0. -1.
</event>
<event>
 7    1  0.2755991E-011  0.5052884E+02  0.7816164E-02  0.1300439E+00
        -11   -1    0    0    0    0  0.00000000000E+00  0.00000000000E+00  0.45593999997E+02  0.45594000000E+02  0.51100000000E-03 0.  1.
         11   -1    0    0    0    0 -0.00000000000E+00 -0.00000000000E+00 -0.45593999997E+02  0.45594000000E+02  0.51100000000E-03 0. -1.
    9900012    2    1    2    0    0  0.13779154253E+02 -0.37586449674E+02  0.71106059884E+01  0.50528843485E+02  0.29999950256E+02 0.  0.
         12    1    1    2    0    0 -0.13779154253E+02  0.37586449674E+02 -0.71106059884E+01  0.40659156515E+02  0.00000000000E+00 0. -1.
         11    1    3    3    0    0  0.27479284577E+01 -0.23250508413E+01 -0.52203338625E+01  0.63410455069E+01  0.51100000000E-03 0. -1.
        -11    1    3    3    0    0  0.16462862926E+02 -0.18532206393E+02  0.61013909330E+01  0.25528327424E+02  0.51100000000E-03 0.  1.
        -12    1    3    3    0    0 -0.54316371309E+01 -0.16729192440E+02  0.62295489179E+01  0.18659470553E+02  0.00000000000E+00 0.  1.
</event>
<event>
 7    1  0.2755991E-011  0.5052887E+02  0.7816164E-02  0.1300439E+00
        -11   -1    0    0    0    0  0.00000000000E+00  0.00000000000E+00  0.45593999997E+02  0.45594000000E+02  0.51100000000E-03 0. -1.
         11   -1    0    0    0    0 -0.00000000000E+00 -0.00000000000E+00 -0.45593999997E+02  0.45594000000E+02  0.51100000000E-03 0.  1.
    9900012    2    1    2    0    0  0.14122463479E+02  0.36953078467E+02 -0.93910195278E+01  0.50528865348E+02  0.30000016712E+02 0.  0.
         12    1    1    2    0    0 -0.14122463479E+02 -0.36953078467E+02  0.93910195278E+01  0.40659134652E+02  0.00000000000E+00 0. -1.
         11    1    3    3    0    0  0.14055684805E+02  0.14728865311E+02 -0.30481004331E+01  0.20586225132E+02  0.51100000000E-03 0. -1.
        -11    1    3    3    0    0 -0.11185166212E+00  0.24914917804E+02 -0.86701757331E+01  0.26380629020E+02  0.51100000000E-03 0.  1.
         12    1    3    3    0    0  0.17863033607E+00 -0.26907046482E+01  0.23272566384E+01  0.35620111962E+01  0.00000000000E+00 0. -1.
</event>
<event>
 7    1  0.2755991E-011  0.5052888E+02  0.7816164E-02  0.1300439E+00
        -11   -1    0    0    0    0  0.00000000000E+00  0.00000000000E+00  0.45593999997E+02  0.45594000000E+02  0.51100000000E-03 0.  1.
         11   -1    0    0    0    0 -0.00000000000E+00 -0.00000000000E+00 -0.45593999997E+02  0.45594000000E+02  0.51100000000E-03 0. -1.
    9900012    2    1    2    0    0 -0.16096701617E+02  0.29828757479E+02  0.22456744931E+02  0.50528880868E+02  0.30000063887E+02 0.  0.
         12    1    1    2    0    0  0.16096701617E+02 -0.29828757479E+02 -0.22456744931E+02  0.40659119132E+02  0.00000000000E+00 0. -1.
         11    1    3    3    0    0 -0.12710598283E+02  0.16655493813E+02  0.16503980833E+01  0.21016388771E+02  0.51100000000E-03 0.  1.
        -11    1    3    3    0    0  0.12849342699E+00 -0.30247877860E+01  0.80396089472E+01  0.85907603853E+01  0.51100000000E-03 0. -1.
        -12    1    3    3    0    0 -0.35145967613E+01  0.16198051452E+02  0.12766737900E+02  0.20921731712E+02  0.00000000000E+00 0.  1.
</event>
<event>
 7    1  0.2755991E-011  0.5052886E+02  0.7816164E-02  0.1300439E+00
        -11   -1    0    0    0    0  0.00000000000E+00  0.00000000000E+00  0.45593999997E+02  0.45594000000E+02  0.51100000000E-03 0. -1.
         11   -1    0    0    0    0 -0.00000000000E+00 -0.00000000000E+00 -0.45593999997E+02  0.45594000000E+02  0.51100000000E-03 0.  1.
    9900012    2    1    2    0    0  0.20539504371E+02  0.25544988069E+02 -0.24057179198E+02  0.50528861713E+02  0.30000005664E+02 0.  0.
         12    1    1    2    0    0 -0.20539504371E+02 -0.25544988069E+02  0.24057179198E+02  0.40659138287E+02  0.00000000000E+00 0. -1.
         11    1    3    3    0    0  0.14732139569E+02  0.11179104538E+02 -0.10017385653E+02  0.21032268782E+02  0.51100000000E-03 0. -1.
        -11    1    3    3    0    0  0.13086848084E+02  0.55061207999E+01 -0.98856994946E+01  0.17300578424E+02  0.51100000000E-03 0.  1.
         12    1    3    3    0    0 -0.72794832814E+01  0.88597627310E+01 -0.41540940499E+01  0.12196014508E+02  0.00000000000E+00 0. -1.
</event>
<event>
 7    1  0.2755991E-011  0.5052886E+02  0.7816164E-02  0.1300439E+00
        -11   -1    0    0    0    0  0.00000000000E+00  0.00000000000E+00  0.45593999997E+02  0.45594000000E+02  0.51100000000E-03 0. -1.
         11   -1    0    0    0    0 -0.00000000000E+00 -0.00000000000E+00 -0.45593999997E+02  0.45594000000E+02  0.51100000000E-03 0.  1.
    9900012    2    1    2    0    0 -0.11060848764E+02  0.24490241667E+02 -0.30513130836E+02  0.50528862457E+02  0.30000007926E+02 0.  0.
         12    1    1    2    0    0  0.11060848764E+02 -0.24490241667E+02  0.30513130836E+02  0.40659137543E+02  0.00000000000E+00 0. -1.
         11    1    3    3    0    0 -0.15834333558E+02  0.93723848022E+01 -0.93279862660E+01  0.20629567231E+02  0.51100000000E-03 0. -1.
        -11    1    3    3    0    0 -0.22540043475E+01  0.31186342335E+01  0.75723302784E+00  0.39217110042E+01  0.51100000000E-03 0.  1.
        -12    1    3    3    0    0  0.70274891408E+01  0.11999222631E+02 -0.21942377598E+02  0.25977584222E+02  0.00000000000E+00 0.  1.
</event>
<event>
 7    1  0.2755991E-011  0.5052884E+02  0.7816164E-02  0.1300439E+00
        -11   -1    0    0    0    0  0.00000000000E+00  0.00000000000E+00  0.45593999997E+02  0.45594000000E+02  0.51100000000E-03 0.  1.
         11   -1    0    0    0    0 -0.00000000000E+00 -0.00000000000E+00 -0.45593999997E+02  0.45594000000E+02  0.51100000000E-03 0. -1.
    9900012    2    1    2    0    0 -0.20005556999E+02 -0.27037165726E+02  0.22845933146E+02  0.50528839868E+02  0.29999939262E+02 0.  0.
         12    1    1    2    0    0  0.20005556999E+02  0.27037165726E+02 -0.22845933146E+02  0.40659160132E+02  0.00000000000E+00 0. -1.
         11    1    3    3    0    0 -0.11324181935E+02  0.36104026365E+00  0.61322219475E+01  0.12882996268E+02  0.51100000000E-03 0. -1.
        -11    1    3    3    0    0  0.11756192920E+01  0.21182821947E+01  0.23723588774E+00  0.24342311525E+01  0.51100000000E-03 0.  1.
        -12    1    3    3    0    0 -0.98569943560E+01 -0.29516488185E+02  0.16476475311E+02  0.35211612447E+02  0.00000000000E+00 0.  1.
</event>
<event>
 7    1  0.2755991E-011  0.5052886E+02  0.7816164E-02  0.1300439E+00
        -11   -1    0    0    0    0  0.00000000000E+00  0.00000000000E+00  0.45593999997E+02  0.45594000000E+02  0.51100000000E-03 0.  1.
         11   -1    0    0    0    0 -0.00000000000E+00 -0.00000000000E+00 -0.45593999997E+02  0.45594000000E+02  0.51100000000E-03 0. -1.
    9900012    2    1    2    0    0  0.41041301080E+01 -0.80774394587E+01  0.39636811595E+02  0.50528859016E+02  0.29999997464E+02 0.  0.
         12    1    1    2    0    0 -0.41041301080E+01  0.80774394587E+01 -0.39636811595E+02  0.40659140984E+02  0.00000000000E+00 0. -1.
         11    1    3    3    0    0 -0.38546446358E+01 -0.12104957214E+02  0.23231079594E+02  0.26477751675E+02  0.51100000000E-03 0. -1.
        -11    1    3    3    0    0  0.43946631020E+00 -0.29765820408E+01  0.12818531386E+02  0.13166925170E+02  0.51100000000E-03 0.  1.
         12    1    3    3    0    0  0.75193084336E+01  0.70040997956E+01  0.35872006154E+01  0.10884182171E+02  0.00000000000E+00 0. -1.
</event>
<event>
 7    1  0.2755991E-011  0.5052886E+02  0.7816164E-02  0.1300439E+00
        -11   -1    0    0    0    0  0.00000000000E+00  0.00000000000E+00  0.45593999997E+02  0.45594000000E+02  0.51100000000E-03 0.  1.
         11   -1    0    0    0    0 -0.00000000000E+00 -0.00000000000E+00 -0.45593999997E+02  0.45594000000E+02  0.51100000000E-03 0. -1.
    9900012    2    1    2    0    0  0.16038151783E+02  0.36612690361E+02  0.74467521015E+01  0.50528861729E+02  0.30000005712E+02 0.  0.
         12    1    1    2    0    0 -0.16038151783E+02 -0.36612690361E+02 -0.74467521015E+01  0.40659138271E+02  0.00000000000E+00 0. -1.
         11    1    3    3    0    0 -0.47588732042E+00  0.23285276866E+01  0.13740092801E+01  0.27452525735E+01  0.51100000000E-03 0. -1.
        -11    1    3    3    0    0  0.82342262117E+01  0.98772992503E+01 -0.10955426173E+02  0.16893338471E+02  0.51100000000E-03 0.  1.
        -12    1    3    3    0    0  0.82798128912E+01  0.24406863424E+02  0.17028168994E+02  0.30890270685E+02  0.00000000000E+00 0.  1.
</event>
<event>
 7    1  0.2755991E-011  0.5052885E+02  0.7816164E-02  0.1300439E+00
        -11   -1    0    0    0    0  0.00000000000E+00  0.00000000000E+00  0.45593999997E+02  0.45594000000E+02  0.51100000000E-03 0.  1.
         11   -1    0    0    0    0 -0.00000000000E+00 -0.00000000000E+00 -0.45593999997E+02  0.45594000000E+02  0.51100000000E-03 0. -1.
    9900012    2    1    2    0    0 -0.87909478503E+01 -0.35298032738E+02 -0.18164093348E+02  0.50528853840E+02  0.29999981733E+02 0.  0.
         12    1    1    2    0    0  0.87909478503E+01  0.35298032738E+02  0.18164093348E+02  0.40659146160E+02  0.00000000000E+00 0. -1.
         11    1    3    3    0    0 -0.83671715865E+01 -0.34954158362E+02 -0.13384037842E+02  0.38352773256E+02  0.51100000000E-03 0. -1.
        -11    1    3    3    0    0  0.19068427290E+01 -0.48652452876E+01 -0.43773898534E-01  0.52257609318E+01  0.51100000000E-03 0.  1.
         12    1    3    3    0    0 -0.23306189928E+01  0.45213709120E+01 -0.47362816075E+01  0.69503196530E+01  0.00000000000E+00 0. -1.
</event>
<event>
 7    1  0.2755991E-011  0.5052886E+02  0.7816164E-02  0.1300439E+00
        -11   -1    0    0    0    0  0.00000000000E+00  0.00000000000E+00  0.45593999997E+02  0.45594000000E+02  0.51100000000E-03 0.  1.
         11   -1    0    0    0    0 -0.00000000000E+00 -0.00000000000E+00 -0.45593999997E+02  0.45594000000E+02  0.51100000000E-03 0. -1.
    9900012    2    1    2    0    0  0.47400992185E+01  0.11620972670E+02  0.38673636837E+02  0.50528859175E+02  0.29999997949E+02 0.  0.
         12    1    1    2    0    0 -0.47400992185E+01 -0.11620972670E+02 -0.38673636837E+02  0.40659140825E+02  0.00000000000E+00 0. -1.
         11    1    3    3    0    0  0.48041512205E+00  0.23092312607E+01 -0.62394441009E+00  0.24398062614E+01  0.51100000000E-03 0. -1.
        -11    1    3    3    0    0 -0.64544904461E+01  0.72514278171E+01  0.29604358983E+01  0.10149277475E+02  0.51100000000E-03 0.  1.
        -12    1    3    3    0    0  0.10714174543E+02  0.20603135920E+01  0.36337145349E+02  0.37939775439E+02  0.00000000000E+00 0.  1.
</event>
<event>
 7    1  0.2755991E-011  0.5052885E+02  0.7816164E-02  0.1300439E+00
        -11   -1    0    0    0    0  0.00000000000E+00  0.00000000000E+00  0.45593999997E+02  0.45594000000E+02  0.51100000000E-03 0.  1.
         11   -1    0    0    0    0 -0.00000000000E+00 -0.00000000000E+00 -0.45593999997E+02  0.45594000000E+02  0.51100000000E-03 0. -1.
    9900012    2    1    2    0    0 -0.39571597802E+02 -0.16450328934E+01  0.91950339677E+01  0.50528854221E+02  0.29999982889E+02 0.  0.
         12    1    1    2    0    0  0.39571597802E+02  0.16450328934E+01 -0.91950339677E+01  0.40659145779E+02  0.00000000000E+00 0. -1.
         11    1    3    3    0    0 -0.66839690521E+01  0.89667991629E+01  0.30392610550E+01  0.11589479606E+02  0.51100000000E-03 0. -1.
        -11    1    3    3    0    0 -0.13404213205E+02  0.35495565978E+01  0.52791003329E+01  0.14837155531E+02  0.51100000000E-03 0.  1.
         12    1    3    3    0    0 -0.19483415545E+02 -0.14161388654E+02  0.87667257967E+00  0.24102219083E+02  0.00000000000E+00 0. -1.
</event>
<event>
 7    1  0.2755991E-011  0.5052886E+02  0.7816164E-02  0.1300439E+00
        -11   -1    0    0    0    0  0.00000000000E+00  0.00000000000E+00  0.45593999997E+02  0.45594000000E+02  0.51100000000E-03 0.  1.
         11   -1    0    0    0    0 -0.00000000000E+00 -0.00000000000E+00 -0.45593999997E+02  0.45594000000E+02  0.51100000000E-03 0. -1.
    9900012    2    1    2    0    0  0.11795647042E+02  0.49935955661E+00 -0.38907311378E+02  0.50528861694E+02  0.30000005605E+02 0.  0.
         12    1    1    2    0    0 -0.11795647042E+02 -0.49935955661E+00  0.38907311378E+02  0.40659138306E+02  0.00000000000E+00 0. -1.
         11    1    3    3    0    0 -0.59339511851E+00 -0.33679190345E+01 -0.45028503813E+01  0.56542601822E+01  0.51100000000E-03 0. -1.
        -11    1    3    3    0    0 -0.56367243517E+01 -0.13309709895E+01 -0.12001043048E+00  0.57929740166E+01  0.51100000000E-03 0.  1.
        -12    1    3    3    0    0  0.18025766512E+02  0.51982495806E+01 -0.34284450566E+02  0.39081627495E+02  0.00000000000E+00 0.  1.
</event>
<event>
 7    1  0.2755991E-011  0.5052881E+02  0.7816164E-02  0.1300439E+00
        -11   -1    0    0    0    0  0.00000000000E+00  0.00000000000E+00  0.45593999997E+02  0.45594000000E+02  0.51100000000E-03 0. -1.
         11   -1    0    0    0    0 -0.00000000000E+00 -0.00000000000E+00 -0.45593999997E+02  0.45594000000E+02  0.51100000000E-03 0.  1.
    9900012    2    1    2    0    0  0.35734237793E+02 -0.67056735566E+01 -0.18200769885E+02  0.50528808752E+02  0.29999844682E+02 0.  0.
         12    1    1    2    0    0 -0.35734237793E+02  0.67056735566E+01  0.18200769885E+02  0.40659191248E+02  0.00000000000E+00 0. -1.
         11    1    3    3    0    0  0.79676229418E+01 -0.37510847487E+01  0.48943241501E+01  0.10075120907E+02  0.51100000000E-03 0. -1.
        -11    1    3    3    0    0  0.29150892343E+00  0.32004274097E+01  0.10309219620E+01  0.33749834681E+01  0.51100000000E-03 0.  1.
        -12    1    3    3    0    0  0.27475105928E+02 -0.61550162176E+01 -0.24126015997E+02  0.37078704377E+02  0.00000000000E+00 0.  1.
</event>
<event>
 7    1  0.2755991E-011  0.5052885E+02  0.7816164E-02  0.1300439E+00
        -11   -1    0    0    0    0  0.00000000000E+00  0.00000000000E+00  0.45593999997E+02  0.45594000000E+02  0.51100000000E-03 0. -1.
         11   -1    0    0    0    0 -0.00000000000E+00 -0.00000000000E+00 -0.45593999997E+02  0.45594000000E+02  0.51100000000E-03 0.  1.
    9900012    2    1    2    0    0  0.30399449454E+02 -0.15154230111E+02  0.22347018598E+02  0.50528850260E+02  0.29999970850E+02 0.  0.
         12    1    1    2    0    0 -0.30399449454E+02  0.15154230111E+02 -0.22347018598E+02  0.40659149740E+02  0.00000000000E+00 0. -1.
         11    1    3    3    0    0 -0.45877135279E+00  0.51175229624E+01  0.33625031848E+01  0.61405162937E+01  0.51100000000E-03 0. -1.
        -11    1    3    3    0    0 -0.10963006826E+01 -0.27570334832E+01 -0.58817058820E+00  0.30247402725E+01  0.51100000000E-03 0.  1.
        -12    1    3    3    0    0  0.31954521489E+02 -0.17514719590E+02  0.19572686002E+02  0.41363593694E+02  0.00000000000E+00 0.  1.
</event>
<event>
 7    1  0.2755991E-011  0.5052884E+02  0.7816164E-02  0.1300439E+00
        -11   -1    0    0    0    0  0.00000000000E+00  0.00000000000E+00  0.45593999997E+02  0.45594000000E+02  0.51100000000E-03 0. -1.
         11   -1    0    0    0    0 -0.00000000000E+00 -0.00000000000E+00 -0.45593999997E+02  0.45594000000E+02  0.51100000000E-03 0.  1.
    9900012    2    1    2    0    0 -0.19724935782E+02  0.25353184097E+02 -0.24926100470E+02  0.50528837194E+02  0.29999931134E+02 0.  0.
         12    1    1    2    0    0  0.19724935782E+02 -0.25353184097E+02  0.24926100470E+02  0.40659162806E+02  0.00000000000E+00 0. -1.
         11    1    3    3    0    0 -0.60033166290E+01  0.17657972542E+02 -0.18162919923E+01  0.18738802568E+02  0.51100000000E-03 0. -1.
        -11    1    3    3    0    0 -0.74106566274E+01  0.10151267831E+02 -0.71664171368E+01  0.14468020081E+02  0.51100000000E-03 0.  1.
        -12    1    3    3    0    0 -0.63109625257E+01 -0.24560562755E+01 -0.15943391341E+02  0.17322014544E+02  0.00000000000E+00 0.  1.
</event>
<event>
 7    1  0.2755991E-011  0.5052885E+02  0.7816164E-02  0.1300439E+00
        -11   -1    0    0    0    0  0.00000000000E+00  0.00000000000E+00  0.45593999997E+02  0.45594000000E+02  0.51100000000E-03 0. -1.
         11   -1    0    0    0    0 -0.00000000000E+00 -0.00000000000E+00 -0.45593999997E+02  0.45594000000E+02  0.51100000000E-03 0.  1.
    9900012    2    1    2    0    0  0.30983526348E+02 -0.26081646900E+02 -0.35965325002E+01  0.50528852739E+02  0.29999978385E+02 0.  0.
         12    1    1    2    0    0 -0.30983526348E+02  0.26081646900E+02  0.35965325002E+01  0.40659147261E+02  0.00000000000E+00 0. -1.
         11    1    3    3    0    0  0.28217480651E+01 -0.51414308398E+01  0.96509677495E+00  0.59437349595E+01  0.51100000000E-03 0. -1.
        -11    1    3    3    0    0  0.29366240711E+02 -0.21416941244E+02 -0.11034035434E+02  0.37984357359E+02  0.51100000000E-03 0.  1.
         12    1    3    3    0    0 -0.12044624286E+01  0.47672518382E+00  0.64724061586E+01  0.66007604202E+01  0.00000000000E+00 0. -1.
</event>
<event>
 7    1  0.2755991E-011  0.5052886E+02  0.7816164E-02  0.1300439E+00
        -11   -1    0    0    0    0  0.00000000000E+00  0.00000000000E+00  0.45593999997E+02  0.45594000000E+02  0.51100000000E-03 0.  1.
         11   -1    0    0    0    0 -0.00000000000E+00 -0.00000000000E+00 -0.45593999997E+02  0.45594000000E+02  0.51100000000E-03 0. -1.
    9900012    2    1    2    0    0  0.25581300891E+02 -0.14740138673E+02  0.27955159747E+02  0.50528860808E+02  0.30000002912E+02 0.  0.
         12    1    1    2    0    0 -0.25581300891E+02  0.14740138673E+02 -0.27955159747E+02  0.40659139192E+02  0.00000000000E+00 0. -1.
         11    1    3    3    0    0  0.88192788325E+01  0.43645067003E+01  0.24853219435E+01  0.10149158748E+02  0.51100000000E-03 0. -1.
        -11    1    3    3    0    0  0.64108360441E+01  0.28776668670E+01  0.53090894810E+01  0.88071684871E+01  0.51100000000E-03 0.  1.
        -12    1    3    3    0    0  0.10351186014E+02 -0.21982312240E+02  0.20160748322E+02  0.31572533573E+02  0.00000000000E+00 0.  1.
</event>
<event>
 7    1  0.2755991E-011  0.5052886E+02  0.7816164E-02  0.1300439E+00
        -11   -1    0    0    0    0  0.00000000000E+00  0.00000000000E+00  0.45593999997E+02  0.45594000000E+02  0.51100000000E-03 0. -1.
         11   -1    0    0    0    0 -0.00000000000E+00 -0.00000000000E+00 -0.45593999997E+02  0.45594000000E+02  0.51100000000E-03 0.  1.
    9900012    2    1    2    0    0 -0.16597665551E+02 -0.36066474415E+02 -0.87688325369E+01  0.50528862005E+02  0.30000006550E+02 0.  0.
         12    1    1    2    0    0  0.16597665551E+02  0.36066474415E+02  0.87688325369E+01  0.40659137995E+02  0.00000000000E+00 0. -1.
         11    1    3    3    0    0  0.45998900844E+01 -0.36309133788E+01  0.62826766323E+01  0.85915392498E+01  0.51100000000E-03 0. -1.
        -11    1    3    3    0    0 -0.35636188775E+01 -0.24715317121E+01 -0.10950297179E+01  0.44729116750E+01  0.51100000000E-03 0.  1.
        -12    1    3    3    0    0 -0.17633936757E+02 -0.29964029324E+02 -0.13956479451E+02  0.37464411080E+02  0.00000000000E+00 0.  1.
</event>
<event>
 7    1  0.2755991E-011  0.5052886E+02  0.7816164E-02  0.1300439E+00
        -11   -1    0    0    0    0  0.00000000000E+00  0.00000000000E+00  0.45593999997E+02  0.45594000000E+02  0.51100000000E-03 0.  1.
         11   -1    0    0    0    0 -0.00000000000E+00 -0.00000000000E+00 -0.45593999997E+02  0.45594000000E+02  0.51100000000E-03 0. -1.
    9900012    2    1    2    0    0 -0.49145510312E+01  0.15212575515E+02  0.37384359450E+02  0.50528860841E+02  0.30000003013E+02 0.  0.
         12    1    1    2    0    0  0.49145510312E+01 -0.15212575515E+02 -0.37384359450E+02  0.40659139159E+02  0.00000000000E+00 0. -1.
         11    1    3    3    0    0 -0.52512715281E+01 -0.46198617663E+01  0.91137363093E+01  0.11488218538E+02  0.51100000000E-03 0. -1.
        -11    1    3    3    0    0 -0.28298238599E+01 -0.20667823700E+01  0.91455737432E+01  0.97939272918E+01  0.51100000000E-03 0.  1.
         12    1    3    3    0    0  0.31665443568E+01  0.21899219651E+02  0.19125049398E+02  0.29246715011E+02  0.00000000000E+00 0. -1.
</event>
<event>
 7    1  0.2755991E-011  0.5052886E+02  0.7816164E-02  0.1300439E+00
        -11   -1    0    0    0    0  0.00000000000E+00  0.00000000000E+00  0.45593999997E+02  0.45594000000E+02  0.51100000000E-03 0.  1.
         11   -1    0    0    0    0 -0.00000000000E+00 -0.00000000000E+00 -0.45593999997E+02  0.45594000000E+02  0.51100000000E-03 0. -1.
    9900012    2    1    2    0    0 -0.35500953562E+01 -0.32468812764E+02  0.24214438428E+02  0.50528855793E+02  0.29999987667E+02 0.  0.
         12    1    1    2    0    0  0.35500953562E+01  0.32468812764E+02 -0.24214438428E+02  0.40659144207E+02  0.00000000000E+00 0. -1.
         11    1    3    3    0    0 -0.67227879378E+01 -0.20555545532E+02  0.18941622213E+02  0.28749110979E+02  0.51100000000E-03 0. -1.
        -11    1    3    3    0    0 -0.45504269158E+01 -0.12560486635E+02  0.38176856357E+01  0.13894133060E+02  0.51100000000E-03 0.  1.
         12    1    3    3    0    0  0.77231194974E+01  0.64721940272E+00  0.14551305790E+01  0.78856117536E+01  0.00000000000E+00 0. -1.
</event>
<event>
 7    1  0.2755991E-011  0.5052887E+02  0.7816164E-02  0.1300439E+00
        -11   -1    0    0    0    0  0.00000000000E+00  0.00000000000E+00  0.45593999997E+02  0.45594000000E+02  0.51100000000E-03 0.  1.
         11   -1    0    0    0    0 -0.00000000000E+00 -0.00000000000E+00 -0.45593999997E+02  0.45594000000E+02  0.51100000000E-03 0. -1.
    9900012    2    1    2    0    0  0.25622305622E+02 -0.15949460026E+02  0.27244760606E+02  0.50528870632E+02  0.30000032772E+02 0.  0.
         12    1    1    2    0    0 -0.25622305622E+02  0.15949460026E+02 -0.27244760606E+02  0.40659129368E+02  0.00000000000E+00 0. -1.
         11    1    3    3    0    0  0.84726168752E+01 -0.71899967297E+01  0.50943069588E+01  0.12224289482E+02  0.51100000000E-03 0. -1.
        -11    1    3    3    0    0  0.30863843642E+01 -0.12620964847E+02  0.15795597064E+01  0.13088526702E+02  0.51100000000E-03 0.  1.
         12    1    3    3    0    0  0.14063304382E+02  0.38615015501E+01  0.20570893941E+02  0.25216054448E+02  0.00000000000E+00 0. -1.
</event>
<event>
 7    1  0.2755991E-011  0.5052885E+02  0.7816164E-02  0.1300439E+00
        -11   -1    0    0    0    0  0.00000000000E+00  0.00000000000E+00  0.45593999997E+02  0.45594000000E+02  0.51100000000E-03 0. -1.
         11   -1    0    0    0    0 -0.00000000000E+00 -0.00000000000E+00 -0.45593999997E+02  0.45594000000E+02  0.51100000000E-03 0.  1.
    9900012    2    1    2    0    0  0.11273090425E+02 -0.10220518748E+02 -0.37704441106E+02  0.50528850350E+02  0.29999971123E+02 0.  0.
         12    1    1    2    0    0 -0.11273090425E+02  0.10220518748E+02  0.37704441106E+02  0.40659149650E+02  0.00000000000E+00 0. -1.
         11    1    3    3    0    0  0.98711777051E+01 -0.11792238640E+02 -0.18329632603E+02  0.23926396993E+02  0.51100000000E-03 0. -1.
        -11    1    3    3    0    0  0.90144731203E+01 -0.20178177379E+01 -0.13422008112E+02  0.16293637289E+02  0.51100000000E-03 0.  1.
         12    1    3    3    0    0 -0.76125604000E+01  0.35895376303E+01 -0.59528003897E+01  0.10308816068E+02  0.00000000000E+00 0. -1.
</event>
<event>
 7    1  0.2755991E-011  0.5052887E+02  0.7816164E-02  0.1300439E+00
        -11   -1    0    0    0    0  0.00000000000E+00  0.00000000000E+00  0.45593999997E+02  0.45594000000E+02  0.51100000000E-03 0.  1.
         11   -1    0    0    0    0 -0.00000000000E+00 -0.00000000000E+00 -0.45593999997E+02  0.45594000000E+02  0.51100000000E-03 0. -1.
    9900012    2    1    2    0    0  0.38915946449E+02  0.85341324950E+01 -0.81168252149E+01  0.50528866254E+02  0.30000019465E+02 0.  0.
         12    1    1    2    0    0 -0.38915946449E+02 -0.85341324950E+01  0.81168252149E+01  0.40659133746E+02  0.00000000000E+00 0. -1.
         11    1    3    3    0    0 -0.13120134703E+01 -0.58844144956E+00 -0.20185962533E+01  0.24783812824E+01  0.51100000000E-03 0. -1.
        -11    1    3    3    0    0  0.26113869940E+02  0.11739320306E+02 -0.13774411853E+02  0.31772319189E+02  0.51100000000E-03 0.  1.
        -12    1    3    3    0    0  0.14114089978E+02 -0.26167463611E+01  0.76761828917E+01  0.16278165782E+02  0.00000000000E+00 0.  1.
</event>
<event>
 7    1  0.2755991E-011  0.5052888E+02  0.7816164E-02  0.1300439E+00
        -11   -1    0    0    0    0  0.00000000000E+00  0.00000000000E+00  0.45593999997E+02  0.45594000000E+02  0.51100000000E-03 0.  1.
         11   -1    0    0    0    0 -0.00000000000E+00 -0.00000000000E+00 -0.45593999997E+02  0.45594000000E+02  0.51100000000E-03 0. -1.
    9900012    2    1    2    0    0  0.12959176066E+02 -0.49975000478E+01  0.38213203849E+02  0.50528878029E+02  0.30000055258E+02 0.  0.
         12    1    1    2    0    0 -0.12959176066E+02  0.49975000478E+01 -0.38213203849E+02  0.40659121971E+02  0.00000000000E+00 0. -1.
         11    1    3    3    0    0  0.13095964565E+01  0.79442325977E-01  0.13779540533E+01  0.19026590857E+01  0.51100000000E-03 0. -1.
        -11    1    3    3    0    0  0.12726991245E+02  0.87820584973E+01  0.10030139080E+02  0.18431075602E+02  0.51100000000E-03 0.  1.
         12    1    3    3    0    0 -0.10774116360E+01 -0.13859000871E+02  0.26805110715E+02  0.30195143342E+02  0.00000000000E+00 0. -1.
</event>
<event>
 7    1  0.2755991E-011  0.5052886E+02  0.7816164E-02  0.1300439E+00
        -11   -1    0    0    0    0  0.00000000000E+00  0.00000000000E+00  0.45593999997E+02  0.45594000000E+02  0.51100000000E-03 0.  1.
         11   -1    0    0    0    0 -0.00000000000E+00 -0.00000000000E+00 -0.45593999997E+02  0.45594000000E+02  0.51100000000E-03 0. -1.
    9900012    2    1    2    0    0 -0.12410887844E+02  0.29660618746E+02  0.24887408371E+02  0.50528861582E+02  0.30000005265E+02 0.  0.
         12    1    1    2    0    0  0.12410887844E+02 -0.29660618746E+02 -0.24887408371E+02  0.40659138418E+02  0.00000000000E+00 0. -1.
         11    1    3    3    0    0  0.53295014224E+01  0.78394480196E+01  0.16254259693E+01  0.96178241045E+01  0.51100000000E-03 0. -1.
        -11    1    3    3    0    0 -0.75428811126E+01 -0.23070391624E+00  0.41074897185E+00  0.75575786304E+01  0.51100000000E-03 0.  1.
        -12    1    3    3    0    0 -0.10197508154E+02  0.22051874642E+02  0.22851233430E+02  0.33353458847E+02  0.00000000000E+00 0.  1.
</event>
<event>
 7    1  0.2755991E-011  0.5052892E+02  0.7816164E-02  0.1300439E+00
        -11   -1    0    0    0    0  0.00000000000E+00  0.00000000000E+00  0.45593999997E+02  0.45594000000E+02  0.51100000000E-03 0. -1.
         11   -1    0    0    0    0 -0.00000000000E+00 -0.00000000000E+00 -0.45593999997E+02  0.45594000000E+02  0.51100000000E-03 0.  1.
    9900012    2    1    2    0    0 -0.95085203646E+01 -0.33371959269E+02 -0.21191067873E+02  0.50528917589E+02  0.30000175502E+02 0.  0.
         12    1    1    2    0    0  0.95085203646E+01  0.33371959269E+02  0.21191067873E+02  0.40659082411E+02  0.00000000000E+00 0. -1.
         11    1    3    3    0    0 -0.37171541419E+01 -0.21216638708E+02  0.59672619752E+00  0.21548064308E+02  0.51100000000E-03 0. -1.
        -11    1    3    3    0    0 -0.28337395427E+01 -0.34349140870E+00  0.10971975262E+01  0.30580890792E+01  0.51100000000E-03 0.  1.
        -12    1    3    3    0    0 -0.29576266801E+01 -0.11811829152E+02 -0.22884991596E+02  0.25922764202E+02  0.00000000000E+00 0.  1.
</event>
<event>
 7    1  0.2755991E-011  0.5052886E+02  0.7816164E-02  0.1300439E+00
        -11   -1    0    0    0    0  0.00000000000E+00  0.00000000000E+00  0.45593999997E+02  0.45594000000E+02  0.51100000000E-03 0. -1.
         11   -1    0    0    0    0 -0.00000000000E+00 -0.00000000000E+00 -0.45593999997E+02  0.45594000000E+02  0.51100000000E-03 0.  1.
    9900012    2    1    2    0    0  0.27522462676E+01 -0.31760145581E+02 -0.25236553494E+02  0.50528864014E+02  0.30000012658E+02 0.  0.
         12    1    1    2    0    0 -0.27522462676E+01  0.31760145581E+02  0.25236553494E+02  0.40659135986E+02  0.00000000000E+00 0. -1.
         11    1    3    3    0    0  0.31098880666E+01 -0.58887365498E+01 -0.11345418554E+02  0.13155498636E+02  0.51100000000E-03 0. -1.
        -11    1    3    3    0    0  0.39272876210E+01 -0.21981473183E+02 -0.19253260836E+02  0.29483839716E+02  0.51100000000E-03 0.  1.
         12    1    3    3    0    0 -0.42849294200E+01 -0.38899358490E+01  0.53621258962E+01  0.78895256619E+01  0.00000000000E+00 0. -1.
</event>
<event>
 7    1  0.2755991E-011  0.5052884E+02  0.7816164E-02  0.1300439E+00
        -11   -1    0    0    0    0  0.00000000000E+00  0.00000000000E+00  0.45593999997E+02  0.45594000000E+02  0.51100000000E-03 0.  1.
         11   -1    0    0    0    0 -0.00000000000E+00 -0.00000000000E+00 -0.45593999997E+02  0.45594000000E+02  0.51100000000E-03 0. -1.
    9900012    2    1    2    0    0  0.38419645504E+02 -0.13276861048E+02  0.90744754122E+00  0.50528835462E+02  0.29999925869E+02 0.  0.
         12    1    1    2    0    0 -0.38419645504E+02  0.13276861048E+02 -0.90744754122E+00  0.40659164538E+02  0.00000000000E+00 0. -1.
         11    1    3    3    0    0  0.20799015182E+02 -0.25476949619E+01 -0.24256182025E+01  0.21094392764E+02  0.51100000000E-03 0. -1.
        -11    1    3    3    0    0  0.19408201717E+02 -0.83350149053E+01 -0.40164830480E+01  0.21500765188E+02  0.51100000000E-03 0.  1.
         12    1    3    3    0    0 -0.17875713956E+01 -0.23941511810E+01  0.73495487917E+01  0.79336775088E+01  0.00000000000E+00 0. -1.
</event>
<event>
 7    1  0.2755991E-011  0.5052886E+02  0.7816164E-02  0.1300439E+00
        -11   -1    0    0    0    0  0.00000000000E+00  0.00000000000E+00  0.45593999997E+02  0.45594000000E+02  0.51100000000E-03 0.  1.
         11   -1    0    0    0    0 -0.00000000000E+00 -0.00000000000E+00 -0.45593999997E+02  0.45594000000E+02  0.51100000000E-03 0. -1.
    9900012    2    1    2    0    0 -0.17571097690E+02 -0.48343171078E+01  0.36346273557E+02  0.50528859608E+02  0.29999999264E+02 0.  0.
         12    1    1    2    0    0  0.17571097690E+02  0.48343171078E+01 -0.36346273557E+02  0.40659140392E+02  0.00000000000E+00 0. -1.
         11    1    3    3    0    0 -0.17542631795E+02 -0.46065406638E+01  0.19394500493E+02  0.26553922438E+02  0.51100000000E-03 0. -1.
        -11    1    3    3    0    0 -0.69920524953E+01 -0.30886378497E+01  0.13876831912E+02  0.15842820015E+02  0.51100000000E-03 0.  1.
         12    1    3    3    0    0  0.69635866009E+01  0.28608614057E+01  0.30749411522E+01  0.81321171548E+01  0.00000000000E+00 0. -1.
</event>
<event>
 7    1  0.2755991E-011  0.5052882E+02  0.7816164E-02  0.1300439E+00
        -11   -1    0    0    0    0  0.00000000000E+00  0.00000000000E+00  0.45593999997E+02  0.45594000000E+02  0.51100000000E-03 0.  1.
         11   -1    0    0    0    0 -0.00000000000E+00 -0.00000000000E+00 -0.45593999997E+02  0.45594000000E+02  0.51100000000E-03 0. -1.
    9900012    2    1    2    0    0 -0.93062741075E+01 -0.21189379262E+02  0.33430107938E+02  0.50528823323E+02  0.29999888973E+02 0.  0.
         12    1    1    2    0    0  0.93062741075E+01  0.21189379262E+02 -0.33430107938E+02  0.40659176677E+02  0.00000000000E+00 0. -1.
         11    1    3    3    0    0 -0.16451423702E+02 -0.70842722060E+01  0.15561007954E+02  0.23727225360E+02  0.51100000000E-03 0. -1.
        -11    1    3    3    0    0 -0.26706207507E+01 -0.16148316191E+01  0.66733750605E+01  0.73670775286E+01  0.51100000000E-03 0.  1.
        -12    1    3    3    0    0  0.98157703447E+01 -0.12490275436E+02  0.11195724924E+02  0.19434520435E+02  0.00000000000E+00 0.  1.
</event>
<event>
 7    1  0.2755991E-011  0.5052887E+02  0.7816164E-02  0.1300439E+00
        -11   -1    0    0    0    0  0.00000000000E+00  0.00000000000E+00  0.45593999997E+02  0.45594000000E+02  0.51100000000E-03 0. -1.
         11   -1    0    0    0    0 -0.00000000000E+00 -0.00000000000E+00 -0.45593999997E+02  0.45594000000E+02  0.51100000000E-03 0.  1.
    9900012    2    1    2    0    0 -0.25954202929E+02 -0.30131036124E+02 -0.84654879700E+01  0.50528874651E+02  0.30000044990E+02 0.  0.
         12    1    1    2    0    0  0.25954202929E+02  0.30131036124E+02  0.84654879700E+01  0.40659125349E+02  0.00000000000E+00 0. -1.
         11    1    3    3    0    0  0.32834490722E+01 -0.98829898749E+01 -0.68664562152E+01  0.12474083048E+02  0.51100000000E-03 0. -1.
        -11    1    3    3    0    0 -0.10703453398E+02 -0.31340585909E+01  0.46209122574E+01  0.12072243712E+02  0.51100000000E-03 0.  1.
        -12    1    3    3    0    0 -0.18534198603E+02 -0.17113987658E+02 -0.62199440121E+01  0.25982547891E+02  0.00000000000E+00 0.  1.
</event>
<event>
 7    1  0.2755991E-011  0.5052886E+02  0.7816164E-02  0.1300439E+00
        -11   -1    0    0    0    0  0.00000000000E+00  0.00000000000E+00  0.45593999997E+02  0.45594000000E+02  0.51100000000E-03 0. -1.
         11   -1    0    0    0    0 -0.00000000000E+00 -0.00000000000E+00 -0.45593999997E+02  0.45594000000E+02  0.51100000000E-03 0.  1.
    9900012    2    1    2    0    0 -0.30188385672E+02  0.18271136600E+02 -0.20198824531E+02  0.50528861119E+02  0.30000003856E+02 0.  0.
         12    1    1    2    0    0  0.30188385672E+02 -0.18271136600E+02  0.20198824531E+02  0.40659138881E+02  0.00000000000E+00 0. -1.
         11    1    3    3    0    0 -0.40041163397E+01 -0.50573310173E+01  0.15135462127E+00  0.64523215328E+01  0.51100000000E-03 0. -1.
        -11    1    3    3    0    0 -0.21097002181E+02  0.73722537873E+01 -0.11846540770E+02  0.25293757242E+02  0.51100000000E-03 0.  1.
         12    1    3    3    0    0 -0.50872671517E+01  0.15956213830E+02 -0.85036383814E+01  0.18782782344E+02  0.00000000000E+00 0. -1.
</event>
<event>
 7    1  0.2755991E-011  0.5052883E+02  0.7816164E-02  0.1300439E+00
        -11   -1    0    0    0    0  0.00000000000E+00  0.00000000000E+00  0.45593999997E+02  0.45594000000E+02  0.51100000000E-03 0.  1.
         11   -1    0    0    0    0 -0.00000000000E+00 -0.00000000000E+00 -0.45593999997E+02  0.45594000000E+02  0.51100000000E-03 0. -1.
    9900012    2    1    2    0    0  0.25660850808E+02 -0.29098405342E+02  0.12164376083E+02  0.50528825105E+02  0.29999894390E+02 0.  0.
         12    1    1    2    0    0 -0.25660850808E+02  0.29098405342E+02 -0.12164376083E+02  0.40659174895E+02  0.00000000000E+00 0. -1.
         11    1    3    3    0    0 -0.42391819947E+01 -0.36672632211E+01  0.10568987971E+01  0.57040791409E+01  0.51100000000E-03 0. -1.
        -11    1    3    3    0    0  0.15692928494E+02 -0.22685508434E+02  0.18490897542E+01  0.27646327619E+02  0.51100000000E-03 0.  1.
        -12    1    3    3    0    0  0.14207104308E+02 -0.27456336868E+01  0.92583875316E+01  0.17178418345E+02  0.00000000000E+00 0.  1.
</event>
<event>
 7    1  0.2755991E-011  0.5052886E+02  0.7816164E-02  0.1300439E+00
        -11   -1    0    0    0    0  0.00000000000E+00  0.00000000000E+00  0.45593999997E+02  0.45594000000E+02  0.51100000000E-03 0.  1.
         11   -1    0    0    0    0 -0.00000000000E+00 -0.00000000000E+00 -0.45593999997E+02  0.45594000000E+02  0.51100000000E-03 0. -1.
    9900012    2    1    2    0    0 -0.97026937524E+01  0.25220335948E+02  0.30380223522E+02  0.50528860896E+02  0.30000003180E+02 0.  0.
         12    1    1    2    0    0  0.97026937524E+01 -0.25220335948E+02 -0.30380223522E+02  0.40659139104E+02  0.00000000000E+00 0. -1.
         11    1    3    3    0    0 -0.40921068681E+01 -0.95613274376E+00  0.63395988106E+01  0.76059214947E+01  0.51100000000E-03 0. -1.
        -11    1    3    3    0    0 -0.10677645286E+02  0.10735402113E+02  0.21764245645E+02  0.26513078963E+02  0.51100000000E-03 0.  1.
         12    1    3    3    0    0  0.50670584014E+01  0.15441066579E+02  0.22763790670E+01  0.16409860438E+02  0.00000000000E+00 0. -1.
</event>
<event>
 7    1  0.2755991E-011  0.5052886E+02  0.7816164E-02  0.1300439E+00
        -11   -1    0    0    0    0  0.00000000000E+00  0.00000000000E+00  0.45593999997E+02  0.45594000000E+02  0.51100000000E-03 0.  1.
         11   -1    0    0    0    0 -0.00000000000E+00 -0.00000000000E+00 -0.45593999997E+02  0.45594000000E+02  0.51100000000E-03 0. -1.
    9900012    2    1    2    0    0  0.36257880074E+02 -0.16861708374E+01  0.18321796919E+02  0.50528864718E+02  0.30000014797E+02 0.  0.
         12    1    1    2    0    0 -0.36257880074E+02  0.16861708374E+01 -0.18321796919E+02  0.40659135282E+02  0.00000000000E+00 0. -1.
         11    1    3    3    0    0  0.68985830562E+01 -0.92649611742E+01 -0.19461596464E+01  0.11713986997E+02  0.51100000000E-03 0. -1.
        -11    1    3    3    0    0  0.24908730038E+01 -0.30417725364E+01  0.90268633608E+00  0.40338159808E+01  0.51100000000E-03 0.  1.
        -12    1    3    3    0    0  0.26868424014E+02  0.10620562873E+02  0.19365270229E+02  0.34781061740E+02  0.00000000000E+00 0.  1.
</event>
<event>
 7    1  0.2755991E-011  0.5052886E+02  0.7816164E-02  0.1300439E+00
        -11   -1    0    0    0    0  0.00000000000E+00  0.00000000000E+00  0.45593999997E+02  0.45594000000E+02  0.51100000000E-03 0.  1.
         11   -1    0    0    0    0 -0.00000000000E+00 -0.00000000000E+00 -0.45593999997E+02  0.45594000000E+02  0.51100000000E-03 0. -1.
    9900012    2    1    2    0    0 -0.33257415951E+02 -0.55281371138E+01  0.22727729330E+02  0.50528859623E+02  0.29999999311E+02 0.  0.
         12    1    1    2    0    0  0.33257415951E+02  0.55281371138E+01 -0.22727729330E+02  0.40659140377E+02  0.00000000000E+00 0. -1.
         11    1    3    3    0    0 -0.66243781993E+01 -0.85208982148E+01 -0.16359968218E+01  0.10916252964E+02  0.51100000000E-03 0. -1.
        -11    1    3    3    0    0 -0.30970397237E+01 -0.17266712613E+00 -0.23335102050E+01  0.38815897676E+01  0.51100000000E-03 0.  1.
         12    1    3    3    0    0 -0.23535998028E+02  0.31654282271E+01  0.26697236356E+02  0.35731016892E+02  0.00000000000E+00 0. -1.
</event>
<event>
 7    1  0.2755991E-011  0.5052885E+02  0.7816164E-02  0.1300439E+00
        -11   -1    0    0    0    0  0.00000000000E+00  0.00000000000E+00  0.45593999997E+02  0.45594000000E+02  0.51100000000E-03 0.  1.
         11   -1    0    0    0    0 -0.00000000000E+00 -0.00000000000E+00 -0.45593999997E+02  0.45594000000E+02  0.51100000000E-03 0. -1.
    9900012    2    1    2    0    0  0.82687145492E+01  0.38281891726E+02 -0.10922070619E+02  0.50528849726E+02  0.29999969226E+02 0.  0.
         12    1    1    2    0    0 -0.82687145492E+01 -0.38281891726E+02  0.10922070619E+02  0.40659150274E+02  0.00000000000E+00 0. -1.
         11    1    3    3    0    0  0.72798248343E+01  0.86760618699E+01  0.50555827729E+01  0.12402774553E+02  0.51100000000E-03 0. -1.
        -11    1    3    3    0    0  0.94558605094E+01  0.16350714472E+02 -0.87006107775E+01  0.20795667575E+02  0.51100000000E-03 0.  1.
         12    1    3    3    0    0 -0.84669707944E+01  0.13255115384E+02 -0.72770426147E+01  0.17330407597E+02  0.00000000000E+00 0. -1.
</event>
<event>
 7    1  0.2755991E-011  0.5052886E+02  0.7816164E-02  0.1300439E+00
        -11   -1    0    0    0    0  0.00000000000E+00  0.00000000000E+00  0.45593999997E+02  0.45594000000E+02  0.51100000000E-03 0.  1.
         11   -1    0    0    0    0 -0.00000000000E+00 -0.00000000000E+00 -0.45593999997E+02  0.45594000000E+02  0.51100000000E-03 0. -1.
    9900012    2    1    2    0    0  0.28214265418E+02  0.20964423022E+02  0.20435610009E+02  0.50528856353E+02  0.29999989370E+02 0.  0.
         12    1    1    2    0    0 -0.28214265418E+02 -0.20964423022E+02 -0.20435610009E+02  0.40659143647E+02  0.00000000000E+00 0. -1.
         11    1    3    3    0    0  0.69178126568E+00  0.95378708992E+00  0.43790163114E+01  0.45347607708E+01  0.51100000000E-03 0. -1.
        -11    1    3    3    0    0 -0.30088648343E+01  0.47902619373E+01 -0.35187639283E+01  0.66619499295E+01  0.51100000000E-03 0.  1.
        -12    1    3    3    0    0  0.30531348986E+02  0.15220373995E+02  0.19575357626E+02  0.39332145652E+02  0.00000000000E+00 0.  1.
</event>
<event>
 7    1  0.2755991E-011  0.5052890E+02  0.7816164E-02  0.1300439E+00
        -11   -1    0    0    0    0  0.00000000000E+00  0.00000000000E+00  0.45593999997E+02  0.45594000000E+02  0.51100000000E-03 0. -1.
         11   -1    0    0    0    0 -0.00000000000E+00 -0.00000000000E+00 -0.45593999997E+02  0.45594000000E+02  0.51100000000E-03 0.  1.
    9900012    2    1    2    0    0 -0.16761145798E+00 -0.38466469167E+01 -0.40476382392E+02  0.50528901171E+02  0.30000125598E+02 0.  0.
         12    1    1    2    0    0  0.16761145798E+00  0.38466469167E+01  0.40476382392E+02  0.40659098829E+02  0.00000000000E+00 0. -1.
         11    1    3    3    0    0  0.50608338475E+01 -0.39697114947E+01 -0.12818288802E+02  0.14341519329E+02  0.51100000000E-03 0. -1.
        -11    1    3    3    0    0  0.84537756653E+01 -0.35264148685E+01 -0.10226350450E+02  0.13728807982E+02  0.51100000000E-03 0.  1.
         12    1    3    3    0    0 -0.13682220971E+02  0.36494794465E+01 -0.17431743139E+02  0.22458573859E+02  0.00000000000E+00 0. -1.
</event>
<event>
 7    1  0.2755991E-011  0.5052886E+02  0.7816164E-02  0.1300439E+00
        -11   -1    0    0    0    0  0.00000000000E+00  0.00000000000E+00  0.45593999997E+02  0.45594000000E+02  0.51100000000E-03 0. -1.
         11   -1    0    0    0    0 -0.00000000000E+00 -0.00000000000E+00 -0.45593999997E+02  0.45594000000E+02  0.51100000000E-03 0.  1.
    9900012    2    1    2    0    0  0.55097184351E+01  0.35400527584E+02 -0.19225283029E+02  0.50528857633E+02  0.29999993261E+02 0.  0.
         12    1    1    2    0    0 -0.55097184351E+01 -0.35400527584E+02  0.19225283029E+02  0.40659142367E+02  0.00000000000E+00 0. -1.
         11    1    3    3    0    0  0.73077021455E+01  0.32597410180E+01 -0.13511991606E+02  0.15703577286E+02  0.51100000000E-03 0. -1.
        -11    1    3    3    0    0  0.76966738097E+00  0.92107060245E+01 -0.71820554609E+01  0.11705187493E+02  0.51100000000E-03 0.  1.
         12    1    3    3    0    0 -0.25676510913E+01  0.22930080542E+02  0.14687640372E+01  0.23120092854E+02  0.00000000000E+00 0. -1.
</event>
<event>
 7    1  0.2755991E-011  0.5052887E+02  0.7816164E-02  0.1300439E+00
        -11   -1    0    0    0    0  0.00000000000E+00  0.00000000000E+00  0.45593999997E+02  0.45594000000E+02  0.51100000000E-03 0. -1.
         11   -1    0    0    0    0 -0.00000000000E+00 -0.00000000000E+00 -0.45593999997E+02  0.45594000000E+02  0.51100000000E-03 0.  1.
    9900012    2    1    2    0    0  0.38536957216E+02 -0.92837651956E+00 -0.12930818672E+02  0.50528867865E+02  0.30000024363E+02 0.  0.
         12    1    1    2    0    0 -0.38536957216E+02  0.92837651956E+00  0.12930818672E+02  0.40659132135E+02  0.00000000000E+00 0. -1.
         11    1    3    3    0    0  0.12879441075E+01 -0.20063540264E+01  0.43984084752E+01  0.50030244732E+01  0.51100000000E-03 0. -1.
        -11    1    3    3    0    0  0.23097604389E+02  0.11315352332E+00  0.43693281421E-01  0.23097922884E+02  0.51100000000E-03 0.  1.
        -12    1    3    3    0    0  0.14151408720E+02  0.96482398353E+00 -0.17372920429E+02  0.22427920508E+02  0.00000000000E+00 0.  1.
</event>
<event>
 7    1  0.2755991E-011  0.5052881E+02  0.7816164E-02  0.1300439E+00
        -11   -1    0    0    0    0  0.00000000000E+00  0.00000000000E+00  0.45593999997E+02  0.45594000000E+02  0.51100000000E-03 0. -1.
         11   -1    0    0    0    0 -0.00000000000E+00 -0.00000000000E+00 -0.45593999997E+02  0.45594000000E+02  0.51100000000E-03 0.  1.
    9900012    2    1    2    0    0  0.67905034805E+01 -0.36981922307E+02 -0.15472445079E+02  0.50528805815E+02  0.29999835755E+02 0.  0.
         12    1    1    2    0    0 -0.67905034805E+01  0.36981922307E+02  0.15472445079E+02  0.40659194185E+02  0.00000000000E+00 0. -1.
         11    1    3    3    0    0  0.26206988280E+01  0.39172153441E+01 -0.12083004966E+01  0.48654525741E+01  0.51100000000E-03 0. -1.
        -11    1    3    3    0    0  0.24782586984E+01 -0.42563483722E+01 -0.65230151010E+01  0.81736157183E+01  0.51100000000E-03 0.  1.
        -12    1    3    3    0    0  0.16915459541E+01 -0.36642789279E+02 -0.77411294810E+01  0.37489737523E+02  0.00000000000E+00 0.  1.
</event>
<event>
 7    1  0.2755991E-011  0.5052886E+02  0.7816164E-02  0.1300439E+00
        -11   -1    0    0    0    0  0.00000000000E+00  0.00000000000E+00  0.45593999997E+02  0.45594000000E+02  0.51100000000E-03 0.  1.
         11   -1    0    0    0    0 -0.00000000000E+00 -0.00000000000E+00 -0.45593999997E+02  0.45594000000E+02  0.51100000000E-03 0. -1.
    9900012    2    1    2    0    0  0.73152130989E+01  0.18095350485E+02  0.35668074949E+02  0.50528860530E+02  0.30000002068E+02 0.  0.
         12    1    1    2    0    0 -0.73152130989E+01 -0.18095350485E+02 -0.35668074949E+02  0.40659139470E+02  0.00000000000E+00 0. -1.
         11    1    3    3    0    0 -0.21788750539E+01 -0.57502210883E-01  0.83890454974E+01  0.86675768023E+01  0.51100000000E-03 0. -1.
        -11    1    3    3    0    0 -0.80218720347E+01  0.33540353238E+01  0.58769084786E+01  0.10494667094E+02  0.51100000000E-03 0.  1.
        -12    1    3    3    0    0  0.17515960188E+02  0.14798817373E+02  0.21402120973E+02  0.31366616634E+02  0.00000000000E+00 0.  1.
</event>
<event>
 7    1  0.2755991E-011  0.5052885E+02  0.7816164E-02  0.1300439E+00
        -11   -1    0    0    0    0  0.00000000000E+00  0.00000000000E+00  0.45593999997E+02  0.45594000000E+02  0.51100000000E-03 0.  1.
         11   -1    0    0    0    0 -0.00000000000E+00 -0.00000000000E+00 -0.45593999997E+02  0.45594000000E+02  0.51100000000E-03 0. -1.
    9900012    2    1    2    0    0 -0.18069928104E+02  0.15625345711E+02  0.32901258631E+02  0.50528849126E+02  0.29999967404E+02 0.  0.
         12    1    1    2    0    0  0.18069928104E+02 -0.15625345711E+02 -0.32901258631E+02  0.40659150874E+02  0.00000000000E+00 0. -1.
         11    1    3    3    0    0 -0.54831025342E+01  0.12991157764E+02  0.14627667010E+02  0.20317559791E+02  0.51100000000E-03 0.  1.
        -11    1    3    3    0    0 -0.11412711659E+02 -0.37640042431E+01  0.20131999138E+02  0.23446004028E+02  0.51100000000E-03 0. -1.
         12    1    3    3    0    0 -0.11741139113E+01  0.63981921906E+01 -0.18584075173E+01  0.67652853070E+01  0.00000000000E+00 0. -1.
</event>
<event>
 7    1  0.2755991E-011  0.5052887E+02  0.7816164E-02  0.1300439E+00
        -11   -1    0    0    0    0  0.00000000000E+00  0.00000000000E+00  0.45593999997E+02  0.45594000000E+02  0.51100000000E-03 0. -1.
         11   -1    0    0    0    0 -0.00000000000E+00 -0.00000000000E+00 -0.45593999997E+02  0.45594000000E+02  0.51100000000E-03 0.  1.
    9900012    2    1    2    0    0  0.33082491461E+02  0.24602954497E+01 -0.23508740300E+02  0.50528866149E+02  0.30000019148E+02 0.  0.
         12    1    1    2    0    0 -0.33082491461E+02 -0.24602954497E+01  0.23508740300E+02  0.40659133851E+02  0.00000000000E+00 0. -1.
         11    1    3    3    0    0  0.14459982999E+02 -0.28684815070E+01 -0.15800654671E+02  0.21609719637E+02  0.51100000000E-03 0. -1.
        -11    1    3    3    0    0  0.65051360314E+01  0.39566734412E+01 -0.13438112848E+02  0.15445223750E+02  0.51100000000E-03 0.  1.
         12    1    3    3    0    0  0.12117372431E+02  0.13721035156E+01  0.57300272191E+01  0.13473922763E+02  0.00000000000E+00 0. -1.
</event>
<event>
 7    1  0.2755991E-011  0.5052885E+02  0.7816164E-02  0.1300439E+00
        -11   -1    0    0    0    0  0.00000000000E+00  0.00000000000E+00  0.45593999997E+02  0.45594000000E+02  0.51100000000E-03 0.  1.
         11   -1    0    0    0    0 -0.00000000000E+00 -0.00000000000E+00 -0.45593999997E+02  0.45594000000E+02  0.51100000000E-03 0. -1.
    9900012    2    1    2    0    0 -0.32558731810E+02  0.17068500619E+02  0.17371285225E+02  0.50528852434E+02  0.29999977458E+02 0.  0.
         12    1    1    2    0    0  0.32558731810E+02 -0.17068500619E+02 -0.17371285225E+02  0.40659147566E+02  0.00000000000E+00 0. -1.
         11    1    3    3    0    0 -0.32160998560E+01  0.16270067472E+00 -0.16558882507E+01  0.36210131114E+01  0.51100000000E-03 0. -1.
        -11    1    3    3    0    0  0.19824260614E+00  0.12792465597E+02  0.34099035275E+01  0.13240616244E+02  0.51100000000E-03 0.  1.
        -12    1    3    3    0    0 -0.29540874560E+02  0.41133343472E+01  0.15617269948E+02  0.33667223079E+02  0.00000000000E+00 0.  1.
</event>
<event>
 7    1  0.2755991E-011  0.5052886E+02  0.7816164E-02  0.1300439E+00
        -11   -1    0    0    0    0  0.00000000000E+00  0.00000000000E+00  0.45593999997E+02  0.45594000000E+02  0.51100000000E-03 0.  1.
         11   -1    0    0    0    0 -0.00000000000E+00 -0.00000000000E+00 -0.45593999997E+02  0.45594000000E+02  0.51100000000E-03 0. -1.
    9900012    2    1    2    0    0 -0.15145961446E+02  0.24690484276E+02  0.28533241992E+02  0.50528855143E+02  0.29999985694E+02 0.  0.
         12    1    1    2    0    0  0.15145961446E+02 -0.24690484276E+02 -0.28533241992E+02  0.40659144857E+02  0.00000000000E+00 0. -1.
         11    1    3    3    0    0 -0.25471883351E+01  0.12651563673E+02  0.91479390113E+01  0.15818818546E+02  0.51100000000E-03 0. -1.
        -11    1    3    3    0    0 -0.13424490910E+01  0.15714511695E+02  0.60915049814E+01  0.16907231606E+02  0.51100000000E-03 0.  1.
        -12    1    3    3    0    0 -0.11256324020E+02 -0.36755910921E+01  0.13293797999E+02  0.17802804991E+02  0.00000000000E+00 0.  1.
</event>
<event>
 7    1  0.2755991E-011  0.5052885E+02  0.7816164E-02  0.1300439E+00
        -11   -1    0    0    0    0  0.00000000000E+00  0.00000000000E+00  0.45593999997E+02  0.45594000000E+02  0.51100000000E-03 0.  1.
         11   -1    0    0    0    0 -0.00000000000E+00 -0.00000000000E+00 -0.45593999997E+02  0.45594000000E+02  0.51100000000E-03 0. -1.
    9900012    2    1    2    0    0 -0.11980624619E+02 -0.12280038979E+02  0.36862335882E+02  0.50528849366E+02  0.29999968133E+02 0.  0.
         12    1    1    2    0    0  0.11980624619E+02  0.12280038979E+02 -0.36862335882E+02  0.40659150634E+02  0.00000000000E+00 0. -1.
         11    1    3    3    0    0 -0.83986164508E+01 -0.14595055606E+02  0.27223383399E+02  0.32010389100E+02  0.51100000000E-03 0. -1.
        -11    1    3    3    0    0 -0.69335325653E+00 -0.36091389549E+01  0.11164052678E+02  0.11753412066E+02  0.51100000000E-03 0.  1.
         12    1    3    3    0    0 -0.28886549113E+01  0.59241555816E+01 -0.15251001941E+01  0.67650482004E+01  0.00000000000E+00 0. -1.
</event>
<event>
 7    1  0.3105249E-011  0.5052885E+02  0.7816164E-02  0.1300439E+00
        -11   -1    0    0    0    0  0.00000000000E+00  0.00000000000E+00  0.45593999997E+02  0.45594000000E+02  0.51100000000E-03 0. -1.
         11   -1    0    0    0    0 -0.00000000000E+00 -0.00000000000E+00 -0.45593999997E+02  0.45594000000E+02  0.51100000000E-03 0.  1.
    9900012    2    1    2    0    0  0.31490660980E+02  0.27898582105E+01 -0.25567969409E+02  0.50528854688E+02  0.29999984308E+02 0.  0.
         12    1    1    2    0    0 -0.31490660980E+02 -0.27898582105E+01  0.25567969409E+02  0.40659145312E+02  0.00000000000E+00 0. -1.
         11    1    3    3    0    0  0.86602620967E+01 -0.29810164749E+01  0.26026326509E+01  0.95215700273E+01  0.51100000000E-03 0. -1.
        -11    1    3    3    0    0 -0.20132624467E+01  0.43483533829E+01 -0.60041737185E+01  0.76818946312E+01  0.51100000000E-03 0.  1.
        -12    1    3    3    0    0  0.24843661330E+02  0.14225213025E+01 -0.22166428342E+02  0.33325390029E+02  0.00000000000E+00 0.  1.
</event>
<event>
 7    1  0.2755991E-011  0.5052885E+02  0.7816164E-02  0.1300439E+00
        -11   -1    0    0    0    0  0.00000000000E+00  0.00000000000E+00  0.45593999997E+02  0.45594000000E+02  0.51100000000E-03 0.  1.
         11   -1    0    0    0    0 -0.00000000000E+00 -0.00000000000E+00 -0.45593999997E+02  0.45594000000E+02  0.51100000000E-03 0. -1.
    9900012    2    1    2    0    0 -0.13554831877E+02  0.14364584286E+02  0.35540001919E+02  0.50528849918E+02  0.29999969812E+02 0.  0.
         12    1    1    2    0    0  0.13554831877E+02 -0.14364584286E+02 -0.35540001919E+02  0.40659150082E+02  0.00000000000E+00 0. -1.
         11    1    3    3    0    0  0.29284281386E+01  0.28582556424E+01 -0.45883919766E+00  0.41177482136E+01  0.51100000000E-03 0. -1.
        -11    1    3    3    0    0  0.41773019582E+01 -0.13136727144E+01  0.94210511777E+01  0.10389022726E+02  0.51100000000E-03 0.  1.
        -12    1    3    3    0    0 -0.20660561973E+02  0.12820001358E+02  0.26577789939E+02  0.36022078979E+02  0.00000000000E+00 0.  1.
</event>
<event>
 7    1  0.2755991E-011  0.5052880E+02  0.7816164E-02  0.1300439E+00
        -11   -1    0    0    0    0  0.00000000000E+00  0.00000000000E+00  0.45593999997E+02  0.45594000000E+02  0.51100000000E-03 0. -1.
         11   -1    0    0    0    0 -0.00000000000E+00 -0.00000000000E+00 -0.45593999997E+02  0.45594000000E+02  0.51100000000E-03 0.  1.
    9900012    2    1    2    0    0 -0.16449823058E+02 -0.36939128445E+02 -0.42514124701E+01  0.50528801817E+02  0.29999823603E+02 0.  0.
         12    1    1    2    0    0  0.16449823058E+02  0.36939128445E+02  0.42514124701E+01  0.40659198183E+02  0.00000000000E+00 0. -1.
         11    1    3    3    0    0  0.32459303163E+01 -0.55461988735E+01  0.11817149948E+01  0.65339755244E+01  0.51100000000E-03 0. -1.
        -11    1    3    3    0    0  0.45400766943E+01 -0.10906499305E+01 -0.18688614121E+01  0.50293594920E+01  0.51100000000E-03 0.  1.
        -12    1    3    3    0    0 -0.24235830068E+02 -0.30302279641E+02 -0.35642660528E+01  0.38965466801E+02  0.00000000000E+00 0.  1.
</event>
<event>
 7    1  0.2755991E-011  0.5052886E+02  0.7816164E-02  0.1300439E+00
        -11   -1    0    0    0    0  0.00000000000E+00  0.00000000000E+00  0.45593999997E+02  0.45594000000E+02  0.51100000000E-03 0. -1.
         11   -1    0    0    0    0 -0.00000000000E+00 -0.00000000000E+00 -0.45593999997E+02  0.45594000000E+02  0.51100000000E-03 0.  1.
    9900012    2    1    2    0    0 -0.36222810916E+02  0.42281616153E+01  0.17977666718E+02  0.50528857339E+02  0.29999992367E+02 0.  0.
         12    1    1    2    0    0  0.36222810916E+02 -0.42281616153E+01 -0.17977666718E+02  0.40659142661E+02  0.00000000000E+00 0. -1.
         11    1    3    3    0    0  0.13328450618E+01  0.43539726525E+01 -0.46166145294E+01  0.64843414309E+01  0.51100000000E-03 0. -1.
        -11    1    3    3    0    0 -0.21470756343E+01  0.79529231369E+00  0.66169314928E+00  0.23833299663E+01  0.51100000000E-03 0.  1.
         12    1    3    3    0    0 -0.35408580344E+02 -0.92110335088E+00  0.21932588099E+02  0.41661185941E+02  0.00000000000E+00 0. -1.
</event>
<event>
 7    1  0.2755991E-011  0.5052886E+02  0.7816164E-02  0.1300439E+00
        -11   -1    0    0    0    0  0.00000000000E+00  0.00000000000E+00  0.45593999997E+02  0.45594000000E+02  0.51100000000E-03 0.  1.
         11   -1    0    0    0    0 -0.00000000000E+00 -0.00000000000E+00 -0.45593999997E+02  0.45594000000E+02  0.51100000000E-03 0. -1.
    9900012    2    1    2    0    0 -0.21396917336E+02 -0.21729574789E+02  0.26891695755E+02  0.50528858437E+02  0.29999995706E+02 0.  0.
         12    1    1    2    0    0  0.21396917336E+02  0.21729574789E+02 -0.26891695755E+02  0.40659141563E+02  0.00000000000E+00 0. -1.
         11    1    3    3    0    0 -0.87992856400E+01 -0.13478907833E+02  0.81632853013E+01  0.18048479474E+02  0.51100000000E-03 0. -1.
        -11    1    3    3    0    0 -0.11196741020E+02 -0.81476350925E+01  0.14927794871E+00  0.13848221952E+02  0.51100000000E-03 0.  1.
         12    1    3    3    0    0 -0.14008906766E+01 -0.10303186344E+00  0.18579132505E+02  0.18632157011E+02  0.00000000000E+00 0. -1.
</event>
<event>
 7    1  0.2755991E-011  0.5052887E+02  0.7816164E-02  0.1300439E+00
        -11   -1    0    0    0    0  0.00000000000E+00  0.00000000000E+00  0.45593999997E+02  0.45594000000E+02  0.51100000000E-03 0. -1.
         11   -1    0    0    0    0 -0.00000000000E+00 -0.00000000000E+00 -0.45593999997E+02  0.45594000000E+02  0.51100000000E-03 0.  1.
    9900012    2    1    2    0    0 -0.16395563527E+02  0.35731132923E+02  0.10374781265E+02  0.50528874952E+02  0.30000045905E+02 0.  0.
         12    1    1    2    0    0  0.16395563527E+02 -0.35731132923E+02 -0.10374781265E+02  0.40659125048E+02  0.00000000000E+00 0. -1.
         11    1    3    3    0    0 -0.69093251659E+01  0.15845720050E+02  0.81508027990E+01  0.19111807991E+02  0.51100000000E-03 0.  1.
        -11    1    3    3    0    0 -0.18994086434E+01  0.13412475503E+02 -0.91065307130E+01  0.16322718959E+02  0.51100000000E-03 0. -1.
         12    1    3    3    0    0 -0.75868297182E+01  0.64729373696E+01  0.11330509179E+02  0.15094348003E+02  0.00000000000E+00 0. -1.
</event>
<event>
 7    1  0.2755991E-011  0.5052886E+02  0.7816164E-02  0.1300439E+00
        -11   -1    0    0    0    0  0.00000000000E+00  0.00000000000E+00  0.45593999997E+02  0.45594000000E+02  0.51100000000E-03 0. -1.
         11   -1    0    0    0    0 -0.00000000000E+00 -0.00000000000E+00 -0.45593999997E+02  0.45594000000E+02  0.51100000000E-03 0.  1.
    9900012    2    1    2    0    0 -0.21152317525E+02  0.14259250010E+02 -0.31660996587E+02  0.50528862620E+02  0.30000008421E+02 0.  0.
         12    1    1    2    0    0  0.21152317525E+02 -0.14259250010E+02  0.31660996587E+02  0.40659137380E+02  0.00000000000E+00 0. -1.
         11    1    3    3    0    0 -0.12380505144E+02  0.35230986154E+00 -0.75266061289E+01  0.14493130439E+02  0.51100000000E-03 0.  1.
        -11    1    3    3    0    0 -0.10545726980E+02  0.18716529692E+02 -0.17889712108E+02  0.27956441848E+02  0.51100000000E-03 0. -1.
         12    1    3    3    0    0  0.17739145977E+01 -0.48095895440E+01 -0.62446783503E+01  0.80792903327E+01  0.00000000000E+00 0. -1.
</event>
<event>
 7    1  0.2755991E-011  0.5052885E+02  0.7816164E-02  0.1300439E+00
        -11   -1    0    0    0    0  0.00000000000E+00  0.00000000000E+00  0.45593999997E+02  0.45594000000E+02  0.51100000000E-03 0.  1.
         11   -1    0    0    0    0 -0.00000000000E+00 -0.00000000000E+00 -0.45593999997E+02  0.45594000000E+02  0.51100000000E-03 0. -1.
    9900012    2    1    2    0    0 -0.35029206540E+02 -0.19465163052E+02  0.68722955625E+01  0.50528851832E+02  0.29999975628E+02 0.  0.
         12    1    1    2    0    0  0.35029206540E+02  0.19465163052E+02 -0.68722955625E+01  0.40659148168E+02  0.00000000000E+00 0. -1.
         11    1    3    3    0    0 -0.93999007965E+01  0.28322723659E+01 -0.52885919954E+01  0.11151193088E+02  0.51100000000E-03 0. -1.
        -11    1    3    3    0    0 -0.80733122258E+01 -0.60465749523E+00  0.75930804758E+01  0.11099497843E+02  0.51100000000E-03 0.  1.
        -12    1    3    3    0    0 -0.17555993518E+02 -0.21692777923E+02  0.45678070821E+01  0.28278160901E+02  0.00000000000E+00 0.  1.
</event>
<event>
 7    1  0.2755991E-011  0.5052886E+02  0.7816164E-02  0.1300439E+00
        -11   -1    0    0    0    0  0.00000000000E+00  0.00000000000E+00  0.45593999997E+02  0.45594000000E+02  0.51100000000E-03 0. -1.
         11   -1    0    0    0    0 -0.00000000000E+00 -0.00000000000E+00 -0.45593999997E+02  0.45594000000E+02  0.51100000000E-03 0.  1.
    9900012    2    1    2    0    0 -0.32048209096E+02 -0.13865219141E+02 -0.20828667248E+02  0.50528863420E+02  0.30000010852E+02 0.  0.
         12    1    1    2    0    0  0.32048209096E+02  0.13865219141E+02  0.20828667248E+02  0.40659136580E+02  0.00000000000E+00 0. -1.
         11    1    3    3    0    0 -0.20287567603E+02 -0.10233200156E+01 -0.10763023378E+02  0.22988589683E+02  0.51100000000E-03 0. -1.
        -11    1    3    3    0    0 -0.15360517558E+02 -0.58324500665E+01 -0.25059617647E+01  0.16620554083E+02  0.51100000000E-03 0.  1.
        -12    1    3    3    0    0  0.35998760648E+01 -0.70094490593E+01 -0.75596821049E+01  0.10919719654E+02  0.00000000000E+00 0.  1.
</event>
<event>
 7    1  0.2755991E-011  0.5052886E+02  0.7816164E-02  0.1300439E+00
        -11   -1    0    0    0    0  0.00000000000E+00  0.00000000000E+00  0.45593999997E+02  0.45594000000E+02  0.51100000000E-03 0.  1.
         11   -1    0    0    0    0 -0.00000000000E+00 -0.00000000000E+00 -0.45593999997E+02  0.45594000000E+02  0.51100000000E-03 0. -1.
    9900012    2    1    2    0    0  0.31072970675E+02 -0.19518361315E+02  0.17511991001E+02  0.50528858792E+02  0.29999996784E+02 0.  0.
         12    1    1    2    0    0 -0.31072970675E+02  0.19518361315E+02 -0.17511991001E+02  0.40659141208E+02  0.00000000000E+00 0. -1.
         11    1    3    3    0    0  0.90688899522E+00 -0.15339507459E+01 -0.13398293999E+01  0.22294832635E+01  0.51100000000E-03 0. -1.
        -11    1    3    3    0    0  0.16052635675E+02 -0.19231090982E+02  0.42343355737E+00  0.25053967125E+02  0.51100000000E-03 0.  1.
         12    1    3    3    0    0  0.14113446005E+02  0.12466804130E+01  0.18428386843E+02  0.23245408403E+02  0.00000000000E+00 0. -1.
</event>
<event>
 7    1  0.2755991E-011  0.5052886E+02  0.7816164E-02  0.1300439E+00
        -11   -1    0    0    0    0  0.00000000000E+00  0.00000000000E+00  0.45593999997E+02  0.45594000000E+02  0.51100000000E-03 0.  1.
         11   -1    0    0    0    0 -0.00000000000E+00 -0.00000000000E+00 -0.45593999997E+02  0.45594000000E+02  0.51100000000E-03 0. -1.
    9900012    2    1    2    0    0  0.49919820126E+01  0.24941437965E+02  0.31720189587E+02  0.50528860319E+02  0.30000001425E+02 0.  0.
         12    1    1    2    0    0 -0.49919820126E+01 -0.24941437965E+02 -0.31720189587E+02  0.40659139681E+02  0.00000000000E+00 0. -1.
         11    1    3    3    0    0  0.85176743947E+01  0.10981129229E+02  0.10023139261E+02  0.17134739482E+02  0.51100000000E-03 0. -1.
        -11    1    3    3    0    0  0.41712635477E+01 -0.38294151170E+01  0.27742973816E+01  0.63055995706E+01  0.51100000000E-03 0.  1.
         12    1    3    3    0    0 -0.76969559298E+01  0.17789723853E+02  0.18922752945E+02  0.27088521266E+02  0.00000000000E+00 0. -1.
</event>
<event>
 7    1  0.2755991E-011  0.5052886E+02  0.7816164E-02  0.1300439E+00
        -11   -1    0    0    0    0  0.00000000000E+00  0.00000000000E+00  0.45593999997E+02  0.45594000000E+02  0.51100000000E-03 0.  1.
         11   -1    0    0    0    0 -0.00000000000E+00 -0.00000000000E+00 -0.45593999997E+02  0.45594000000E+02  0.51100000000E-03 0. -1.
    9900012    2    1    2    0    0  0.11679385018E+02  0.13112731192E+02  0.36671702242E+02  0.50528862047E+02  0.30000006679E+02 0.  0.
         12    1    1    2    0    0 -0.11679385018E+02 -0.13112731192E+02 -0.36671702242E+02  0.40659137953E+02  0.00000000000E+00 0. -1.
         11    1    3    3    0    0 -0.63771125389E+00  0.14928600150E+02  0.16021546845E+02  0.21907983514E+02  0.51100000000E-03 0. -1.
        -11    1    3    3    0    0  0.15009777327E+01  0.49623653842E+01  0.12352693895E+02  0.13396531308E+02  0.51100000000E-03 0.  1.
         12    1    3    3    0    0  0.10816118539E+02 -0.67782343422E+01  0.82974615021E+01  0.15224347225E+02  0.00000000000E+00 0. -1.
</event>
<event>
 7    1  0.2755991E-011  0.5052886E+02  0.7816164E-02  0.1300439E+00
        -11   -1    0    0    0    0  0.00000000000E+00  0.00000000000E+00  0.45593999997E+02  0.45594000000E+02  0.51100000000E-03 0. -1.
         11   -1    0    0    0    0 -0.00000000000E+00 -0.00000000000E+00 -0.45593999997E+02  0.45594000000E+02  0.51100000000E-03 0.  1.
    9900012    2    1    2    0    0 -0.41864710189E+01  0.20089604466E+02 -0.35100525236E+02  0.50528860572E+02  0.30000002193E+02 0.  0.
         12    1    1    2    0    0  0.41864710189E+01 -0.20089604466E+02  0.35100525236E+02  0.40659139428E+02  0.00000000000E+00 0. -1.
         11    1    3    3    0    0  0.19350592576E+01 -0.18088899080E+01 -0.10585076959E+02  0.10911479805E+02  0.51100000000E-03 0. -1.
        -11    1    3    3    0    0 -0.24159608282E+01  0.17006018943E+02 -0.27783277955E+02  0.32664232445E+02  0.51100000000E-03 0.  1.
        -12    1    3    3    0    0 -0.37055694482E+01  0.48924754318E+01  0.32678296784E+01  0.69531483224E+01  0.00000000000E+00 0.  1.
</event>
<event>
 7    1  0.2755991E-011  0.5052886E+02  0.7816164E-02  0.1300439E+00
        -11   -1    0    0    0    0  0.00000000000E+00  0.00000000000E+00  0.45593999997E+02  0.45594000000E+02  0.51100000000E-03 0.  1.
         11   -1    0    0    0    0 -0.00000000000E+00 -0.00000000000E+00 -0.45593999997E+02  0.45594000000E+02  0.51100000000E-03 0. -1.
    9900012    2    1    2    0    0 -0.72631966247E+01 -0.22144098930E+02  0.33317416376E+02  0.50528863553E+02  0.30000011255E+02 0.  0.
         12    1    1    2    0    0  0.72631966247E+01  0.22144098930E+02 -0.33317416376E+02  0.40659136447E+02  0.00000000000E+00 0. -1.
         11    1    3    3    0    0 -0.23821717470E+01  0.29124134693E+01  0.51947436980E+01  0.64142230081E+01  0.51100000000E-03 0. -1.
        -11    1    3    3    0    0 -0.91220764813E+01 -0.16752684508E+01  0.35480637677E+01  0.99301339606E+01  0.51100000000E-03 0.  1.
         12    1    3    3    0    0  0.42410516037E+01 -0.23381243949E+02  0.24574608911E+02  0.34184506584E+02  0.00000000000E+00 0. -1.
</event>
<event>
 7    1  0.2755991E-011  0.5052888E+02  0.7816164E-02  0.1300439E+00
        -11   -1    0    0    0    0  0.00000000000E+00  0.00000000000E+00  0.45593999997E+02  0.45594000000E+02  0.51100000000E-03 0.  1.
         11   -1    0    0    0    0 -0.00000000000E+00 -0.00000000000E+00 -0.45593999997E+02  0.45594000000E+02  0.51100000000E-03 0. -1.
    9900012    2    1    2    0    0 -0.32992623411E+02 -0.13196309092E+02  0.19761275322E+02  0.50528883242E+02  0.30000071103E+02 0.  0.
         12    1    1    2    0    0  0.32992623411E+02  0.13196309092E+02 -0.19761275322E+02  0.40659116758E+02  0.00000000000E+00 0. -1.
         11    1    3    3    0    0 -0.12027501310E+02 -0.26324545383E+01  0.20403125857E+02  0.23830194075E+02  0.51100000000E-03 0. -1.
        -11    1    3    3    0    0 -0.11106141344E+01 -0.20072814629E+01  0.39768023703E+01  0.45910347396E+01  0.51100000000E-03 0.  1.
        -12    1    3    3    0    0 -0.19854507967E+02 -0.85565730904E+01 -0.46186529053E+01  0.22107654428E+02  0.00000000000E+00 0.  1.
</event>
<event>
 7    1  0.2755991E-011  0.5052886E+02  0.7816164E-02  0.1300439E+00
        -11   -1    0    0    0    0  0.00000000000E+00  0.00000000000E+00  0.45593999997E+02  0.45594000000E+02  0.51100000000E-03 0. -1.
         11   -1    0    0    0    0 -0.00000000000E+00 -0.00000000000E+00 -0.45593999997E+02  0.45594000000E+02  0.51100000000E-03 0.  1.
    9900012    2    1    2    0    0 -0.40333589217E+02 -0.16209778547E+01 -0.48723166943E+01  0.50528862549E+02  0.30000008203E+02 0.  0.
         12    1    1    2    0    0  0.40333589217E+02  0.16209778547E+01  0.48723166943E+01  0.40659137451E+02  0.00000000000E+00 0. -1.
         11    1    3    3    0    0 -0.37938130008E+01  0.80716338286E+00 -0.18198638031E+01  0.42844409594E+01  0.51100000000E-03 0.  1.
        -11    1    3    3    0    0 -0.14665140547E+02 -0.13321937440E+02 -0.79027297641E+01  0.21330576701E+02  0.51100000000E-03 0. -1.
         12    1    3    3    0    0 -0.21874635669E+02  0.10893796203E+02  0.48502768729E+01  0.24913844888E+02  0.00000000000E+00 0. -1.
</event>
<event>
 7    1  0.2755991E-011  0.5052887E+02  0.7816164E-02  0.1300439E+00
        -11   -1    0    0    0    0  0.00000000000E+00  0.00000000000E+00  0.45593999997E+02  0.45594000000E+02  0.51100000000E-03 0.  1.
         11   -1    0    0    0    0 -0.00000000000E+00 -0.00000000000E+00 -0.45593999997E+02  0.45594000000E+02  0.51100000000E-03 0. -1.
    9900012    2    1    2    0    0 -0.23224507689E+02  0.14929053728E+02  0.29848125353E+02  0.50528868311E+02  0.30000025719E+02 0.  0.
         12    1    1    2    0    0  0.23224507689E+02 -0.14929053728E+02 -0.29848125353E+02  0.40659131689E+02  0.00000000000E+00 0. -1.
         11    1    3    3    0    0 -0.43443746657E+01  0.20322736149E+01  0.46505029581E+00  0.48187134508E+01  0.51100000000E-03 0.  1.
        -11    1    3    3    0    0 -0.18258666406E+02  0.12951744374E+02  0.71955780192E+01  0.23513887908E+02  0.51100000000E-03 0. -1.
        -12    1    3    3    0    0 -0.62146661767E+00 -0.54964261175E-01  0.22187497038E+02  0.22196266953E+02  0.00000000000E+00 0.  1.
</event>
<event>
 7    1  0.2755991E-011  0.5052883E+02  0.7816164E-02  0.1300439E+00
        -11   -1    0    0    0    0  0.00000000000E+00  0.00000000000E+00  0.45593999997E+02  0.45594000000E+02  0.51100000000E-03 0.  1.
         11   -1    0    0    0    0 -0.00000000000E+00 -0.00000000000E+00 -0.45593999997E+02  0.45594000000E+02  0.51100000000E-03 0. -1.
    9900012    2    1    2    0    0 -0.30085180190E+02  0.14152534468E+02  0.23404185363E+02  0.50528828939E+02  0.29999906041E+02 0.  0.
         12    1    1    2    0    0  0.30085180190E+02 -0.14152534468E+02 -0.23404185363E+02  0.40659171061E+02  0.00000000000E+00 0. -1.
         11    1    3    3    0    0 -0.45963759087E+01  0.11278442030E+02  0.13889372430E+02  0.18472806849E+02  0.51100000000E-03 0. -1.
        -11    1    3    3    0    0 -0.86465882185E+01  0.51579849801E+01  0.11099950522E+02  0.14985899998E+02  0.51100000000E-03 0.  1.
        -12    1    3    3    0    0 -0.16842216062E+02 -0.22838925429E+01 -0.15851375897E+01  0.17070122092E+02  0.00000000000E+00 0.  1.
</event>
<event>
 7    1  0.2755991E-011  0.5052886E+02  0.7816164E-02  0.1300439E+00
        -11   -1    0    0    0    0  0.00000000000E+00  0.00000000000E+00  0.45593999997E+02  0.45594000000E+02  0.51100000000E-03 0.  1.
         11   -1    0    0    0    0 -0.00000000000E+00 -0.00000000000E+00 -0.45593999997E+02  0.45594000000E+02  0.51100000000E-03 0. -1.
    9900012    2    1    2    0    0 -0.90345083536E+01 -0.84479370680E+01  0.38732101704E+02  0.50528859769E+02  0.29999999754E+02 0.  0.
         12    1    1    2    0    0  0.90345083536E+01  0.84479370680E+01 -0.38732101704E+02  0.40659140231E+02  0.00000000000E+00 0. -1.
         11    1    3    3    0    0  0.30876387906E+00 -0.10222610838E+02  0.26282485428E+02  0.28202236578E+02  0.51100000000E-03 0. -1.
        -11    1    3    3    0    0 -0.21716223957E+01 -0.68042819440E+01  0.65158033142E+01  0.96679827106E+01  0.51100000000E-03 0.  1.
         12    1    3    3    0    0 -0.71716498369E+01  0.85789557144E+01  0.59338129621E+01  0.12658640480E+02  0.00000000000E+00 0. -1.
</event>
<event>
 7    1  0.2755991E-011  0.5052887E+02  0.7816164E-02  0.1300439E+00
        -11   -1    0    0    0    0  0.00000000000E+00  0.00000000000E+00  0.45593999997E+02  0.45594000000E+02  0.51100000000E-03 0. -1.
         11   -1    0    0    0    0 -0.00000000000E+00 -0.00000000000E+00 -0.45593999997E+02  0.45594000000E+02  0.51100000000E-03 0.  1.
    9900012    2    1    2    0    0  0.59643326014E+01  0.28468736450E+02 -0.28409903999E+02  0.50528869861E+02  0.30000030431E+02 0.  0.
         12    1    1    2    0    0 -0.59643326014E+01 -0.28468736450E+02  0.28409903999E+02  0.40659130139E+02  0.00000000000E+00 0. -1.
         11    1    3    3    0    0  0.82274700064E+00  0.83590294296E+01 -0.52559627977E+01  0.99083515695E+01  0.51100000000E-03 0. -1.
        -11    1    3    3    0    0  0.55786108768E+01  0.21943755126E+02 -0.60814827867E+01  0.23444268415E+02  0.51100000000E-03 0.  1.
        -12    1    3    3    0    0 -0.43702527605E+00 -0.18340481059E+01 -0.17072458414E+02  0.17176249877E+02  0.00000000000E+00 0.  1.
</event>
<event>
 7    1  0.2755991E-011  0.5052886E+02  0.7816164E-02  0.1300439E+00
        -11   -1    0    0    0    0  0.00000000000E+00  0.00000000000E+00  0.45593999997E+02  0.45594000000E+02  0.51100000000E-03 0.  1.
         11   -1    0    0    0    0 -0.00000000000E+00 -0.00000000000E+00 -0.45593999997E+02  0.45594000000E+02  0.51100000000E-03 0. -1.
    9900012    2    1    2    0    0  0.12873013632E+02 -0.16225901213E+02  0.34988161720E+02  0.50528858215E+02  0.29999995030E+02 0.  0.
         12    1    1    2    0    0 -0.12873013632E+02  0.16225901213E+02 -0.34988161720E+02  0.40659141785E+02  0.00000000000E+00 0. -1.
         11    1    3    3    0    0  0.22525837452E+01 -0.96058323426E+01  0.16493929171E+02  0.19219673469E+02  0.51100000000E-03 0. -1.
        -11    1    3    3    0    0  0.85573033139E+01 -0.10985121283E+02  0.21504753288E+02  0.25619421224E+02  0.51100000000E-03 0.  1.
         12    1    3    3    0    0  0.20631265724E+01  0.43650524122E+01 -0.30105207386E+01  0.56897635216E+01  0.00000000000E+00 0. -1.
</event>
<event>
 7    1  0.2755991E-011  0.5052885E+02  0.7816164E-02  0.1300439E+00
        -11   -1    0    0    0    0  0.00000000000E+00  0.00000000000E+00  0.45593999997E+02  0.45594000000E+02  0.51100000000E-03 0. -1.
         11   -1    0    0    0    0 -0.00000000000E+00 -0.00000000000E+00 -0.45593999997E+02  0.45594000000E+02  0.51100000000E-03 0.  1.
    9900012    2    1    2    0    0 -0.33493831197E+02 -0.11532081662E+02 -0.19958473271E+02  0.50528852308E+02  0.29999977077E+02 0.  0.
         12    1    1    2    0    0  0.33493831197E+02  0.11532081662E+02  0.19958473271E+02  0.40659147692E+02  0.00000000000E+00 0. -1.
         11    1    3    3    0    0 -0.16696881366E+02 -0.82762958446E+01 -0.37098024583E+01  0.19001198773E+02  0.51100000000E-03 0. -1.
        -11    1    3    3    0    0 -0.25325257205E+01 -0.10608875212E+02 -0.55261721978E+01  0.12227039675E+02  0.51100000000E-03 0.  1.
         12    1    3    3    0    0 -0.14264424110E+02  0.73530893952E+01 -0.10722498615E+02  0.19300613860E+02  0.00000000000E+00 0. -1.
</event>
<event>
 7    1  0.2755991E-011  0.5052884E+02  0.7816164E-02  0.1300439E+00
        -11   -1    0    0    0    0  0.00000000000E+00  0.00000000000E+00  0.45593999997E+02  0.45594000000E+02  0.51100000000E-03 0. -1.
         11   -1    0    0    0    0 -0.00000000000E+00 -0.00000000000E+00 -0.45593999997E+02  0.45594000000E+02  0.51100000000E-03 0.  1.
    9900012    2    1    2    0    0 -0.19980409556E+02 -0.30107999895E+02 -0.18640244598E+02  0.50528841839E+02  0.29999945253E+02 0.  0.
         12    1    1    2    0    0  0.19980409556E+02  0.30107999895E+02  0.18640244598E+02  0.40659158161E+02  0.00000000000E+00 0. -1.
         11    1    3    3    0    0  0.28045137150E+01 -0.49090234704E+01 -0.15010756701E+01  0.58495330616E+01  0.51100000000E-03 0. -1.
        -11    1    3    3    0    0 -0.34677369126E+01 -0.25601178814E+01  0.57135301952E+01  0.71570825351E+01  0.51100000000E-03 0.  1.
        -12    1    3    3    0    0 -0.19317186359E+02 -0.22638858543E+02 -0.22852699123E+02  0.37522226242E+02  0.00000000000E+00 0.  1.
</event>
<event>
 7    1  0.2755991E-011  0.5052886E+02  0.7816164E-02  0.1300439E+00
        -11   -1    0    0    0    0  0.00000000000E+00  0.00000000000E+00  0.45593999997E+02  0.45594000000E+02  0.51100000000E-03 0.  1.
         11   -1    0    0    0    0 -0.00000000000E+00 -0.00000000000E+00 -0.45593999997E+02  0.45594000000E+02  0.51100000000E-03 0. -1.
    9900012    2    1    2    0    0  0.11645882256E+02  0.15455479632E+02  0.35758461668E+02  0.50528855825E+02  0.29999987767E+02 0.  0.
         12    1    1    2    0    0 -0.11645882256E+02 -0.15455479632E+02 -0.35758461668E+02  0.40659144175E+02  0.00000000000E+00 0. -1.
         11    1    3    3    0    0  0.96568951635E+01 -0.15413441776E+01  0.15591024494E+02  0.18404113973E+02  0.51100000000E-03 0. -1.
        -11    1    3    3    0    0  0.51881734759E+01 -0.20997471611E+01  0.37314290680E+01  0.67267856594E+01  0.51100000000E-03 0.  1.
         12    1    3    3    0    0 -0.31991863838E+01  0.19096570971E+02  0.16436008105E+02  0.25397956193E+02  0.00000000000E+00 0. -1.
</event>
<event>
 7    1  0.2755991E-011  0.5052886E+02  0.7816164E-02  0.1300439E+00
        -11   -1    0    0    0    0  0.00000000000E+00  0.00000000000E+00  0.45593999997E+02  0.45594000000E+02  0.51100000000E-03 0. -1.
         11   -1    0    0    0    0 -0.00000000000E+00 -0.00000000000E+00 -0.45593999997E+02  0.45594000000E+02  0.51100000000E-03 0.  1.
    9900012    2    1    2    0    0 -0.28414786646E+02 -0.20110401837E+02  0.21008036981E+02  0.50528856133E+02  0.29999988702E+02 0.  0.
         12    1    1    2    0    0  0.28414786646E+02  0.20110401837E+02 -0.21008036981E+02  0.40659143867E+02  0.00000000000E+00 0. -1.
         11    1    3    3    0    0 -0.19850102210E+02 -0.10675233132E+02  0.11439669767E+02  0.25275545588E+02  0.51100000000E-03 0. -1.
        -11    1    3    3    0    0 -0.14151104928E+02 -0.48116231373E+01  0.10008807585E+02  0.17988377287E+02  0.51100000000E-03 0.  1.
        -12    1    3    3    0    0  0.55864204910E+01 -0.46235455676E+01 -0.44044037092E+00  0.72649332576E+01  0.00000000000E+00 0.  1.
</event>
<event>
 7    1  0.2755991E-011  0.5052887E+02  0.7816164E-02  0.1300439E+00
        -11   -1    0    0    0    0  0.00000000000E+00  0.00000000000E+00  0.45593999997E+02  0.45594000000E+02  0.51100000000E-03 0.  1.
         11   -1    0    0    0    0 -0.00000000000E+00 -0.00000000000E+00 -0.45593999997E+02  0.45594000000E+02  0.51100000000E-03 0. -1.
    9900012    2    1    2    0    0 -0.16490882863E+02  0.30761652942E+02  0.20855134804E+02  0.50528866254E+02  0.30000019465E+02 0.  0.
         12    1    1    2    0    0  0.16490882863E+02 -0.30761652942E+02 -0.20855134804E+02  0.40659133746E+02  0.00000000000E+00 0. -1.
         11    1    3    3    0    0 -0.79092514910E+00  0.19167041782E+01 -0.17913355011E+01  0.27401096031E+01  0.51100000000E-03 0. -1.
        -11    1    3    3    0    0 -0.51084184267E+01  0.30234862940E+01 -0.55420889911E+01  0.81210934510E+01  0.51100000000E-03 0.  1.
        -12    1    3    3    0    0 -0.10591539287E+02  0.25821462470E+02  0.28188559296E+02  0.39667663200E+02  0.00000000000E+00 0.  1.
</event>
<event>
 7    1  0.2755991E-011  0.5052887E+02  0.7816164E-02  0.1300439E+00
        -11   -1    0    0    0    0  0.00000000000E+00  0.00000000000E+00  0.45593999997E+02  0.45594000000E+02  0.51100000000E-03 0.  1.
         11   -1    0    0    0    0 -0.00000000000E+00 -0.00000000000E+00 -0.45593999997E+02  0.45594000000E+02  0.51100000000E-03 0. -1.
    9900012    2    1    2    0    0 -0.64440005336E+01  0.39279012416E+02 -0.82945248940E+01  0.50528866924E+02  0.30000021502E+02 0.  0.
         12    1    1    2    0    0  0.64440005336E+01 -0.39279012416E+02  0.82945248940E+01  0.40659133076E+02  0.00000000000E+00 0. -1.
         11    1    3    3    0    0  0.78318101917E+00  0.14401443110E+00 -0.18227331909E+01  0.19890875324E+01  0.51100000000E-03 0. -1.
        -11    1    3    3    0    0 -0.83747237562E+01  0.17634374835E+02 -0.15761030277E+02  0.25090182333E+02  0.51100000000E-03 0.  1.
        -12    1    3    3    0    0  0.11475422034E+01  0.21500623150E+02  0.92892385741E+01  0.23449597059E+02  0.00000000000E+00 0.  1.
</event>
<event>
 7    1  0.2755991E-011  0.5052885E+02  0.7816164E-02  0.1300439E+00
        -11   -1    0    0    0    0  0.00000000000E+00  0.00000000000E+00  0.45593999997E+02  0.45594000000E+02  0.51100000000E-03 0.  1.
         11   -1    0    0    0    0 -0.00000000000E+00 -0.00000000000E+00 -0.45593999997E+02  0.45594000000E+02  0.51100000000E-03 0. -1.
    9900012    2    1    2    0    0  0.59165199724E+01  0.11637840600E+02  0.38506124608E+02  0.50528853738E+02  0.29999981422E+02 0.  0.
         12    1    1    2    0    0 -0.59165199724E+01 -0.11637840600E+02 -0.38506124608E+02  0.40659146262E+02  0.00000000000E+00 0. -1.
         11    1    3    3    0    0  0.11225062842E+02  0.87999335509E+01  0.19852814673E+02  0.24445349599E+02  0.51100000000E-03 0. -1.
        -11    1    3    3    0    0 -0.36742411034E+01 -0.25419391552E+01  0.19840163130E+02  0.20337000163E+02  0.51100000000E-03 0.  1.
         12    1    3    3    0    0 -0.16343017659E+01  0.53798462041E+01 -0.11868531949E+01  0.57465039762E+01  0.00000000000E+00 0. -1.
</event>
<event>
 7    1  0.2755991E-011  0.5052886E+02  0.7816164E-02  0.1300439E+00
        -11   -1    0    0    0    0  0.00000000000E+00  0.00000000000E+00  0.45593999997E+02  0.45594000000E+02  0.51100000000E-03 0. -1.
         11   -1    0    0    0    0 -0.00000000000E+00 -0.00000000000E+00 -0.45593999997E+02  0.45594000000E+02  0.51100000000E-03 0.  1.
    9900012    2    1    2    0    0  0.67763261027E+01  0.36094759802E+02  0.17447510509E+02  0.50528857073E+02  0.29999991558E+02 0.  0.
         12    1    1    2    0    0 -0.67763261027E+01 -0.36094759802E+02 -0.17447510509E+02  0.40659142927E+02  0.00000000000E+00 0. -1.
         11    1    3    3    0    0  0.14232974490E+01  0.99871286301E+00 -0.29181242077E+01  0.33968591616E+01  0.51100000000E-03 0. -1.
        -11    1    3    3    0    0  0.13559917645E+02  0.17510479462E+02  0.15773048394E+02  0.27189654529E+02  0.51100000000E-03 0.  1.
        -12    1    3    3    0    0 -0.82068889914E+01  0.17585567478E+02  0.45925863226E+01  0.19942343382E+02  0.00000000000E+00 0.  1.
</event>
<event>
 7    1  0.2755991E-011  0.5052886E+02  0.7816164E-02  0.1300439E+00
        -11   -1    0    0    0    0  0.00000000000E+00  0.00000000000E+00  0.45593999997E+02  0.45594000000E+02  0.51100000000E-03 0. -1.
         11   -1    0    0    0    0 -0.00000000000E+00 -0.00000000000E+00 -0.45593999997E+02  0.45594000000E+02  0.51100000000E-03 0.  1.
    9900012    2    1    2    0    0 -0.76236899546E+01 -0.39804180623E+02  0.32667940424E+01  0.50528863426E+02  0.30000010871E+02 0.  0.
         12    1    1    2    0    0  0.76236899546E+01  0.39804180623E+02 -0.32667940424E+01  0.40659136574E+02  0.00000000000E+00 0. -1.
         11    1    3    3    0    0  0.32176880547E+01 -0.41058724656E+00  0.20351043354E+01  0.38293273850E+01  0.51100000000E-03 0. -1.
        -11    1    3    3    0    0 -0.37672802330E+01 -0.13665947229E+02  0.11353398904E+02  0.18161778023E+02  0.51100000000E-03 0.  1.
        -12    1    3    3    0    0 -0.70740977763E+01 -0.25727646148E+02 -0.10121709197E+02  0.28537758018E+02  0.00000000000E+00 0.  1.
</event>
<event>
 7    1  0.2755991E-011  0.5052880E+02  0.7816164E-02  0.1300439E+00
        -11   -1    0    0    0    0  0.00000000000E+00  0.00000000000E+00  0.45593999997E+02  0.45594000000E+02  0.51100000000E-03 0.  1.
         11   -1    0    0    0    0 -0.00000000000E+00 -0.00000000000E+00 -0.45593999997E+02  0.45594000000E+02  0.51100000000E-03 0. -1.
    9900012    2    1    2    0    0 -0.22830964021E+01 -0.18000340102E+02  0.36386061117E+02  0.50528804035E+02  0.29999830343E+02 0.  0.
         12    1    1    2    0    0  0.22830964021E+01  0.18000340102E+02 -0.36386061117E+02  0.40659195965E+02  0.00000000000E+00 0. -1.
         11    1    3    3    0    0 -0.12005735541E+02 -0.12568642128E+01  0.12761203290E+02  0.17566038346E+02  0.51100000000E-03 0. -1.
        -11    1    3    3    0    0  0.15162456109E+01 -0.39817508940E+01  0.14820369977E+02  0.15420658464E+02  0.51100000000E-03 0.  1.
        -12    1    3    3    0    0  0.82063935276E+01 -0.12761724995E+02  0.88044878499E+01  0.17542107225E+02  0.00000000000E+00 0.  1.
</event>
<event>
 7    1  0.2755991E-011  0.5052886E+02  0.7816164E-02  0.1300439E+00
        -11   -1    0    0    0    0  0.00000000000E+00  0.00000000000E+00  0.45593999997E+02  0.45594000000E+02  0.51100000000E-03 0. -1.
         11   -1    0    0    0    0 -0.00000000000E+00 -0.00000000000E+00 -0.45593999997E+02  0.45594000000E+02  0.51100000000E-03 0.  1.
    9900012    2    1    2    0    0 -0.20226563123E+02 -0.24979777858E+02  0.24901049224E+02  0.50528863142E+02  0.30000010006E+02 0.  0.
         12    1    1    2    0    0  0.20226563123E+02  0.24979777858E+02 -0.24901049224E+02  0.40659136858E+02  0.00000000000E+00 0. -1.
         11    1    3    3    0    0 -0.22892154920E+01  0.43865781647E+01  0.21960563918E+01  0.54134313980E+01  0.51100000000E-03 0. -1.
        -11    1    3    3    0    0 -0.12195519542E+02 -0.38036072439E+01  0.69382061028E+01  0.14537428560E+02  0.51100000000E-03 0.  1.
         12    1    3    3    0    0 -0.57418280886E+01 -0.25562748778E+02  0.15766786730E+02  0.30578003183E+02  0.00000000000E+00 0. -1.
</event>
<event>
 7    1  0.2755991E-011  0.5052886E+02  0.7816164E-02  0.1300439E+00
        -11   -1    0    0    0    0  0.00000000000E+00  0.00000000000E+00  0.45593999997E+02  0.45594000000E+02  0.51100000000E-03 0.  1.
         11   -1    0    0    0    0 -0.00000000000E+00 -0.00000000000E+00 -0.45593999997E+02  0.45594000000E+02  0.51100000000E-03 0. -1.
    9900012    2    1    2    0    0 -0.31037101850E+02 -0.63214179572E+01  0.25493202183E+02  0.50528863588E+02  0.30000011362E+02 0.  0.
         12    1    1    2    0    0  0.31037101850E+02  0.63214179572E+01 -0.25493202183E+02  0.40659136412E+02  0.00000000000E+00 0. -1.
         11    1    3    3    0    0 -0.52868004714E+00  0.13740502435E+01 -0.20526046919E+01  0.25260053337E+01  0.51100000000E-03 0. -1.
        -11    1    3    3    0    0 -0.10599572448E+02 -0.10489828072E+02  0.13384199807E+01  0.14972601556E+02  0.51100000000E-03 0.  1.
        -12    1    3    3    0    0 -0.19908849355E+02  0.27943598711E+01  0.26207386894E+02  0.33030256698E+02  0.00000000000E+00 0.  1.
</event>
<event>
 7    1  0.2799208E-011  0.5052886E+02  0.7816164E-02  0.1300439E+00
        -11   -1    0    0    0    0  0.00000000000E+00  0.00000000000E+00  0.45593999997E+02  0.45594000000E+02  0.51100000000E-03 0.  1.
         11   -1    0    0    0    0 -0.00000000000E+00 -0.00000000000E+00 -0.45593999997E+02  0.45594000000E+02  0.51100000000E-03 0. -1.
    9900012    2    1    2    0    0 -0.25496620790E+02  0.31364500358E+02  0.43995471962E+01  0.50528861176E+02  0.30000004030E+02 0.  0.
         12    1    1    2    0    0  0.25496620790E+02 -0.31364500358E+02 -0.43995471962E+01  0.40659138824E+02  0.00000000000E+00 0. -1.
         11    1    3    3    0    0 -0.18161650738E+02  0.23158486275E+01  0.50878025808E+01  0.19002485304E+02  0.51100000000E-03 0. -1.
        -11    1    3    3    0    0 -0.32529469217E+01  0.14678245983E+02  0.45304363282E+01  0.15702147063E+02  0.51100000000E-03 0.  1.
        -12    1    3    3    0    0 -0.40820231302E+01  0.14370405748E+02 -0.52186917128E+01  0.15824228808E+02  0.00000000000E+00 0.  1.
</event>
<event>
 7    1  0.2755991E-011  0.5052886E+02  0.7816164E-02  0.1300439E+00
        -11   -1    0    0    0    0  0.00000000000E+00  0.00000000000E+00  0.45593999997E+02  0.45594000000E+02  0.51100000000E-03 0. -1.
         11   -1    0    0    0    0 -0.00000000000E+00 -0.00000000000E+00 -0.45593999997E+02  0.45594000000E+02  0.51100000000E-03 0.  1.
    9900012    2    1    2    0    0 -0.83618227988E+01  0.39006126205E+01 -0.39598370451E+02  0.50528858325E+02  0.29999995365E+02 0.  0.
         12    1    1    2    0    0  0.83618227988E+01 -0.39006126205E+01  0.39598370451E+02  0.40659141675E+02  0.00000000000E+00 0. -1.
         11    1    3    3    0    0 -0.53010950138E+01  0.70114910951E+00 -0.18606618143E+02  0.19359738051E+02  0.51100000000E-03 0. -1.
        -11    1    3    3    0    0 -0.12041533375E+02  0.46876007111E+01 -0.16670940527E+02  0.21092472230E+02  0.51100000000E-03 0.  1.
        -12    1    3    3    0    0  0.89808055897E+01 -0.14881372001E+01 -0.43208117812E+01  0.10076648045E+02  0.00000000000E+00 0.  1.
</event>
<event>
 7    1  0.2755991E-011  0.5052886E+02  0.7816164E-02  0.1300439E+00
        -11   -1    0    0    0    0  0.00000000000E+00  0.00000000000E+00  0.45593999997E+02  0.45594000000E+02  0.51100000000E-03 0.  1.
         11   -1    0    0    0    0 -0.00000000000E+00 -0.00000000000E+00 -0.45593999997E+02  0.45594000000E+02  0.51100000000E-03 0. -1.
    9900012    2    1    2    0    0  0.38145732597E+02  0.64808533609E+00  0.14058769653E+02  0.50528856697E+02  0.29999990417E+02 0.  0.
         12    1    1    2    0    0 -0.38145732597E+02 -0.64808533609E+00 -0.14058769653E+02  0.40659143303E+02  0.00000000000E+00 0. -1.
         11    1    3    3    0    0  0.46316314994E+01  0.14532983588E+01 -0.69673313886E+00  0.49040313818E+01  0.51100000000E-03 0. -1.
        -11    1    3    3    0    0  0.37026765379E+02 -0.31150519428E+01  0.16997004010E+02  0.40860531674E+02  0.51100000000E-03 0.  1.
        -12    1    3    3    0    0 -0.35126642819E+01  0.23098389201E+01 -0.22415012185E+01  0.47642936419E+01  0.00000000000E+00 0.  1.
</event>
<event>
 7    1  0.2755991E-011  0.5052887E+02  0.7816164E-02  0.1300439E+00
        -11   -1    0    0    0    0  0.00000000000E+00  0.00000000000E+00  0.45593999997E+02  0.45594000000E+02  0.51100000000E-03 0.  1.
         11   -1    0    0    0    0 -0.00000000000E+00 -0.00000000000E+00 -0.45593999997E+02  0.45594000000E+02  0.51100000000E-03 0. -1.
    9900012    2    1    2    0    0 -0.21493700901E+02  0.33296887197E+02 -0.90831172909E+01  0.50528869474E+02  0.30000029252E+02 0.  0.
         12    1    1    2    0    0  0.21493700901E+02 -0.33296887197E+02  0.90831172909E+01  0.40659130526E+02  0.00000000000E+00 0. -1.
         11    1    3    3    0    0 -0.22216555700E+01  0.18453013708E+01 -0.26814084953E+01  0.39409189792E+01  0.51100000000E-03 0. -1.
        -11    1    3    3    0    0 -0.18830488721E+02  0.72148017306E+01  0.33824682821E+01  0.20447047744E+02  0.51100000000E-03 0.  1.
         12    1    3    3    0    0 -0.44155660999E+00  0.24236784096E+02 -0.97841770777E+01  0.26140902751E+02  0.00000000000E+00 0. -1.
</event>
<event>
 7    1  0.2755991E-011  0.5052886E+02  0.7816164E-02  0.1300439E+00
        -11   -1    0    0    0    0  0.00000000000E+00  0.00000000000E+00  0.45593999997E+02  0.45594000000E+02  0.51100000000E-03 0. -1.
         11   -1    0    0    0    0 -0.00000000000E+00 -0.00000000000E+00 -0.45593999997E+02  0.45594000000E+02  0.51100000000E-03 0.  1.
    9900012    2    1    2    0    0  0.20307841766E+02 -0.20859059446E+02 -0.28384100696E+02  0.50528856250E+02  0.29999989057E+02 0.  0.
         12    1    1    2    0    0 -0.20307841766E+02  0.20859059446E+02  0.28384100696E+02  0.40659143750E+02  0.00000000000E+00 0. -1.
         11    1    3    3    0    0  0.12685270424E+02 -0.62501431853E+01 -0.21390830364E+02  0.25642698756E+02  0.51100000000E-03 0. -1.
        -11    1    3    3    0    0  0.83482221983E+01 -0.16596446883E+02 -0.10085845300E+02  0.21139042994E+02  0.51100000000E-03 0.  1.
         12    1    3    3    0    0 -0.72565085575E+00  0.19875306224E+01  0.30925749684E+01  0.37471144998E+01  0.00000000000E+00 0. -1.
</event>
<event>
 7    1  0.2755991E-011  0.5052886E+02  0.7816164E-02  0.1300439E+00
        -11   -1    0    0    0    0  0.00000000000E+00  0.00000000000E+00  0.45593999997E+02  0.45594000000E+02  0.51100000000E-03 0.  1.
         11   -1    0    0    0    0 -0.00000000000E+00 -0.00000000000E+00 -0.45593999997E+02  0.45594000000E+02  0.51100000000E-03 0. -1.
    9900012    2    1    2    0    0 -0.16245468398E+02  0.12754078575E+02  0.35022623460E+02  0.50528856898E+02  0.29999991026E+02 0.  0.
         12    1    1    2    0    0  0.16245468398E+02 -0.12754078575E+02 -0.35022623460E+02  0.40659143102E+02  0.00000000000E+00 0. -1.
         11    1    3    3    0    0  0.55424416514E+00  0.78756680104E+01  0.92359636134E+01  0.12150570247E+02  0.51100000000E-03 0. -1.
        -11    1    3    3    0    0 -0.11104413251E+02  0.13699211078E+02  0.13449590669E+02  0.22178094310E+02  0.51100000000E-03 0.  1.
        -12    1    3    3    0    0 -0.56952993123E+01 -0.88208005134E+01  0.12337069178E+02  0.16200192340E+02  0.00000000000E+00 0.  1.
</event>
<event>
 7    1  0.2755991E-011  0.5052889E+02  0.7816164E-02  0.1300439E+00
        -11   -1    0    0    0    0  0.00000000000E+00  0.00000000000E+00  0.45593999997E+02  0.45594000000E+02  0.51100000000E-03 0.  1.
         11   -1    0    0    0    0 -0.00000000000E+00 -0.00000000000E+00 -0.45593999997E+02  0.45594000000E+02  0.51100000000E-03 0. -1.
    9900012    2    1    2    0    0 -0.20418612325E+02  0.26940066671E+02  0.22593729624E+02  0.50528886141E+02  0.30000079913E+02 0.  0.
         12    1    1    2    0    0  0.20418612325E+02 -0.26940066671E+02 -0.22593729624E+02  0.40659113859E+02  0.00000000000E+00 0. -1.
         11    1    3    3    0    0 -0.14200663520E+01  0.79902087755E+01 -0.50038793944E+01  0.95340879991E+01  0.51100000000E-03 0. -1.
        -11    1    3    3    0    0  0.12878560168E+00 -0.19404234744E+01  0.12573644784E+01  0.23157708617E+01  0.51100000000E-03 0.  1.
        -12    1    3    3    0    0 -0.19127331575E+02  0.20890281370E+02  0.26340244540E+02  0.38679027280E+02  0.00000000000E+00 0.  1.
</event>
<event>
 7    1  0.2755991E-011  0.5052886E+02  0.7816164E-02  0.1300439E+00
        -11   -1    0    0    0    0  0.00000000000E+00  0.00000000000E+00  0.45593999997E+02  0.45594000000E+02  0.51100000000E-03 0.  1.
         11   -1    0    0    0    0 -0.00000000000E+00 -0.00000000000E+00 -0.45593999997E+02  0.45594000000E+02  0.51100000000E-03 0. -1.
    9900012    2    1    2    0    0  0.76713025601E+01  0.54671310700E+01  0.39552836770E+02  0.50528864475E+02  0.30000014059E+02 0.  0.
         12    1    1    2    0    0 -0.76713025601E+01 -0.54671310700E+01 -0.39552836770E+02  0.40659135525E+02  0.00000000000E+00 0. -1.
         11    1    3    3    0    0 -0.51557843786E+01  0.46823622658E+01  0.10890257456E+02  0.12926884260E+02  0.51100000000E-03 0. -1.
        -11    1    3    3    0    0  0.71003151282E+01 -0.99180043275E+01  0.14103118850E+02  0.18646159023E+02  0.51100000000E-03 0.  1.
         12    1    3    3    0    0  0.57267718105E+01  0.10702773132E+02  0.14559460464E+02  0.18955821192E+02  0.00000000000E+00 0. -1.
</event>
<event>
 7    1  0.2755991E-011  0.5052885E+02  0.7816164E-02  0.1300439E+00
        -11   -1    0    0    0    0  0.00000000000E+00  0.00000000000E+00  0.45593999997E+02  0.45594000000E+02  0.51100000000E-03 0.  1.
         11   -1    0    0    0    0 -0.00000000000E+00 -0.00000000000E+00 -0.45593999997E+02  0.45594000000E+02  0.51100000000E-03 0. -1.
    9900012    2    1    2    0    0  0.27647434353E+02 -0.17690719286E+02  0.23996337911E+02  0.50528850866E+02  0.29999972692E+02 0.  0.
         12    1    1    2    0    0 -0.27647434353E+02  0.17690719286E+02 -0.23996337911E+02  0.40659149134E+02  0.00000000000E+00 0. -1.
         11    1    3    3    0    0  0.39099710187E+01 -0.85502583251E+01  0.31427321730E+01  0.99132011260E+01  0.51100000000E-03 0.  1.
        -11    1    3    3    0    0  0.12885693893E+02 -0.15075601374E+02  0.20079983826E+02  0.28222696800E+02  0.51100000000E-03 0. -1.
         12    1    3    3    0    0  0.10851769441E+02  0.59351404132E+01  0.77362191185E+00  0.12392952940E+02  0.00000000000E+00 0. -1.
</event>
<event>
 7    1  0.2755991E-011  0.5052889E+02  0.7816164E-02  0.1300439E+00
        -11   -1    0    0    0    0  0.00000000000E+00  0.00000000000E+00  0.45593999997E+02  0.45594000000E+02  0.51100000000E-03 0.  1.
         11   -1    0    0    0    0 -0.00000000000E+00 -0.00000000000E+00 -0.45593999997E+02  0.45594000000E+02  0.51100000000E-03 0. -1.
    9900012    2    1    2    0    0  0.29006409626E+02  0.24728486683E+02  0.14152516916E+02  0.50528885547E+02  0.30000078107E+02 0.  0.
         12    1    1    2    0    0 -0.29006409626E+02 -0.24728486683E+02 -0.14152516916E+02  0.40659114453E+02  0.00000000000E+00 0. -1.
         11    1    3    3    0    0  0.14652583043E+01  0.33657025802E+01 -0.65911402038E+01  0.75444062195E+01  0.51100000000E-03 0. -1.
        -11    1    3    3    0    0  0.49477594842E+01 -0.16075356989E+01  0.13356285241E+01  0.53710705406E+01  0.51100000000E-03 0.  1.
        -12    1    3    3    0    0  0.22593391838E+02  0.22970319802E+02  0.19408028596E+02  0.37613408786E+02  0.00000000000E+00 0.  1.
</event>
<event>
 7    1  0.2755991E-011  0.5052887E+02  0.7816164E-02  0.1300439E+00
        -11   -1    0    0    0    0  0.00000000000E+00  0.00000000000E+00  0.45593999997E+02  0.45594000000E+02  0.51100000000E-03 0.  1.
         11   -1    0    0    0    0 -0.00000000000E+00 -0.00000000000E+00 -0.45593999997E+02  0.45594000000E+02  0.51100000000E-03 0. -1.
    9900012    2    1    2    0    0  0.39473231222E+02  0.92382335638E+01 -0.31119625525E+01  0.50528865068E+02  0.30000015861E+02 0.  0.
         12    1    1    2    0    0 -0.39473231222E+02 -0.92382335638E+01  0.31119625525E+01  0.40659134932E+02  0.00000000000E+00 0. -1.
         11    1    3    3    0    0  0.37051678834E+01 -0.94207468050E+00  0.47337639202E+01  0.60847592279E+01  0.51100000000E-03 0. -1.
        -11    1    3    3    0    0  0.12437213919E+02 -0.69211474995E+01  0.79029368280E+00  0.14255214384E+02  0.51100000000E-03 0.  1.
        -12    1    3    3    0    0  0.23330849420E+02  0.17101455744E+02 -0.86360201555E+01  0.30188891456E+02  0.00000000000E+00 0.  1.
</event>
<event>
 7    1  0.2755991E-011  0.5052886E+02  0.7816164E-02  0.1300439E+00
        -11   -1    0    0    0    0  0.00000000000E+00  0.00000000000E+00  0.45593999997E+02  0.45594000000E+02  0.51100000000E-03 0.  1.
         11   -1    0    0    0    0 -0.00000000000E+00 -0.00000000000E+00 -0.45593999997E+02  0.45594000000E+02  0.51100000000E-03 0. -1.
    9900012    2    1    2    0    0  0.28187846619E+02 -0.17416668379E+02  0.23564176031E+02  0.50528862940E+02  0.30000009393E+02 0.  0.
         12    1    1    2    0    0 -0.28187846619E+02  0.17416668379E+02 -0.23564176031E+02  0.40659137060E+02  0.00000000000E+00 0. -1.
         11    1    3    3    0    0  0.66308788338E+01 -0.15335794088E+02 -0.14822183141E+00  0.16708593729E+02  0.51100000000E-03 0. -1.
        -11    1    3    3    0    0  0.10842496464E+02  0.45949118890E+00  0.46510672827E+01  0.11806916992E+02  0.51100000000E-03 0.  1.
        -12    1    3    3    0    0  0.10714471322E+02 -0.25403654791E+01  0.19061330580E+02  0.22013352220E+02  0.00000000000E+00 0.  1.
</event>
<event>
 7    1  0.2755991E-011  0.5052886E+02  0.7816164E-02  0.1300439E+00
        -11   -1    0    0    0    0  0.00000000000E+00  0.00000000000E+00  0.45593999997E+02  0.45594000000E+02  0.51100000000E-03 0. -1.
         11   -1    0    0    0    0 -0.00000000000E+00 -0.00000000000E+00 -0.45593999997E+02  0.45594000000E+02  0.51100000000E-03 0.  1.
    9900012    2    1    2    0    0 -0.78846032796E+01 -0.25389993228E+01 -0.39806434510E+02  0.50528859394E+02  0.29999998614E+02 0.  0.
         12    1    1    2    0    0  0.78846032796E+01  0.25389993228E+01  0.39806434510E+02  0.40659140606E+02  0.00000000000E+00 0. -1.
         11    1    3    3    0    0  0.34108192950E+01  0.57926138893E+01 -0.13765239823E+02  0.15318938983E+02  0.51100000000E-03 0. -1.
        -11    1    3    3    0    0 -0.50822402952E-01 -0.14844164506E+01  0.29869288246E+01  0.33358386022E+01  0.51100000000E-03 0.  1.
         12    1    3    3    0    0 -0.11244600172E+02 -0.68471967616E+01 -0.29028123512E+02  0.31874081809E+02  0.00000000000E+00 0. -1.
</event>
<event>
 7    1  0.2755991E-011  0.5052886E+02  0.7816164E-02  0.1300439E+00
        -11   -1    0    0    0    0  0.00000000000E+00  0.00000000000E+00  0.45593999997E+02  0.45594000000E+02  0.51100000000E-03 0.  1.
         11   -1    0    0    0    0 -0.00000000000E+00 -0.00000000000E+00 -0.45593999997E+02  0.45594000000E+02  0.51100000000E-03 0. -1.
    9900012    2    1    2    0    0  0.20699044331E+01  0.37448368744E+02  0.15700346500E+02  0.50528859500E+02  0.29999998936E+02 0.  0.
         12    1    1    2    0    0 -0.20699044331E+01 -0.37448368744E+02 -0.15700346500E+02  0.40659140500E+02  0.00000000000E+00 0. -1.
         11    1    3    3    0    0 -0.24916635691E+01  0.12797357637E+02  0.80998182315E+00  0.13062802940E+02  0.51100000000E-03 0. -1.
        -11    1    3    3    0    0 -0.96579340052E+01  0.11388423437E+02  0.67206853938E+01  0.16374965345E+02  0.51100000000E-03 0.  1.
         12    1    3    3    0    0  0.14219502007E+02  0.13262587669E+02  0.81696792833E+01  0.21091091214E+02  0.00000000000E+00 0. -1.
</event>
<event>
 7    1  0.2755991E-011  0.5052886E+02  0.7816164E-02  0.1300439E+00
        -11   -1    0    0    0    0  0.00000000000E+00  0.00000000000E+00  0.45593999997E+02  0.45594000000E+02  0.51100000000E-03 0. -1.
         11   -1    0    0    0    0 -0.00000000000E+00 -0.00000000000E+00 -0.45593999997E+02  0.45594000000E+02  0.51100000000E-03 0.  1.
    9900012    2    1    2    0    0 -0.15903435453E+02  0.32284610053E+02  0.18919578125E+02  0.50528859061E+02  0.29999997602E+02 0.  0.
         12    1    1    2    0    0  0.15903435453E+02 -0.32284610053E+02 -0.18919578125E+02  0.40659140939E+02  0.00000000000E+00 0. -1.
         11    1    3    3    0    0 -0.80766385774E+00  0.18393549745E+02  0.10681704663E+02  0.21285530482E+02  0.51100000000E-03 0. -1.
        -11    1    3    3    0    0 -0.75117347829E+01  0.17919131944E+02  0.49727517081E+01  0.20056163863E+02  0.51100000000E-03 0.  1.
        -12    1    3    3    0    0 -0.75840368121E+01 -0.40280716357E+01  0.32651217537E+01  0.91871647169E+01  0.00000000000E+00 0.  1.
</event>
<event>
 7    1  0.2755991E-011  0.5052884E+02  0.7816164E-02  0.1300439E+00
        -11   -1    0    0    0    0  0.00000000000E+00  0.00000000000E+00  0.45593999997E+02  0.45594000000E+02  0.51100000000E-03 0.  1.
         11   -1    0    0    0    0 -0.00000000000E+00 -0.00000000000E+00 -0.45593999997E+02  0.45594000000E+02  0.51100000000E-03 0. -1.
    9900012    2    1    2    0    0 -0.94019381247E+00  0.10707790295E+02  0.39212577328E+02  0.50528844105E+02  0.29999952141E+02 0.  0.
         12    1    1    2    0    0  0.94019381247E+00 -0.10707790295E+02 -0.39212577328E+02  0.40659155895E+02  0.00000000000E+00 0. -1.
         11    1    3    3    0    0 -0.46983874434E+01  0.54840539023E+00 -0.71754758396E+00  0.47843983777E+01  0.51100000000E-03 0. -1.
        -11    1    3    3    0    0 -0.61128450262E+01 -0.20931248550E+01  0.95290131565E+01  0.11513042081E+02  0.51100000000E-03 0.  1.
        -12    1    3    3    0    0  0.98710386571E+01  0.12252509760E+02  0.30401111756E+02  0.34231403646E+02  0.00000000000E+00 0.  1.
</event>
<event>
 7    1  0.2755991E-011  0.5052886E+02  0.7816164E-02  0.1300439E+00
        -11   -1    0    0    0    0  0.00000000000E+00  0.00000000000E+00  0.45593999997E+02  0.45594000000E+02  0.51100000000E-03 0.  1.
         11   -1    0    0    0    0 -0.00000000000E+00 -0.00000000000E+00 -0.45593999997E+02  0.45594000000E+02  0.51100000000E-03 0. -1.
    9900012    2    1    2    0    0 -0.33176750807E+02  0.54576135922E+01  0.22862267011E+02  0.50528860891E+02  0.30000003164E+02 0.  0.
         12    1    1    2    0    0  0.33176750807E+02 -0.54576135922E+01 -0.22862267011E+02  0.40659139109E+02  0.00000000000E+00 0. -1.
         11    1    3    3    0    0  0.14719989499E+01  0.12849548890E+01  0.93758972966E+01  0.95773347207E+01  0.51100000000E-03 0. -1.
        -11    1    3    3    0    0  0.17638954705E+01 -0.60272503506E+00  0.12409198862E+01  0.22393050538E+01  0.51100000000E-03 0.  1.
         12    1    3    3    0    0 -0.36412645227E+02  0.47753837383E+01  0.12245449828E+02  0.38712221116E+02  0.00000000000E+00 0. -1.
</event>
<event>
 7    1  0.2755991E-011  0.5052886E+02  0.7816164E-02  0.1300439E+00
        -11   -1    0    0    0    0  0.00000000000E+00  0.00000000000E+00  0.45593999997E+02  0.45594000000E+02  0.51100000000E-03 0.  1.
         11   -1    0    0    0    0 -0.00000000000E+00 -0.00000000000E+00 -0.45593999997E+02  0.45594000000E+02  0.51100000000E-03 0. -1.
    9900012    2    1    2    0    0 -0.20670440930E+02 -0.27956863614E+02  0.21078718017E+02  0.50528859520E+02  0.29999998996E+02 0.  0.
         12    1    1    2    0    0  0.20670440930E+02  0.27956863614E+02 -0.21078718017E+02  0.40659140480E+02  0.00000000000E+00 0. -1.
         11    1    3    3    0    0 -0.66937975971E+01 -0.97869167840E+01  0.72012807750E+01  0.13872602909E+02  0.51100000000E-03 0. -1.
        -11    1    3    3    0    0 -0.82795191783E+01 -0.17935795102E+02  0.20123312294E+02  0.28199129094E+02  0.51100000000E-03 0.  1.
         12    1    3    3    0    0 -0.56971241542E+01 -0.23415172858E+00 -0.62458750519E+01  0.84571275161E+01  0.00000000000E+00 0. -1.
</event>
<event>
 7    1  0.2755991E-011  0.5052887E+02  0.7816164E-02  0.1300439E+00
        -11   -1    0    0    0    0  0.00000000000E+00  0.00000000000E+00  0.45593999997E+02  0.45594000000E+02  0.51100000000E-03 0.  1.
         11   -1    0    0    0    0 -0.00000000000E+00 -0.00000000000E+00 -0.45593999997E+02  0.45594000000E+02  0.51100000000E-03 0. -1.
    9900012    2    1    2    0    0  0.31625226603E+01 -0.28383464049E+02  0.28940328034E+02  0.50528866122E+02  0.30000019066E+02 0.  0.
         12    1    1    2    0    0 -0.31625226603E+01  0.28383464049E+02 -0.28940328034E+02  0.40659133878E+02  0.00000000000E+00 0. -1.
         11    1    3    3    0    0  0.19896580821E+01  0.18799429824E+01  0.33151320083E+01  0.42991889229E+01  0.51100000000E-03 0. -1.
        -11    1    3    3    0    0  0.73462036341E+01 -0.27875569053E+02  0.26968729822E+02  0.39475643710E+02  0.51100000000E-03 0.  1.
         12    1    3    3    0    0 -0.61733390559E+01 -0.23878379781E+01 -0.13435337971E+01  0.67540334892E+01  0.00000000000E+00 0. -1.
</event>
<event>
 7    1  0.2755991E-011  0.5052886E+02  0.7816164E-02  0.1300439E+00
        -11   -1    0    0    0    0  0.00000000000E+00  0.00000000000E+00  0.45593999997E+02  0.45594000000E+02  0.51100000000E-03 0.  1.
         11   -1    0    0    0    0 -0.00000000000E+00 -0.00000000000E+00 -0.45593999997E+02  0.45594000000E+02  0.51100000000E-03 0. -1.
    9900012    2    1    2    0    0  0.50434809169E+01  0.20741784963E+02  0.34605022078E+02  0.50528857163E+02  0.29999991833E+02 0.  0.
         12    1    1    2    0    0 -0.50434809169E+01 -0.20741784963E+02 -0.34605022078E+02  0.40659142837E+02  0.00000000000E+00 0. -1.
         11    1    3    3    0    0  0.35919733011E+00 -0.26491342877E+01  0.77436045866E+01  0.81920905422E+01  0.51100000000E-03 0. -1.
        -11    1    3    3    0    0  0.38264649213E+01 -0.15083334536E+01 -0.16872780798E+01  0.44456508164E+01  0.51100000000E-03 0.  1.
        -12    1    3    3    0    0  0.85781866547E+00  0.24899252704E+02  0.28548695571E+02  0.37891115805E+02  0.00000000000E+00 0.  1.
</event>
<event>
 7    1  0.2755991E-011  0.5052886E+02  0.7816164E-02  0.1300439E+00
        -11   -1    0    0    0    0  0.00000000000E+00  0.00000000000E+00  0.45593999997E+02  0.45594000000E+02  0.51100000000E-03 0. -1.
         11   -1    0    0    0    0 -0.00000000000E+00 -0.00000000000E+00 -0.45593999997E+02  0.45594000000E+02  0.51100000000E-03 0.  1.
    9900012    2    1    2    0    0 -0.12367645510E+02  0.26631230639E+02 -0.28124454800E+02  0.50528855166E+02  0.29999985763E+02 0.  0.
         12    1    1    2    0    0  0.12367645510E+02 -0.26631230639E+02  0.28124454800E+02  0.40659144834E+02  0.00000000000E+00 0. -1.
         11    1    3    3    0    0 -0.41804495569E+01  0.72034721415E+01  0.11016932026E+01  0.84011842954E+01  0.51100000000E-03 0. -1.
        -11    1    3    3    0    0 -0.97507125278E+01  0.20997822662E+02 -0.14678987804E+02  0.27412727602E+02  0.51100000000E-03 0.  1.
        -12    1    3    3    0    0  0.15635165752E+01 -0.15700641644E+01 -0.14547160199E+02  0.14714943269E+02  0.00000000000E+00 0.  1.
</event>
<event>
 7    1  0.2755991E-011  0.5052886E+02  0.7816164E-02  0.1300439E+00
        -11   -1    0    0    0    0  0.00000000000E+00  0.00000000000E+00  0.45593999997E+02  0.45594000000E+02  0.51100000000E-03 0.  1.
         11   -1    0    0    0    0 -0.00000000000E+00 -0.00000000000E+00 -0.45593999997E+02  0.45594000000E+02  0.51100000000E-03 0. -1.
    9900012    2    1    2    0    0 -0.12203697080E+02  0.37525145489E+02  0.98029842879E+01  0.50528864897E+02  0.30000015340E+02 0.  0.
         12    1    1    2    0    0  0.12203697080E+02 -0.37525145489E+02 -0.98029842879E+01  0.40659135103E+02  0.00000000000E+00 0. -1.
         11    1    3    3    0    0 -0.15427219013E+02  0.29711331207E+02  0.20216945831E+01  0.33538776629E+02  0.51100000000E-03 0. -1.
        -11    1    3    3    0    0 -0.30274835512E+01  0.82302253163E+01  0.53339357056E+01  0.10264167564E+02  0.51100000000E-03 0.  1.
         12    1    3    3    0    0  0.62510054842E+01 -0.41641103387E+00  0.24473539993E+01  0.67259207035E+01  0.00000000000E+00 0. -1.
</event>
<event>
 7    1  0.2755991E-011  0.5052886E+02  0.7816164E-02  0.1300439E+00
        -11   -1    0    0    0    0  0.00000000000E+00  0.00000000000E+00  0.45593999997E+02  0.45594000000E+02  0.51100000000E-03 0. -1.
         11   -1    0    0    0    0 -0.00000000000E+00 -0.00000000000E+00 -0.45593999997E+02  0.45594000000E+02  0.51100000000E-03 0.  1.
    9900012    2    1    2    0    0  0.23886285000E+02 -0.27738549758E+02  0.17696999028E+02  0.50528861687E+02  0.30000005584E+02 0.  0.
         12    1    1    2    0    0 -0.23886285000E+02  0.27738549758E+02 -0.17696999028E+02  0.40659138313E+02  0.00000000000E+00 0. -1.
         11    1    3    3    0    0  0.51020991222E+01  0.23754468148E+01  0.34956194262E+01  0.66252183705E+01  0.51100000000E-03 0. -1.
        -11    1    3    3    0    0  0.47382553255E+01  0.26399096219E+01  0.42815491256E+01  0.69102713056E+01  0.51100000000E-03 0.  1.
        -12    1    3    3    0    0  0.14045930552E+02 -0.32753906194E+02  0.99198304765E+01  0.36993372011E+02  0.00000000000E+00 0.  1.
</event>
<event>
 7    1  0.2755991E-011  0.5052886E+02  0.7816164E-02  0.1300439E+00
        -11   -1    0    0    0    0  0.00000000000E+00  0.00000000000E+00  0.45593999997E+02  0.45594000000E+02  0.51100000000E-03 0. -1.
         11   -1    0    0    0    0 -0.00000000000E+00 -0.00000000000E+00 -0.45593999997E+02  0.45594000000E+02  0.51100000000E-03 0.  1.
    9900012    2    1    2    0    0 -0.20160571119E+02 -0.31008540384E+02  0.16887502476E+02  0.50528856570E+02  0.29999990029E+02 0.  0.
         12    1    1    2    0    0  0.20160571119E+02  0.31008540384E+02 -0.16887502476E+02  0.40659143430E+02  0.00000000000E+00 0. -1.
         11    1    3    3    0    0  0.15370932209E+01 -0.15078307328E+02  0.12671472495E+02  0.19755612440E+02  0.51100000000E-03 0. -1.
        -11    1    3    3    0    0  0.63040038878E+00 -0.47452850072E+01 -0.17513323657E+01  0.50972835673E+01  0.51100000000E-03 0.  1.
        -12    1    3    3    0    0 -0.22328064729E+02 -0.11184948049E+02  0.59673623464E+01  0.25675960562E+02  0.00000000000E+00 0.  1.
</event>
<event>
 7    1  0.2755991E-011  0.5052887E+02  0.7816164E-02  0.1300439E+00
        -11   -1    0    0    0    0  0.00000000000E+00  0.00000000000E+00  0.45593999997E+02  0.45594000000E+02  0.51100000000E-03 0. -1.
         11   -1    0    0    0    0 -0.00000000000E+00 -0.00000000000E+00 -0.45593999997E+02  0.45594000000E+02  0.51100000000E-03 0.  1.
    9900012    2    1    2    0    0 -0.45576387918E+01  0.76255971789E+01 -0.39676729154E+02  0.50528872611E+02  0.30000038787E+02 0.  0.
         12    1    1    2    0    0  0.45576387918E+01 -0.76255971789E+01  0.39676729154E+02  0.40659127389E+02  0.00000000000E+00 0. -1.
         11    1    3    3    0    0  0.96019125087E+01  0.69404555029E+01 -0.14899616655E+02  0.19035893022E+02  0.51100000000E-03 0. -1.
        -11    1    3    3    0    0  0.18614127288E+01  0.26925069382E+01 -0.36557986632E+01  0.49070678705E+01  0.51100000000E-03 0.  1.
        -12    1    3    3    0    0 -0.16020964029E+02 -0.20073652622E+01 -0.21121313836E+02  0.26585911718E+02  0.00000000000E+00 0.  1.
</event>
<event>
 7    1  0.2755991E-011  0.5052882E+02  0.7816164E-02  0.1300439E+00
        -11   -1    0    0    0    0  0.00000000000E+00  0.00000000000E+00  0.45593999997E+02  0.45594000000E+02  0.51100000000E-03 0.  1.
         11   -1    0    0    0    0 -0.00000000000E+00 -0.00000000000E+00 -0.45593999997E+02  0.45594000000E+02  0.51100000000E-03 0. -1.
    9900012    2    1    2    0    0  0.33480217425E+01 -0.22846459081E+02  0.33466381960E+02  0.50528823132E+02  0.29999888391E+02 0.  0.
         12    1    1    2    0    0 -0.33480217425E+01  0.22846459081E+02 -0.33466381960E+02  0.40659176868E+02  0.00000000000E+00 0. -1.
         11    1    3    3    0    0 -0.15963786061E+01  0.28316495193E+01  0.35432546945E+01  0.48084631376E+01  0.51100000000E-03 0. -1.
        -11    1    3    3    0    0 -0.66287456168E+01 -0.30271241227E+00  0.66682340326E+01  0.94072976264E+01  0.51100000000E-03 0.  1.
        -12    1    3    3    0    0  0.11573145965E+02 -0.25375396188E+02  0.23254893232E+02  0.36313062368E+02  0.00000000000E+00 0.  1.
</event>
<event>
 7    1  0.2755991E-011  0.5052883E+02  0.7816164E-02  0.1300439E+00
        -11   -1    0    0    0    0  0.00000000000E+00  0.00000000000E+00  0.45593999997E+02  0.45594000000E+02  0.51100000000E-03 0.  1.
         11   -1    0    0    0    0 -0.00000000000E+00 -0.00000000000E+00 -0.45593999997E+02  0.45594000000E+02  0.51100000000E-03 0. -1.
    9900012    2    1    2    0    0  0.21604855616E+01  0.30172622288E+02  0.27168240794E+02  0.50528829553E+02  0.29999907909E+02 0.  0.
         12    1    1    2    0    0 -0.21604855616E+01 -0.30172622288E+02 -0.27168240794E+02  0.40659170447E+02  0.00000000000E+00 0. -1.
         11    1    3    3    0    0  0.14813913221E+01 -0.23461937986E+01  0.69536572130E+01  0.74868213874E+01  0.51100000000E-03 0. -1.
        -11    1    3    3    0    0  0.50176484471E+01  0.36191667607E+00  0.45592601386E+00  0.50513016551E+01  0.51100000000E-03 0.  1.
        -12    1    3    3    0    0 -0.43385542076E+01  0.32156899410E+02  0.19758657568E+02  0.37990706511E+02  0.00000000000E+00 0.  1.
</event>
<event>
 7    1  0.2755991E-011  0.5052887E+02  0.7816164E-02  0.1300439E+00
        -11   -1    0    0    0    0  0.00000000000E+00  0.00000000000E+00  0.45593999997E+02  0.45594000000E+02  0.51100000000E-03 0. -1.
         11   -1    0    0    0    0 -0.00000000000E+00 -0.00000000000E+00 -0.45593999997E+02  0.45594000000E+02  0.51100000000E-03 0.  1.
    9900012    2    1    2    0    0 -0.32820721164E+02  0.17667474898E+02  0.16242714279E+02  0.50528866042E+02  0.30000018823E+02 0.  0.
         12    1    1    2    0    0  0.32820721164E+02 -0.17667474898E+02 -0.16242714279E+02  0.40659133958E+02  0.00000000000E+00 0. -1.
         11    1    3    3    0    0 -0.60301368444E+01 -0.60501018223E+00  0.11044917345E+01  0.61602345682E+01  0.51100000000E-03 0. -1.
        -11    1    3    3    0    0 -0.28570357805E+02  0.14915677908E+02  0.38506352663E+01  0.32458745891E+02  0.51100000000E-03 0.  1.
         12    1    3    3    0    0  0.17797734850E+01  0.33568071718E+01  0.11287587279E+02  0.11909885584E+02  0.00000000000E+00 0. -1.
</event>
<event>
 7    1  0.2755991E-011  0.5052886E+02  0.7816164E-02  0.1300439E+00
        -11   -1    0    0    0    0  0.00000000000E+00  0.00000000000E+00  0.45593999997E+02  0.45594000000E+02  0.51100000000E-03 0. -1.
         11   -1    0    0    0    0 -0.00000000000E+00 -0.00000000000E+00 -0.45593999997E+02  0.45594000000E+02  0.51100000000E-03 0.  1.
    9900012    2    1    2    0    0 -0.29013208078E+02 -0.24078417880E+02 -0.15219374741E+02  0.50528858124E+02  0.29999994753E+02 0.  0.
         12    1    1    2    0    0  0.29013208078E+02  0.24078417880E+02  0.15219374741E+02  0.40659141876E+02  0.00000000000E+00 0. -1.
         11    1    3    3    0    0 -0.18189035518E+02 -0.21502994185E+01 -0.12162248786E+02  0.21986020478E+02  0.51100000000E-03 0. -1.
        -11    1    3    3    0    0 -0.10525715654E+01  0.17619539228E+01 -0.20439728229E+01  0.28965865580E+01  0.51100000000E-03 0.  1.
         12    1    3    3    0    0 -0.97716009946E+01 -0.23690072384E+02 -0.10131531319E+01  0.25646251087E+02  0.00000000000E+00 0. -1.
</event>
<event>
 7    1  0.2755991E-011  0.5052885E+02  0.7816164E-02  0.1300439E+00
        -11   -1    0    0    0    0  0.00000000000E+00  0.00000000000E+00  0.45593999997E+02  0.45594000000E+02  0.51100000000E-03 0.  1.
         11   -1    0    0    0    0 -0.00000000000E+00 -0.00000000000E+00 -0.45593999997E+02  0.45594000000E+02  0.51100000000E-03 0. -1.
    9900012    2    1    2    0    0  0.29640706601E+02 -0.82334829928E+01  0.26585793140E+02  0.50528854327E+02  0.29999983211E+02 0.  0.
         12    1    1    2    0    0 -0.29640706601E+02  0.82334829928E+01 -0.26585793140E+02  0.40659145673E+02  0.00000000000E+00 0. -1.
         11    1    3    3    0    0  0.99492591655E+01 -0.20704495991E+01  0.12229144050E+02  0.15900518355E+02  0.51100000000E-03 0. -1.
        -11    1    3    3    0    0  0.13870147839E+02 -0.71692690240E+01  0.20720871490E+02  0.25944824821E+02  0.51100000000E-03 0.  1.
         12    1    3    3    0    0  0.58212995968E+01  0.10062356303E+01 -0.63642224007E+01  0.86835111507E+01  0.00000000000E+00 0. -1.
</event>
<event>
 7    1  0.2755991E-011  0.5052883E+02  0.7816164E-02  0.1300439E+00
        -11   -1    0    0    0    0  0.00000000000E+00  0.00000000000E+00  0.45593999997E+02  0.45594000000E+02  0.51100000000E-03 0.  1.
         11   -1    0    0    0    0 -0.00000000000E+00 -0.00000000000E+00 -0.45593999997E+02  0.45594000000E+02  0.51100000000E-03 0. -1.
    9900012    2    1    2    0    0  0.22694765748E+02  0.90342032984E+01  0.32503823767E+02  0.50528833984E+02  0.29999921378E+02 0.  0.
         12    1    1    2    0    0 -0.22694765748E+02 -0.90342032984E+01 -0.32503823767E+02  0.40659166016E+02  0.00000000000E+00 0. -1.
         11    1    3    3    0    0  0.11775732423E+02 -0.98334335201E+00  0.11043295177E+01  0.11868208887E+02  0.51100000000E-03 0. -1.
        -11    1    3    3    0    0  0.32980231506E+01 -0.44262942506E+01  0.12613985657E+02  0.13768866036E+02  0.51100000000E-03 0.  1.
        -12    1    3    3    0    0  0.76210101746E+01  0.14443840901E+02  0.18785508592E+02  0.24891759061E+02  0.00000000000E+00 0.  1.
</event>
<event>
 7    1  0.2755991E-011  0.5052886E+02  0.7816164E-02  0.1300439E+00
        -11   -1    0    0    0    0  0.00000000000E+00  0.00000000000E+00  0.45593999997E+02  0.45594000000E+02  0.51100000000E-03 0. -1.
         11   -1    0    0    0    0 -0.00000000000E+00 -0.00000000000E+00 -0.45593999997E+02  0.45594000000E+02  0.51100000000E-03 0.  1.
    9900012    2    1    2    0    0  0.29989514549E+02 -0.21669374140E+02 -0.16859204809E+02  0.50528861478E+02  0.30000004950E+02 0.  0.
         12    1    1    2    0    0 -0.29989514549E+02  0.21669374140E+02  0.16859204809E+02  0.40659138522E+02  0.00000000000E+00 0. -1.
         11    1    3    3    0    0 -0.46129006867E+01 -0.73761803386E+00  0.35584741789E+00  0.46850358328E+01  0.51100000000E-03 0. -1.
        -11    1    3    3    0    0  0.66837975697E+01 -0.52192871377E+01 -0.98014640998E+01  0.12960818143E+02  0.51100000000E-03 0.  1.
        -12    1    3    3    0    0  0.27918617666E+02 -0.15712468969E+02 -0.74135881268E+01  0.32883007502E+02  0.00000000000E+00 0.  1.
</event>
<event>
 7    1  0.2755991E-011  0.5052886E+02  0.7816164E-02  0.1300439E+00
        -11   -1    0    0    0    0  0.00000000000E+00  0.00000000000E+00  0.45593999997E+02  0.45594000000E+02  0.51100000000E-03 0.  1.
         11   -1    0    0    0    0 -0.00000000000E+00 -0.00000000000E+00 -0.45593999997E+02  0.45594000000E+02  0.51100000000E-03 0. -1.
    9900012    2    1    2    0    0 -0.88784739388E+01  0.18331232953E+02  0.35189544382E+02  0.50528862837E+02  0.30000009079E+02 0.  0.
         12    1    1    2    0    0  0.88784739388E+01 -0.18331232953E+02 -0.35189544382E+02  0.40659137163E+02  0.00000000000E+00 0. -1.
         11    1    3    3    0    0  0.37989522721E+01  0.13216839999E+01  0.37322256422E+01  0.54871117600E+01  0.51100000000E-03 0. -1.
        -11    1    3    3    0    0 -0.10063989016E+02 -0.33060367020E+01  0.53774783503E+01  0.11879858049E+02  0.51100000000E-03 0.  1.
        -12    1    3    3    0    0 -0.26134371950E+01  0.20315585655E+02  0.26079840389E+02  0.33161893028E+02  0.00000000000E+00 0.  1.
</event>
<event>
 7    1  0.2755991E-011  0.5052886E+02  0.7816164E-02  0.1300439E+00
        -11   -1    0    0    0    0  0.00000000000E+00  0.00000000000E+00  0.45593999997E+02  0.45594000000E+02  0.51100000000E-03 0.  1.
         11   -1    0    0    0    0 -0.00000000000E+00 -0.00000000000E+00 -0.45593999997E+02  0.45594000000E+02  0.51100000000E-03 0. -1.
    9900012    2    1    2    0    0  0.74395037329E+01  0.28744410272E+02  0.27777292970E+02  0.50528863973E+02  0.30000012533E+02 0.  0.
         12    1    1    2    0    0 -0.74395037329E+01 -0.28744410272E+02 -0.27777292970E+02  0.40659136027E+02  0.00000000000E+00 0. -1.
         11    1    3    3    0    0  0.38574114922E+01  0.24136781772E+02  0.11506722397E+02  0.27016078884E+02  0.51100000000E-03 0. -1.
        -11    1    3    3    0    0  0.32610972491E+01  0.10144064012E+02  0.13817369387E+02  0.17448681526E+02  0.51100000000E-03 0.  1.
         12    1    3    3    0    0  0.32099499163E+00 -0.55364355117E+01  0.24532011868E+01  0.60641035631E+01  0.00000000000E+00 0. -1.
</event>
<event>
 7    1  0.2755991E-011  0.5052888E+02  0.7816164E-02  0.1300439E+00
        -11   -1    0    0    0    0  0.00000000000E+00  0.00000000000E+00  0.45593999997E+02  0.45594000000E+02  0.51100000000E-03 0.  1.
         11   -1    0    0    0    0 -0.00000000000E+00 -0.00000000000E+00 -0.45593999997E+02  0.45594000000E+02  0.51100000000E-03 0. -1.
    9900012    2    1    2    0    0  0.12125726641E+01 -0.23153300965E+02  0.33400868373E+02  0.50528884342E+02  0.30000074445E+02 0.  0.
         12    1    1    2    0    0 -0.12125726641E+01  0.23153300965E+02 -0.33400868373E+02  0.40659115658E+02  0.00000000000E+00 0. -1.
         11    1    3    3    0    0 -0.42008989808E+01 -0.57335229829E+01  0.10621589492E+02  0.12780414768E+02  0.51100000000E-03 0. -1.
        -11    1    3    3    0    0 -0.30724998158E+01  0.37505106945E+00  0.16892413730E+02  0.17173658908E+02  0.51100000000E-03 0.  1.
         12    1    3    3    0    0  0.84859714607E+01 -0.17794829051E+02  0.58868651514E+01  0.20574810665E+02  0.00000000000E+00 0. -1.
</event>
<event>
 7    1  0.2755991E-011  0.5052886E+02  0.7816164E-02  0.1300439E+00
        -11   -1    0    0    0    0  0.00000000000E+00  0.00000000000E+00  0.45593999997E+02  0.45594000000E+02  0.51100000000E-03 0.  1.
         11   -1    0    0    0    0 -0.00000000000E+00 -0.00000000000E+00 -0.45593999997E+02  0.45594000000E+02  0.51100000000E-03 0. -1.
    9900012    2    1    2    0    0  0.40300279026E+02  0.19824974353E+01  0.50122410826E+01  0.50528863926E+02  0.30000012389E+02 0.  0.
         12    1    1    2    0    0 -0.40300279026E+02 -0.19824974353E+01 -0.50122410826E+01  0.40659136074E+02  0.00000000000E+00 0. -1.
         11    1    3    3    0    0  0.45385344463E+01  0.86291694234E+01 -0.40526099345E+01  0.10558622420E+02  0.51100000000E-03 0. -1.
        -11    1    3    3    0    0  0.20188600345E+02 -0.79755081352E+01 -0.37668782525E+00  0.21710140670E+02  0.51100000000E-03 0.  1.
        -12    1    3    3    0    0  0.15573144234E+02  0.13288361472E+01  0.94415388423E+01  0.18260100836E+02  0.00000000000E+00 0.  1.
</event>
<event>
 7    1  0.2755991E-011  0.5052887E+02  0.7816164E-02  0.1300439E+00
        -11   -1    0    0    0    0  0.00000000000E+00  0.00000000000E+00  0.45593999997E+02  0.45594000000E+02  0.51100000000E-03 0.  1.
         11   -1    0    0    0    0 -0.00000000000E+00 -0.00000000000E+00 -0.45593999997E+02  0.45594000000E+02  0.51100000000E-03 0. -1.
    9900012    2    1    2    0    0 -0.25413991411E+02  0.14967837701E+02  0.27986748020E+02  0.50528865852E+02  0.30000018244E+02 0.  0.
         12    1    1    2    0    0  0.25413991411E+02 -0.14967837701E+02 -0.27986748020E+02  0.40659134148E+02  0.00000000000E+00 0. -1.
         11    1    3    3    0    0 -0.19652239234E+01  0.11408021664E+02  0.11974465633E+02  0.16655116056E+02  0.51100000000E-03 0. -1.
        -11    1    3    3    0    0 -0.81073543844E+01  0.10110052070E+02  0.50262980947E+01  0.13899856861E+02  0.51100000000E-03 0.  1.
         12    1    3    3    0    0 -0.15341413104E+02 -0.65502360337E+01  0.10985984292E+02  0.19973892935E+02  0.00000000000E+00 0. -1.
</event>
<event>
 7    1  0.2755991E-011  0.5052886E+02  0.7816164E-02  0.1300439E+00
        -11   -1    0    0    0    0  0.00000000000E+00  0.00000000000E+00  0.45593999997E+02  0.45594000000E+02  0.51100000000E-03 0.  1.
         11   -1    0    0    0    0 -0.00000000000E+00 -0.00000000000E+00 -0.45593999997E+02  0.45594000000E+02  0.51100000000E-03 0. -1.
    9900012    2    1    2    0    0 -0.53191262139E-01  0.30483945359E+02  0.26905243228E+02  0.50528857522E+02  0.29999992923E+02 0.  0.
         12    1    1    2    0    0  0.53191262139E-01 -0.30483945359E+02 -0.26905243228E+02  0.40659142478E+02  0.00000000000E+00 0. -1.
         11    1    3    3    0    0  0.32175400167E+01  0.18671804784E+02  0.12389739356E+01  0.18987467296E+02  0.51100000000E-03 0. -1.
        -11    1    3    3    0    0 -0.17289287750E+01 -0.29147628447E+01  0.33957554285E+01  0.47975193946E+01  0.51100000000E-03 0.  1.
        -12    1    3    3    0    0 -0.15418025039E+01  0.14726903419E+02  0.22270513863E+02  0.26743870831E+02  0.00000000000E+00 0.  1.
</event>
<event>
 7    1  0.2755991E-011  0.5052886E+02  0.7816164E-02  0.1300439E+00
        -11   -1    0    0    0    0  0.00000000000E+00  0.00000000000E+00  0.45593999997E+02  0.45594000000E+02  0.51100000000E-03 0. -1.
         11   -1    0    0    0    0 -0.00000000000E+00 -0.00000000000E+00 -0.45593999997E+02  0.45594000000E+02  0.51100000000E-03 0.  1.
    9900012    2    1    2    0    0 -0.40456606061E+02  0.18447217625E+01  0.36091391133E+01  0.50528857640E+02  0.29999993282E+02 0.  0.
         12    1    1    2    0    0  0.40456606061E+02 -0.18447217625E+01 -0.36091391133E+01  0.40659142360E+02  0.00000000000E+00 0. -1.
         11    1    3    3    0    0 -0.20138898932E+02  0.13793688217E+02  0.19647323792E+01  0.24488798631E+02  0.51100000000E-03 0. -1.
        -11    1    3    3    0    0 -0.98766337219E+01 -0.21211091479E+00  0.28589111633E+01  0.10284272362E+02  0.51100000000E-03 0.  1.
         12    1    3    3    0    0 -0.10441073407E+02 -0.11736855539E+02 -0.12145044292E+01  0.15755786647E+02  0.00000000000E+00 0. -1.
</event>
<event>
 7    1  0.2755991E-011  0.5052879E+02  0.7816164E-02  0.1300439E+00
        -11   -1    0    0    0    0  0.00000000000E+00  0.00000000000E+00  0.45593999997E+02  0.45594000000E+02  0.51100000000E-03 0.  1.
         11   -1    0    0    0    0 -0.00000000000E+00 -0.00000000000E+00 -0.45593999997E+02  0.45594000000E+02  0.51100000000E-03 0. -1.
    9900012    2    1    2    0    0  0.45617956125E+01 -0.36943790233E+02 -0.16355972982E+02  0.50528788643E+02  0.29999783558E+02 0.  0.
         12    1    1    2    0    0 -0.45617956125E+01  0.36943790233E+02  0.16355972982E+02  0.40659211357E+02  0.00000000000E+00 0. -1.
         11    1    3    3    0    0 -0.81757915988E+01 -0.40223490703E+01 -0.60121545576E+01  0.10916449194E+02  0.51100000000E-03 0. -1.
        -11    1    3    3    0    0  0.36796598444E+01 -0.26584036376E+02 -0.97075913685E+01  0.28539239952E+02  0.51100000000E-03 0.  1.
        -12    1    3    3    0    0  0.90579273668E+01 -0.63374047869E+01 -0.63622705610E+00  0.11073099498E+02  0.00000000000E+00 0.  1.
</event>
<event>
 7    1  0.2755991E-011  0.5052886E+02  0.7816164E-02  0.1300439E+00
        -11   -1    0    0    0    0  0.00000000000E+00  0.00000000000E+00  0.45593999997E+02  0.45594000000E+02  0.51100000000E-03 0.  1.
         11   -1    0    0    0    0 -0.00000000000E+00 -0.00000000000E+00 -0.45593999997E+02  0.45594000000E+02  0.51100000000E-03 0. -1.
    9900012    2    1    2    0    0  0.14101747843E+02 -0.15304339762E+02  0.34929697237E+02  0.50528857647E+02  0.29999993305E+02 0.  0.
         12    1    1    2    0    0 -0.14101747843E+02  0.15304339762E+02 -0.34929697237E+02  0.40659142353E+02  0.00000000000E+00 0. -1.
         11    1    3    3    0    0  0.39345510555E+01 -0.32587680906E+01  0.77679123078E+01  0.92973503408E+01  0.51100000000E-03 0.  1.
        -11    1    3    3    0    0 -0.10877845954E+01 -0.14978641816E+01  0.25667710668E+02  0.25734378633E+02  0.51100000000E-03 0. -1.
        -12    1    3    3    0    0  0.11254981383E+02 -0.10547707490E+02  0.14940742610E+01  0.15497128674E+02  0.00000000000E+00 0.  1.
</event>
<event>
 7    1  0.2755991E-011  0.5052888E+02  0.7816164E-02  0.1300439E+00
        -11   -1    0    0    0    0  0.00000000000E+00  0.00000000000E+00  0.45593999997E+02  0.45594000000E+02  0.51100000000E-03 0.  1.
         11   -1    0    0    0    0 -0.00000000000E+00 -0.00000000000E+00 -0.45593999997E+02  0.45594000000E+02  0.51100000000E-03 0. -1.
    9900012    2    1    2    0    0  0.21935703901E+02  0.28625587249E+02  0.18776714069E+02  0.50528876273E+02  0.30000049919E+02 0.  0.
         12    1    1    2    0    0 -0.21935703901E+02 -0.28625587249E+02 -0.18776714069E+02  0.40659123727E+02  0.00000000000E+00 0. -1.
         11    1    3    3    0    0  0.86198831963E+01  0.27457567280E+01  0.68921403179E+01  0.11372913644E+02  0.51100000000E-03 0. -1.
        -11    1    3    3    0    0  0.16855912498E+02  0.78281232036E+01  0.85635568095E+01  0.20463035076E+02  0.51100000000E-03 0.  1.
         12    1    3    3    0    0 -0.35400917930E+01  0.18051707318E+02  0.33210169421E+01  0.18692927553E+02  0.00000000000E+00 0. -1.
</event>
<event>
 7    1  0.2876475E-011  0.5052886E+02  0.7816164E-02  0.1300439E+00
        -11   -1    0    0    0    0  0.00000000000E+00  0.00000000000E+00  0.45593999997E+02  0.45594000000E+02  0.51100000000E-03 0. -1.
         11   -1    0    0    0    0 -0.00000000000E+00 -0.00000000000E+00 -0.45593999997E+02  0.45594000000E+02  0.51100000000E-03 0.  1.
    9900012    2    1    2    0    0 -0.26394430115E+02  0.77518139542E+01 -0.29940086743E+02  0.50528863821E+02  0.30000012070E+02 0.  0.
         12    1    1    2    0    0  0.26394430115E+02 -0.77518139542E+01  0.29940086743E+02  0.40659136179E+02  0.00000000000E+00 0. -1.
         11    1    3    3    0    0 -0.14349828174E+02  0.10327696099E+02 -0.12985397399E+01  0.17727523263E+02  0.51100000000E-03 0. -1.
        -11    1    3    3    0    0 -0.27921749595E+01 -0.53993080539E+01 -0.84178464030E+01  0.10383106799E+02  0.51100000000E-03 0.  1.
        -12    1    3    3    0    0 -0.92524269808E+01  0.28234259093E+01 -0.20223700600E+02  0.22418233759E+02  0.00000000000E+00 0.  1.
</event>
<event>
 7    1  0.2755991E-011  0.5052887E+02  0.7816164E-02  0.1300439E+00
        -11   -1    0    0    0    0  0.00000000000E+00  0.00000000000E+00  0.45593999997E+02  0.45594000000E+02  0.51100000000E-03 0. -1.
         11   -1    0    0    0    0 -0.00000000000E+00 -0.00000000000E+00 -0.45593999997E+02  0.45594000000E+02  0.51100000000E-03 0.  1.
    9900012    2    1    2    0    0 -0.18163690058E+02  0.36284812457E+02 -0.25803041583E+01  0.50528865466E+02  0.30000017069E+02 0.  0.
         12    1    1    2    0    0  0.18163690058E+02 -0.36284812457E+02  0.25803041583E+01  0.40659134534E+02  0.00000000000E+00 0. -1.
         11    1    3    3    0    0 -0.35733859239E+01  0.98517152063E+01 -0.74862601730E+01  0.12879032227E+02  0.51100000000E-03 0.  1.
        -11    1    3    3    0    0 -0.12934119102E+02  0.24109616124E+01  0.46876424879E+00  0.13165254005E+02  0.51100000000E-03 0. -1.
         12    1    3    3    0    0 -0.16561850322E+01  0.24022135638E+02  0.44371917659E+01  0.24484579234E+02  0.00000000000E+00 0. -1.
</event>
<event>
 7    1  0.2755991E-011  0.5052885E+02  0.7816164E-02  0.1300439E+00
        -11   -1    0    0    0    0  0.00000000000E+00  0.00000000000E+00  0.45593999997E+02  0.45594000000E+02  0.51100000000E-03 0.  1.
         11   -1    0    0    0    0 -0.00000000000E+00 -0.00000000000E+00 -0.45593999997E+02  0.45594000000E+02  0.51100000000E-03 0. -1.
    9900012    2    1    2    0    0  0.80515026027E+01 -0.23148917279E+02  0.32441757600E+02  0.50528847260E+02  0.29999961731E+02 0.  0.
         12    1    1    2    0    0 -0.80515026027E+01  0.23148917279E+02 -0.32441757600E+02  0.40659152740E+02  0.00000000000E+00 0. -1.
         11    1    3    3    0    0 -0.20952146570E+01  0.35729681398E+01  0.70161887810E+01  0.81475720959E+01  0.51100000000E-03 0. -1.
        -11    1    3    3    0    0  0.62963874887E+01  0.54630764117E+00  0.56541902793E+01  0.84801424176E+01  0.51100000000E-03 0.  1.
        -12    1    3    3    0    0  0.38503297709E+01 -0.27268193060E+02  0.19771378540E+02  0.33901132746E+02  0.00000000000E+00 0.  1.
</event>
<event>
 7    1  0.2755991E-011  0.5052886E+02  0.7816164E-02  0.1300439E+00
        -11   -1    0    0    0    0  0.00000000000E+00  0.00000000000E+00  0.45593999997E+02  0.45594000000E+02  0.51100000000E-03 0.  1.
         11   -1    0    0    0    0 -0.00000000000E+00 -0.00000000000E+00 -0.45593999997E+02  0.45594000000E+02  0.51100000000E-03 0. -1.
    9900012    2    1    2    0    0 -0.38530375819E+02  0.16666907595E+01 -0.12876252851E+02  0.50528860728E+02  0.30000002670E+02 0.  0.
         12    1    1    2    0    0  0.38530375819E+02 -0.16666907595E+01  0.12876252851E+02  0.40659139272E+02  0.00000000000E+00 0. -1.
         11    1    3    3    0    0 -0.34674990076E+00 -0.30281881983E+00  0.49769341903E+01  0.49981805617E+01  0.51100000000E-03 0. -1.
        -11    1    3    3    0    0 -0.55797486034E+01 -0.11474663802E+01  0.32594557752E+01  0.65631033652E+01  0.51100000000E-03 0.  1.
         12    1    3    3    0    0 -0.32603877314E+02  0.31169759595E+01 -0.21112642817E+02  0.38967576802E+02  0.00000000000E+00 0. -1.
</event>
<event>
 7    1  0.2755991E-011  0.5052887E+02  0.7816164E-02  0.1300439E+00
        -11   -1    0    0    0    0  0.00000000000E+00  0.00000000000E+00  0.45593999997E+02  0.45594000000E+02  0.51100000000E-03 0.  1.
         11   -1    0    0    0    0 -0.00000000000E+00 -0.00000000000E+00 -0.45593999997E+02  0.45594000000E+02  0.51100000000E-03 0. -1.
    9900012    2    1    2    0    0  0.23122327630E+02 -0.23247638497E+02  0.24043094886E+02  0.50528866433E+02  0.30000020009E+02 0.  0.
         12    1    1    2    0    0 -0.23122327630E+02  0.23247638497E+02 -0.24043094886E+02  0.40659133567E+02  0.00000000000E+00 0. -1.
         11    1    3    3    0    0 -0.67747259930E+01 -0.24127373806E+01  0.24581031171E+01  0.76000319173E+01  0.51100000000E-03 0. -1.
        -11    1    3    3    0    0  0.82588012103E+00 -0.13919709220E+01 -0.33600443497E+00  0.16530457536E+01  0.51100000000E-03 0.  1.
        -12    1    3    3    0    0  0.29071173502E+02 -0.19442930195E+02  0.21920996204E+02  0.41275788762E+02  0.00000000000E+00 0.  1.
</event>
<event>
 7    1  0.2755991E-011  0.5052886E+02  0.7816164E-02  0.1300439E+00
        -11   -1    0    0    0    0  0.00000000000E+00  0.00000000000E+00  0.45593999997E+02  0.45594000000E+02  0.51100000000E-03 0.  1.
         11   -1    0    0    0    0 -0.00000000000E+00 -0.00000000000E+00 -0.45593999997E+02  0.45594000000E+02  0.51100000000E-03 0. -1.
    9900012    2    1    2    0    0  0.29110698872E+02  0.15993215218E+02  0.23451010361E+02  0.50528860698E+02  0.30000002577E+02 0.  0.
         12    1    1    2    0    0 -0.29110698872E+02 -0.15993215218E+02 -0.23451010361E+02  0.40659139302E+02  0.00000000000E+00 0. -1.
         11    1    3    3    0    0  0.14279813233E+02  0.13488908680E+02  0.34135734532E+01  0.19937808488E+02  0.51100000000E-03 0. -1.
        -11    1    3    3    0    0  0.14583522710E+02  0.36927963699E+01  0.55224613771E+01  0.16025400451E+02  0.51100000000E-03 0.  1.
        -12    1    3    3    0    0  0.24736292865E+00 -0.11884898319E+01  0.14514975531E+02  0.14565651759E+02  0.00000000000E+00 0.  1.
</event>
<event>
 7    1  0.2755991E-011  0.5052885E+02  0.7816164E-02  0.1300439E+00
        -11   -1    0    0    0    0  0.00000000000E+00  0.00000000000E+00  0.45593999997E+02  0.45594000000E+02  0.51100000000E-03 0.  1.
         11   -1    0    0    0    0 -0.00000000000E+00 -0.00000000000E+00 -0.45593999997E+02  0.45594000000E+02  0.51100000000E-03 0. -1.
    9900012    2    1    2    0    0  0.26605613638E+02 -0.12689005615E+02  0.28005298603E+02  0.50528852316E+02  0.29999977099E+02 0.  0.
         12    1    1    2    0    0 -0.26605613638E+02  0.12689005615E+02 -0.28005298603E+02  0.40659147684E+02  0.00000000000E+00 0. -1.
         11    1    3    3    0    0 -0.27973974732E+01  0.12150492234E+01  0.20223558561E+01  0.36594672711E+01  0.51100000000E-03 0. -1.
        -11    1    3    3    0    0  0.46130960658E+01  0.41164898885E+01  0.11311631725E+02  0.12891049486E+02  0.51100000000E-03 0.  1.
         12    1    3    3    0    0  0.24789915045E+02 -0.18020544727E+02  0.14671311022E+02  0.33978335558E+02  0.00000000000E+00 0. -1.
</event>
<event>
 7    1  0.2755991E-011  0.5052886E+02  0.7816164E-02  0.1300439E+00
        -11   -1    0    0    0    0  0.00000000000E+00  0.00000000000E+00  0.45593999997E+02  0.45594000000E+02  0.51100000000E-03 0. -1.
         11   -1    0    0    0    0 -0.00000000000E+00 -0.00000000000E+00 -0.45593999997E+02  0.45594000000E+02  0.51100000000E-03 0.  1.
    9900012    2    1    2    0    0 -0.36411979364E+02 -0.10810910945E+02 -0.14507167140E+02  0.50528856685E+02  0.29999990380E+02 0.  0.
         12    1    1    2    0    0  0.36411979364E+02  0.10810910945E+02  0.14507167140E+02  0.40659143315E+02  0.00000000000E+00 0. -1.
         11    1    3    3    0    0 -0.29371801515E+02 -0.66543389939E+01 -0.53217334320E+01  0.30582736939E+02  0.51100000000E-03 0. -1.
        -11    1    3    3    0    0 -0.37042056415E+01  0.18169249829E+01 -0.11892737185E+02  0.12588071887E+02  0.51100000000E-03 0.  1.
         12    1    3    3    0    0 -0.33359722078E+01 -0.59734969336E+01  0.27073034763E+01  0.73580478593E+01  0.00000000000E+00 0. -1.
</event>
<event>
 7    1  0.2755991E-011  0.5052882E+02  0.7816164E-02  0.1300439E+00
        -11   -1    0    0    0    0  0.00000000000E+00  0.00000000000E+00  0.45593999997E+02  0.45594000000E+02  0.51100000000E-03 0. -1.
         11   -1    0    0    0    0 -0.00000000000E+00 -0.00000000000E+00 -0.45593999997E+02  0.45594000000E+02  0.51100000000E-03 0.  1.
    9900012    2    1    2    0    0  0.40597307332E+02  0.92689915570E+00 -0.20417604884E+01  0.50528815423E+02  0.29999864958E+02 0.  0.
         12    1    1    2    0    0 -0.40597307332E+02 -0.92689915570E+00  0.20417604884E+01  0.40659184577E+02  0.00000000000E+00 0. -1.
         11    1    3    3    0    0  0.68721665104E+01 -0.32379457878E-01 -0.82909203723E+01  0.10768801319E+02  0.51100000000E-03 0.  1.
        -11    1    3    3    0    0 -0.38934431706E+00 -0.46053230101E+01 -0.67482656620E-01  0.46222443893E+01  0.51100000000E-03 0. -1.
        -12    1    3    3    0    0  0.34114485138E+02  0.55646016237E+01  0.63166425406E+01  0.35137769714E+02  0.00000000000E+00 0.  1.
</event>
<event>
 7    1  0.2755991E-011  0.5052887E+02  0.7816164E-02  0.1300439E+00
        -11   -1    0    0    0    0  0.00000000000E+00  0.00000000000E+00  0.45593999997E+02  0.45594000000E+02  0.51100000000E-03 0.  1.
         11   -1    0    0    0    0 -0.00000000000E+00 -0.00000000000E+00 -0.45593999997E+02  0.45594000000E+02  0.51100000000E-03 0. -1.
    9900012    2    1    2    0    0 -0.35018058665E+02  0.43875465746E+01  0.20190345455E+02  0.50528867604E+02  0.30000023568E+02 0.  0.
         12    1    1    2    0    0  0.35018058665E+02 -0.43875465746E+01 -0.20190345455E+02  0.40659132396E+02  0.00000000000E+00 0. -1.
         11    1    3    3    0    0 -0.10934289224E+02  0.72991095541E+01  0.15272115327E+01  0.13235106967E+02  0.51100000000E-03 0. -1.
        -11    1    3    3    0    0 -0.16999036867E+02  0.78043913644E+01  0.14881172404E+02  0.23902407229E+02  0.51100000000E-03 0.  1.
         12    1    3    3    0    0 -0.70847325745E+01 -0.10715954344E+02  0.37819615191E+01  0.13391353408E+02  0.00000000000E+00 0. -1.
</event>
<event>
 7    1  0.2755991E-011  0.5052884E+02  0.7816164E-02  0.1300439E+00
        -11   -1    0    0    0    0  0.00000000000E+00  0.00000000000E+00  0.45593999997E+02  0.45594000000E+02  0.51100000000E-03 0. -1.
         11   -1    0    0    0    0 -0.00000000000E+00 -0.00000000000E+00 -0.45593999997E+02  0.45594000000E+02  0.51100000000E-03 0.  1.
    9900012    2    1    2    0    0  0.10454028202E+02  0.22372770999E+02 -0.32300766844E+02  0.50528842033E+02  0.29999945844E+02 0.  0.
         12    1    1    2    0    0 -0.10454028202E+02 -0.22372770999E+02  0.32300766844E+02  0.40659157967E+02  0.00000000000E+00 0. -1.
         11    1    3    3    0    0  0.47596778859E+01  0.49755162027E+01 -0.23128828977E+02  0.24131991736E+02  0.51100000000E-03 0. -1.
        -11    1    3    3    0    0  0.40815297135E+01  0.11870900344E+02 -0.14057372917E+02  0.18846402664E+02  0.51100000000E-03 0.  1.
         12    1    3    3    0    0  0.16128206026E+01  0.55263544521E+01  0.48854350499E+01  0.75504476327E+01  0.00000000000E+00 0. -1.
</event>
<event>
 7    1  0.2755991E-011  0.5052885E+02  0.7816164E-02  0.1300439E+00
        -11   -1    0    0    0    0  0.00000000000E+00  0.00000000000E+00  0.45593999997E+02  0.45594000000E+02  0.51100000000E-03 0.  1.
         11   -1    0    0    0    0 -0.00000000000E+00 -0.00000000000E+00 -0.45593999997E+02  0.45594000000E+02  0.51100000000E-03 0. -1.
    9900012    2    1    2    0    0 -0.19675032556E+02  0.10391476166E+00  0.35581575326E+02  0.50528853341E+02  0.29999980216E+02 0.  0.
         12    1    1    2    0    0  0.19675032556E+02 -0.10391476166E+00 -0.35581575326E+02  0.40659146659E+02  0.00000000000E+00 0. -1.
         11    1    3    3    0    0 -0.48583180773E+00  0.32687842535E+01  0.55567287762E+01  0.64651541355E+01  0.51100000000E-03 0. -1.
        -11    1    3    3    0    0  0.25236381775E+01 -0.26158376184E+01  0.19667944094E+02  0.20000984507E+02  0.51100000000E-03 0.  1.
        -12    1    3    3    0    0 -0.21712838925E+02 -0.54903187345E+00  0.10356902456E+02  0.24062714699E+02  0.00000000000E+00 0.  1.
</event>
<event>
 7    1  0.2755991E-011  0.5052882E+02  0.7816164E-02  0.1300439E+00
        -11   -1    0    0    0    0  0.00000000000E+00  0.00000000000E+00  0.45593999997E+02  0.45594000000E+02  0.51100000000E-03 0.  1.
         11   -1    0    0    0    0 -0.00000000000E+00 -0.00000000000E+00 -0.45593999997E+02  0.45594000000E+02  0.51100000000E-03 0. -1.
    9900012    2    1    2    0    0 -0.41033507360E+01  0.16359479439E+02  0.36995924922E+02  0.50528824951E+02  0.29999893922E+02 0.  0.
         12    1    1    2    0    0  0.41033507360E+01 -0.16359479439E+02 -0.36995924922E+02  0.40659175049E+02  0.00000000000E+00 0. -1.
         11    1    3    3    0    0 -0.40584704235E+01  0.59682659842E+01  0.14614549854E+02  0.16299584312E+02  0.51100000000E-03 0.  1.
        -11    1    3    3    0    0  0.66137616669E+01  0.84453108857E+01  0.24688781568E+02  0.26918414792E+02  0.51100000000E-03 0. -1.
         12    1    3    3    0    0 -0.66586419794E+01  0.19459025691E+01 -0.23074065000E+01  0.73108258476E+01  0.00000000000E+00 0. -1.
</event>
<event>
 7    1  0.2755991E-011  0.5052886E+02  0.7816164E-02  0.1300439E+00
        -11   -1    0    0    0    0  0.00000000000E+00  0.00000000000E+00  0.45593999997E+02  0.45594000000E+02  0.51100000000E-03 0. -1.
         11   -1    0    0    0    0 -0.00000000000E+00 -0.00000000000E+00 -0.45593999997E+02  0.45594000000E+02  0.51100000000E-03 0.  1.
    9900012    2    1    2    0    0 -0.33999195295E+02 -0.14071454802E+02 -0.17297829274E+02  0.50528855659E+02  0.29999987260E+02 0.  0.
         12    1    1    2    0    0  0.33999195295E+02  0.14071454802E+02  0.17297829274E+02  0.40659144341E+02  0.00000000000E+00 0. -1.
         11    1    3    3    0    0 -0.15574129352E+02 -0.85931578572E+01 -0.10129621875E+02  0.20469614227E+02  0.51100000000E-03 0.  1.
        -11    1    3    3    0    0 -0.17357261117E+02 -0.12549801471E+02 -0.26074505371E+01  0.21577090374E+02  0.51100000000E-03 0. -1.
         12    1    3    3    0    0 -0.10678048269E+01  0.70715045258E+01 -0.45607568619E+01  0.84821510573E+01  0.00000000000E+00 0. -1.
</event>
<event>
 7    1  0.2755991E-011  0.5052886E+02  0.7816164E-02  0.1300439E+00
        -11   -1    0    0    0    0  0.00000000000E+00  0.00000000000E+00  0.45593999997E+02  0.45594000000E+02  0.51100000000E-03 0. -1.
         11   -1    0    0    0    0 -0.00000000000E+00 -0.00000000000E+00 -0.45593999997E+02  0.45594000000E+02  0.51100000000E-03 0.  1.
    9900012    2    1    2    0    0 -0.34889533695E+02  0.20302715035E+02 -0.48668514377E+01  0.50528855369E+02  0.29999986378E+02 0.  0.
         12    1    1    2    0    0  0.34889533695E+02 -0.20302715035E+02  0.48668514377E+01  0.40659144631E+02  0.00000000000E+00 0. -1.
         11    1    3    3    0    0 -0.55906411960E+01  0.50527965002E+01 -0.28664681152E+01  0.80624227855E+01  0.51100000000E-03 0. -1.
        -11    1    3    3    0    0 -0.13251290163E+02  0.21448904809E+02 -0.14704657073E+01  0.25254989173E+02  0.51100000000E-03 0.  1.
        -12    1    3    3    0    0 -0.16047602336E+02 -0.61989862744E+01 -0.52991761521E+00  0.17211443410E+02  0.00000000000E+00 0.  1.
</event>
<event>
 7    1  0.2755991E-011  0.5052886E+02  0.7816164E-02  0.1300439E+00
        -11   -1    0    0    0    0  0.00000000000E+00  0.00000000000E+00  0.45593999997E+02  0.45594000000E+02  0.51100000000E-03 0.  1.
         11   -1    0    0    0    0 -0.00000000000E+00 -0.00000000000E+00 -0.45593999997E+02  0.45594000000E+02  0.51100000000E-03 0. -1.
    9900012    2    1    2    0    0 -0.13922141298E+02  0.66998020348E+01  0.37609204828E+02  0.50528860149E+02  0.30000000908E+02 0.  0.
         12    1    1    2    0    0  0.13922141298E+02 -0.66998020348E+01 -0.37609204828E+02  0.40659139851E+02  0.00000000000E+00 0. -1.
         11    1    3    3    0    0  0.70041254554E+01  0.31062164090E+01  0.16064344684E+02  0.17798020232E+02  0.51100000000E-03 0. -1.
        -11    1    3    3    0    0 -0.50358631662E+01  0.26831765456E+01 -0.28665331676E+00  0.57132761695E+01  0.51100000000E-03 0.  1.
        -12    1    3    3    0    0 -0.15890403587E+02  0.91040908018E+00  0.21831513461E+02  0.27017563747E+02  0.00000000000E+00 0.  1.
</event>
<event>
 7    1  0.2755991E-011  0.5052886E+02  0.7816164E-02  0.1300439E+00
        -11   -1    0    0    0    0  0.00000000000E+00  0.00000000000E+00  0.45593999997E+02  0.45594000000E+02  0.51100000000E-03 0. -1.
         11   -1    0    0    0    0 -0.00000000000E+00 -0.00000000000E+00 -0.45593999997E+02  0.45594000000E+02  0.51100000000E-03 0.  1.
    9900012    2    1    2    0    0 -0.23960637425E+02  0.21662285363E+02 -0.24694107496E+02  0.50528859601E+02  0.29999999243E+02 0.  0.
         12    1    1    2    0    0  0.23960637425E+02 -0.21662285363E+02  0.24694107496E+02  0.40659140399E+02  0.00000000000E+00 0. -1.
         11    1    3    3    0    0 -0.13489801037E+02  0.34501930838E+00  0.17955610967E+01  0.13613148433E+02  0.51100000000E-03 0. -1.
        -11    1    3    3    0    0 -0.35016626166E+01  0.13068409406E+01 -0.12065614996E+01  0.39275011442E+01  0.51100000000E-03 0.  1.
        -12    1    3    3    0    0 -0.69691737719E+01  0.20010425114E+02 -0.25283107093E+02  0.32988210024E+02  0.00000000000E+00 0.  1.
</event>
<event>
 7    1  0.2755991E-011  0.5052885E+02  0.7816164E-02  0.1300439E+00
        -11   -1    0    0    0    0  0.00000000000E+00  0.00000000000E+00  0.45593999997E+02  0.45594000000E+02  0.51100000000E-03 0.  1.
         11   -1    0    0    0    0 -0.00000000000E+00 -0.00000000000E+00 -0.45593999997E+02  0.45594000000E+02  0.51100000000E-03 0. -1.
    9900012    2    1    2    0    0  0.37915993858E+02 -0.97469763120E+01  0.10979092763E+02  0.50528848320E+02  0.29999964952E+02 0.  0.
         12    1    1    2    0    0 -0.37915993858E+02  0.97469763120E+01 -0.10979092763E+02  0.40659151680E+02  0.00000000000E+00 0. -1.
         11    1    3    3    0    0  0.15702140381E+02 -0.39881275340E+01  0.34581159695E+01  0.16565655438E+02  0.51100000000E-03 0. -1.
        -11    1    3    3    0    0  0.17682213932E+02 -0.13427241212E+02  0.10514444779E+02  0.24566339682E+02  0.51100000000E-03 0.  1.
         12    1    3    3    0    0  0.45316395451E+01  0.76683924336E+01 -0.29934679853E+01  0.93968532000E+01  0.00000000000E+00 0. -1.
</event>
<event>
 7    1  0.2755991E-011  0.5052886E+02  0.7816164E-02  0.1300439E+00
        -11   -1    0    0    0    0  0.00000000000E+00  0.00000000000E+00  0.45593999997E+02  0.45594000000E+02  0.51100000000E-03 0.  1.
         11   -1    0    0    0    0 -0.00000000000E+00 -0.00000000000E+00 -0.45593999997E+02  0.45594000000E+02  0.51100000000E-03 0. -1.
    9900012    2    1    2    0    0  0.33696887741E+02 -0.22056186453E+02  0.55866009225E+01  0.50528859402E+02  0.29999998638E+02 0.  0.
         12    1    1    2    0    0 -0.33696887741E+02  0.22056186453E+02 -0.55866009225E+01  0.40659140598E+02  0.00000000000E+00 0. -1.
         11    1    3    3    0    0 -0.11462611281E+01 -0.21870370864E+00  0.38747326464E+01  0.40466404866E+01  0.51100000000E-03 0. -1.
        -11    1    3    3    0    0  0.59270743472E+01 -0.50842204093E+01  0.93698692306E+01  0.12197293025E+02  0.51100000000E-03 0.  1.
        -12    1    3    3    0    0  0.28916074522E+02 -0.16753262335E+02 -0.76580009545E+01  0.34284925890E+02  0.00000000000E+00 0.  1.
</event>
<event>
 7    1  0.2755991E-011  0.5052884E+02  0.7816164E-02  0.1300439E+00
        -11   -1    0    0    0    0  0.00000000000E+00  0.00000000000E+00  0.45593999997E+02  0.45594000000E+02  0.51100000000E-03 0.  1.
         11   -1    0    0    0    0 -0.00000000000E+00 -0.00000000000E+00 -0.45593999997E+02  0.45594000000E+02  0.51100000000E-03 0. -1.
    9900012    2    1    2    0    0 -0.36104127451E+02  0.12171763611E+02  0.14195341391E+02  0.50528836635E+02  0.29999929434E+02 0.  0.
         12    1    1    2    0    0  0.36104127451E+02 -0.12171763611E+02 -0.14195341391E+02  0.40659163365E+02  0.00000000000E+00 0. -1.
         11    1    3    3    0    0 -0.19272846385E+02  0.78274220942E+01  0.62013412803E+01  0.21706399479E+02  0.51100000000E-03 0. -1.
        -11    1    3    3    0    0 -0.21536569587E+02  0.24268467505E+01  0.33334852320E+01  0.21927734466E+02  0.51100000000E-03 0.  1.
         12    1    3    3    0    0  0.47052885214E+01  0.19174947668E+01  0.46605148786E+01  0.68947026900E+01  0.00000000000E+00 0. -1.
</event>
<event>
 7    1  0.2755991E-011  0.5052885E+02  0.7816164E-02  0.1300439E+00
        -11   -1    0    0    0    0  0.00000000000E+00  0.00000000000E+00  0.45593999997E+02  0.45594000000E+02  0.51100000000E-03 0.  1.
         11   -1    0    0    0    0 -0.00000000000E+00 -0.00000000000E+00 -0.45593999997E+02  0.45594000000E+02  0.51100000000E-03 0. -1.
    9900012    2    1    2    0    0 -0.10975118031E+02 -0.26684664868E+02  0.28646843250E+02  0.50528853636E+02  0.29999981112E+02 0.  0.
         12    1    1    2    0    0  0.10975118031E+02  0.26684664868E+02 -0.28646843250E+02  0.40659146364E+02  0.00000000000E+00 0. -1.
         11    1    3    3    0    0  0.57901695789E+00  0.91549905738E+00 -0.51849913752E-01  0.10844758348E+01  0.51100000000E-03 0. -1.
        -11    1    3    3    0    0  0.46553856557E+01 -0.55363364496E+01 -0.27585265593E+01  0.77416474943E+01  0.51100000000E-03 0.  1.
        -12    1    3    3    0    0 -0.16209520644E+02 -0.22063827475E+02  0.31457219723E+02  0.41702730307E+02  0.00000000000E+00 0.  1.
</event>
<event>
 7    1  0.2755991E-011  0.5052886E+02  0.7816164E-02  0.1300439E+00
        -11   -1    0    0    0    0  0.00000000000E+00  0.00000000000E+00  0.45593999997E+02  0.45594000000E+02  0.51100000000E-03 0. -1.
         11   -1    0    0    0    0 -0.00000000000E+00 -0.00000000000E+00 -0.45593999997E+02  0.45594000000E+02  0.51100000000E-03 0.  1.
    9900012    2    1    2    0    0  0.18851683716E+02  0.34263364518E+02  0.11126611968E+02  0.50528860549E+02  0.30000002124E+02 0.  0.
         12    1    1    2    0    0 -0.18851683716E+02 -0.34263364518E+02 -0.11126611968E+02  0.40659139451E+02  0.00000000000E+00 0. -1.
         11    1    3    3    0    0  0.46805207020E+01  0.78347120971E+01 -0.32813802887E+01  0.96983217387E+01  0.51100000000E-03 0. -1.
        -11    1    3    3    0    0  0.16751698549E+02  0.29661794716E+02  0.12717465922E+02  0.36361730016E+02  0.51100000000E-03 0.  1.
         12    1    3    3    0    0 -0.25805355348E+01 -0.32331422952E+01  0.16905263355E+01  0.44688087941E+01  0.00000000000E+00 0. -1.
</event>
<event>
 7    1  0.2755991E-011  0.5052883E+02  0.7816164E-02  0.1300439E+00
        -11   -1    0    0    0    0  0.00000000000E+00  0.00000000000E+00  0.45593999997E+02  0.45594000000E+02  0.51100000000E-03 0.  1.
         11   -1    0    0    0    0 -0.00000000000E+00 -0.00000000000E+00 -0.45593999997E+02  0.45594000000E+02  0.51100000000E-03 0. -1.
    9900012    2    1    2    0    0  0.36491723420E+00 -0.40545660256E+02  0.30140261326E+01  0.50528830263E+02  0.29999910068E+02 0.  0.
         12    1    1    2    0    0 -0.36491723420E+00  0.40545660256E+02 -0.30140261326E+01  0.40659169737E+02  0.00000000000E+00 0. -1.
         11    1    3    3    0    0  0.13508644487E+01 -0.24054661896E+02 -0.79247059469E+01  0.25362424141E+02  0.51100000000E-03 0. -1.
        -11    1    3    3    0    0 -0.80750181406E+01 -0.64128191365E+01  0.43253301430E+01  0.11182068161E+02  0.51100000000E-03 0.  1.
        -12    1    3    3    0    0  0.70890709261E+01 -0.10078179223E+02  0.66134019365E+01  0.13984337961E+02  0.00000000000E+00 0.  1.
</event>
<event>
 7    1  0.2755991E-011  0.5052886E+02  0.7816164E-02  0.1300439E+00
        -11   -1    0    0    0    0  0.00000000000E+00  0.00000000000E+00  0.45593999997E+02  0.45594000000E+02  0.51100000000E-03 0.  1.
         11   -1    0    0    0    0 -0.00000000000E+00 -0.00000000000E+00 -0.45593999997E+02  0.45594000000E+02  0.51100000000E-03 0. -1.
    9900012    2    1    2    0    0 -0.38175104064E+01 -0.27258363634E+02  0.29926136845E+02  0.50528862772E+02  0.30000008881E+02 0.  0.
         12    1    1    2    0    0  0.38175104064E+01  0.27258363634E+02 -0.29926136845E+02  0.40659137228E+02  0.00000000000E+00 0. -1.
         11    1    3    3    0    0 -0.60918056269E+01 -0.31055755995E+02  0.25919719686E+02  0.40907235852E+02  0.51100000000E-03 0.  1.
        -11    1    3    3    0    0  0.25706050944E+01 -0.33479683267E+00 -0.12915257596E+01  0.28962283265E+01  0.51100000000E-03 0. -1.
        -12    1    3    3    0    0 -0.29630987385E+00  0.41321891937E+01  0.52979429179E+01  0.67253985930E+01  0.00000000000E+00 0.  1.
</event>
<event>
 7    1  0.2755991E-011  0.5052887E+02  0.7816164E-02  0.1300439E+00
        -11   -1    0    0    0    0  0.00000000000E+00  0.00000000000E+00  0.45593999997E+02  0.45594000000E+02  0.51100000000E-03 0.  1.
         11   -1    0    0    0    0 -0.00000000000E+00 -0.00000000000E+00 -0.45593999997E+02  0.45594000000E+02  0.51100000000E-03 0. -1.
    9900012    2    1    2    0    0  0.15500848805E+02  0.20029634638E+02  0.31807271771E+02  0.50528866771E+02  0.30000021038E+02 0.  0.
         12    1    1    2    0    0 -0.15500848805E+02 -0.20029634638E+02 -0.31807271771E+02  0.40659133229E+02  0.00000000000E+00 0. -1.
         11    1    3    3    0    0  0.75299269037E+01  0.74932651622E+01  0.85277264018E+01  0.13622442505E+02  0.51100000000E-03 0. -1.
        -11    1    3    3    0    0  0.12979239737E+02  0.10138434373E+02  0.25957589405E+02  0.30741583623E+02  0.51100000000E-03 0.  1.
         12    1    3    3    0    0 -0.50083178352E+01  0.23979351025E+01 -0.26780440357E+01  0.61648406428E+01  0.00000000000E+00 0. -1.
</event>
<event>
 7    1  0.2755991E-011  0.5052890E+02  0.7816164E-02  0.1300439E+00
        -11   -1    0    0    0    0  0.00000000000E+00  0.00000000000E+00  0.45593999997E+02  0.45594000000E+02  0.51100000000E-03 0.  1.
         11   -1    0    0    0    0 -0.00000000000E+00 -0.00000000000E+00 -0.45593999997E+02  0.45594000000E+02  0.51100000000E-03 0. -1.
    9900012    2    1    2    0    0  0.31918908716E+02  0.10600933499E+02  0.22846578276E+02  0.50528896916E+02  0.30000112667E+02 0.  0.
         12    1    1    2    0    0 -0.31918908716E+02 -0.10600933499E+02 -0.22846578276E+02  0.40659103084E+02  0.00000000000E+00 0. -1.
         11    1    3    3    0    0  0.41134816704E+01  0.70514556233E+01  0.11982834325E+02  0.14499381938E+02  0.51100000000E-03 0. -1.
        -11    1    3    3    0    0  0.20697941414E+02 -0.34403673831E+01  0.14404670266E+02  0.25450646991E+02  0.51100000000E-03 0.  1.
         12    1    3    3    0    0  0.71074856313E+01  0.69898452588E+01 -0.35409263151E+01  0.10578867988E+02  0.00000000000E+00 0. -1.
</event>
<event>
 7    1  0.2755991E-011  0.5052885E+02  0.7816164E-02  0.1300439E+00
        -11   -1    0    0    0    0  0.00000000000E+00  0.00000000000E+00  0.45593999997E+02  0.45594000000E+02  0.51100000000E-03 0. -1.
         11   -1    0    0    0    0 -0.00000000000E+00 -0.00000000000E+00 -0.45593999997E+02  0.45594000000E+02  0.51100000000E-03 0.  1.
    9900012    2    1    2    0    0  0.26217205942E+02  0.35171843621E+01 -0.30878044235E+02  0.50528854793E+02  0.29999984628E+02 0.  0.
         12    1    1    2    0    0 -0.26217205942E+02 -0.35171843621E+01  0.30878044235E+02  0.40659145207E+02  0.00000000000E+00 0. -1.
         11    1    3    3    0    0 -0.10570783306E+01 -0.56222551578E+01 -0.89383847161E+01  0.10612346077E+02  0.51100000000E-03 0. -1.
        -11    1    3    3    0    0  0.60889944102E+00  0.33268207226E+01 -0.91921926384E+01  0.97946363083E+01  0.51100000000E-03 0.  1.
        -12    1    3    3    0    0  0.26665384831E+02  0.58126187972E+01 -0.12747466880E+02  0.30121872408E+02  0.00000000000E+00 0.  1.
</event>
<event>
 7    1  0.2755991E-011  0.5052886E+02  0.7816164E-02  0.1300439E+00
        -11   -1    0    0    0    0  0.00000000000E+00  0.00000000000E+00  0.45593999997E+02  0.45594000000E+02  0.51100000000E-03 0.  1.
         11   -1    0    0    0    0 -0.00000000000E+00 -0.00000000000E+00 -0.45593999997E+02  0.45594000000E+02  0.51100000000E-03 0. -1.
    9900012    2    1    2    0    0 -0.40273497774E+01  0.36100145874E+02  0.18268152720E+02  0.50528862256E+02  0.30000007312E+02 0.  0.
         12    1    1    2    0    0  0.40273497774E+01 -0.36100145874E+02 -0.18268152720E+02  0.40659137744E+02  0.00000000000E+00 0. -1.
         11    1    3    3    0    0 -0.12516314594E+02  0.12355028311E+02  0.14674789931E+01  0.17648182639E+02  0.51100000000E-03 0. -1.
        -11    1    3    3    0    0 -0.30189549236E+01  0.68126381834E+01  0.23207662205E+01  0.78046193988E+01  0.51100000000E-03 0.  1.
        -12    1    3    3    0    0  0.11507919741E+02  0.16932479379E+02  0.14479907506E+02  0.25076060218E+02  0.00000000000E+00 0.  1.
</event>
<event>
 7    1  0.2755991E-011  0.5052886E+02  0.7816164E-02  0.1300439E+00
        -11   -1    0    0    0    0  0.00000000000E+00  0.00000000000E+00  0.45593999997E+02  0.45594000000E+02  0.51100000000E-03 0.  1.
         11   -1    0    0    0    0 -0.00000000000E+00 -0.00000000000E+00 -0.45593999997E+02  0.45594000000E+02  0.51100000000E-03 0. -1.
    9900012    2    1    2    0    0 -0.18755074040E+02 -0.23750366893E+02  0.27153871224E+02  0.50528862623E+02  0.30000008427E+02 0.  0.
         12    1    1    2    0    0  0.18755074040E+02  0.23750366893E+02 -0.27153871224E+02  0.40659137377E+02  0.00000000000E+00 0. -1.
         11    1    3    3    0    0 -0.31602888328E+01  0.17723597441E+00  0.84139999642E+01  0.89896737291E+01  0.51100000000E-03 0. -1.
        -11    1    3    3    0    0  0.53942374329E+01 -0.34613316247E+01 -0.57126593471E+00  0.64346685328E+01  0.51100000000E-03 0.  1.
        -12    1    3    3    0    0 -0.20989022640E+02 -0.20466271243E+02  0.19311137195E+02  0.35104520361E+02  0.00000000000E+00 0.  1.
</event>
<event>
 7    1  0.2755991E-011  0.5052886E+02  0.7816164E-02  0.1300439E+00
        -11   -1    0    0    0    0  0.00000000000E+00  0.00000000000E+00  0.45593999997E+02  0.45594000000E+02  0.51100000000E-03 0.  1.
         11   -1    0    0    0    0 -0.00000000000E+00 -0.00000000000E+00 -0.45593999997E+02  0.45594000000E+02  0.51100000000E-03 0. -1.
    9900012    2    1    2    0    0 -0.29527762863E+02  0.27759454688E+02  0.32694448940E+01  0.50528863583E+02  0.30000011346E+02 0.  0.
         12    1    1    2    0    0  0.29527762863E+02 -0.27759454688E+02 -0.32694448940E+01  0.40659136417E+02  0.00000000000E+00 0. -1.
         11    1    3    3    0    0  0.41968781661E+01  0.52783142373E-01 -0.16824385825E+01  0.45218549563E+01  0.51100000000E-03 0. -1.
        -11    1    3    3    0    0  0.55917719421E+00  0.33371420561E+01  0.17845654914E+01  0.38254242237E+01  0.51100000000E-03 0.  1.
         12    1    3    3    0    0 -0.34283818224E+02  0.24369529489E+02  0.31673179851E+01  0.42181584403E+02  0.00000000000E+00 0. -1.
</event>
<event>
 7    1 -0.4689787E-011  0.5052886E+02  0.7816164E-02  0.1300439E+00
        -11   -1    0    0    0    0  0.00000000000E+00  0.00000000000E+00  0.45593999997E+02  0.45594000000E+02  0.51100000000E-03 0.  1.
         11   -1    0    0    0    0 -0.00000000000E+00 -0.00000000000E+00 -0.45593999997E+02  0.45594000000E+02  0.51100000000E-03 0. -1.
    9900012    2    1    2    0    0  0.38081181692E+02  0.61228022602E+01  0.12864706991E+02  0.50528858438E+02  0.29999995708E+02 0.  0.
         12    1    1    2    0    0 -0.38081181692E+02 -0.61228022602E+01 -0.12864706991E+02  0.40659141562E+02  0.00000000000E+00 0. -1.
         11    1    3    3    0    0  0.26108706944E+02 -0.31563607419E+01 -0.34932775106E+01  0.26529797953E+02  0.51100000000E-03 0. -1.
        -11    1    3    3    0    0  0.67435637303E+01  0.52037215642E+00  0.35926308418E+01  0.76585531005E+01  0.51100000000E-03 0.  1.
         12    1    3    3    0    0  0.52289110181E+01  0.87587908456E+01  0.12765353660E+02  0.16340507385E+02  0.00000000000E+00 0. -1.
</event>
<event>
 7    1  0.2755991E-011  0.5052886E+02  0.7816164E-02  0.1300439E+00
        -11   -1    0    0    0    0  0.00000000000E+00  0.00000000000E+00  0.45593999997E+02  0.45594000000E+02  0.51100000000E-03 0. -1.
         11   -1    0    0    0    0 -0.00000000000E+00 -0.00000000000E+00 -0.45593999997E+02  0.45594000000E+02  0.51100000000E-03 0.  1.
    9900012    2    1    2    0    0 -0.11033542536E+01 -0.29205873430E+02 -0.28265975478E+02  0.50528858308E+02  0.29999995313E+02 0.  0.
         12    1    1    2    0    0  0.11033542536E+01  0.29205873430E+02  0.28265975478E+02  0.40659141692E+02  0.00000000000E+00 0. -1.
         11    1    3    3    0    0 -0.34749095176E+00 -0.41250289324E+01  0.47377394269E+01  0.62914854202E+01  0.51100000000E-03 0. -1.
        -11    1    3    3    0    0  0.16837395295E+01 -0.21813175239E+02 -0.16955644977E+02  0.27679297131E+02  0.51100000000E-03 0.  1.
         12    1    3    3    0    0 -0.24396028314E+01 -0.32676692582E+01 -0.16048069928E+02  0.16558075757E+02  0.00000000000E+00 0. -1.
</event>
<event>
 7    1  0.2755991E-011  0.5052886E+02  0.7816164E-02  0.1300439E+00
        -11   -1    0    0    0    0  0.00000000000E+00  0.00000000000E+00  0.45593999997E+02  0.45594000000E+02  0.51100000000E-03 0. -1.
         11   -1    0    0    0    0 -0.00000000000E+00 -0.00000000000E+00 -0.45593999997E+02  0.45594000000E+02  0.51100000000E-03 0.  1.
    9900012    2    1    2    0    0 -0.18596728349E+02  0.29439124882E+02 -0.20992021864E+02  0.50528863745E+02  0.30000011839E+02 0.  0.
         12    1    1    2    0    0  0.18596728349E+02 -0.29439124882E+02  0.20992021864E+02  0.40659136255E+02  0.00000000000E+00 0. -1.
         11    1    3    3    0    0 -0.92639768832E+01  0.97013391669E+01 -0.19250084062E+02  0.23462800045E+02  0.51100000000E-03 0. -1.
        -11    1    3    3    0    0 -0.64627854430E+01  0.21969680197E+02 -0.32500680279E+01  0.23130010508E+02  0.51100000000E-03 0.  1.
         12    1    3    3    0    0 -0.28699660225E+01 -0.22318944817E+01  0.15081302262E+01  0.39360531916E+01  0.00000000000E+00 0. -1.
</event>
<event>
 7    1  0.2755991E-011  0.5052883E+02  0.7816164E-02  0.1300439E+00
        -11   -1    0    0    0    0  0.00000000000E+00  0.00000000000E+00  0.45593999997E+02  0.45594000000E+02  0.51100000000E-03 0.  1.
         11   -1    0    0    0    0 -0.00000000000E+00 -0.00000000000E+00 -0.45593999997E+02  0.45594000000E+02  0.51100000000E-03 0. -1.
    9900012    2    1    2    0    0 -0.32015390690E+02 -0.16520708780E+02  0.18848048926E+02  0.50528831195E+02  0.29999912899E+02 0.  0.
         12    1    1    2    0    0  0.32015390690E+02  0.16520708780E+02 -0.18848048926E+02  0.40659168805E+02  0.00000000000E+00 0. -1.
         11    1    3    3    0    0 -0.68300727669E+01  0.12302059988E+00 -0.44864231998E+01  0.81726997655E+01  0.51100000000E-03 0.  1.
        -11    1    3    3    0    0  0.20507651613E+01  0.14419379641E+01  0.73824042039E+00  0.26133928175E+01  0.51100000000E-03 0. -1.
        -12    1    3    3    0    0 -0.27236083085E+02 -0.18085667344E+02  0.22596231705E+02  0.39742738612E+02  0.00000000000E+00 0.  1.
</event>
<event>
 7    1  0.2755991E-011  0.5052878E+02  0.7816164E-02  0.1300439E+00
        -11   -1    0    0    0    0  0.00000000000E+00  0.00000000000E+00  0.45593999997E+02  0.45594000000E+02  0.51100000000E-03 0.  1.
         11   -1    0    0    0    0 -0.00000000000E+00 -0.00000000000E+00 -0.45593999997E+02  0.45594000000E+02  0.51100000000E-03 0. -1.
    9900012    2    1    2    0    0  0.27968726456E+02 -0.24629296305E+02  0.16257937440E+02  0.50528776866E+02  0.29999747762E+02 0.  0.
         12    1    1    2    0    0 -0.27968726456E+02  0.24629296305E+02 -0.16257937440E+02  0.40659223134E+02  0.00000000000E+00 0. -1.
         11    1    3    3    0    0  0.10626224314E+02 -0.63171450414E+01 -0.39649663075E+01  0.12982446716E+02  0.51100000000E-03 0. -1.
        -11    1    3    3    0    0  0.40559207707E+01 -0.85733584907E+01 -0.21867720241E+01  0.97331876204E+01  0.51100000000E-03 0.  1.
        -12    1    3    3    0    0  0.13286581371E+02 -0.97387927725E+01  0.22409675772E+02  0.27813142530E+02  0.00000000000E+00 0.  1.
</event>
<event>
 7    1  0.2755991E-011  0.5052887E+02  0.7816164E-02  0.1300439E+00
        -11   -1    0    0    0    0  0.00000000000E+00  0.00000000000E+00  0.45593999997E+02  0.45594000000E+02  0.51100000000E-03 0.  1.
         11   -1    0    0    0    0 -0.00000000000E+00 -0.00000000000E+00 -0.45593999997E+02  0.45594000000E+02  0.51100000000E-03 0. -1.
    9900012    2    1    2    0    0 -0.56709492547E+00  0.16519675823E+02  0.37147590344E+02  0.50528871206E+02  0.30000034518E+02 0.  0.
         12    1    1    2    0    0  0.56709492547E+00 -0.16519675823E+02 -0.37147590344E+02  0.40659128794E+02  0.00000000000E+00 0. -1.
         11    1    3    3    0    0 -0.37296511051E+01 -0.49316153717E+00  0.13539950061E+02  0.14052891289E+02  0.51100000000E-03 0. -1.
        -11    1    3    3    0    0  0.84330636889E+00  0.92038943268E+00  0.19719301833E+02  0.19758773934E+02  0.51100000000E-03 0.  1.
        -12    1    3    3    0    0  0.23192498108E+01  0.16092447927E+02  0.38883384500E+01  0.16717205983E+02  0.00000000000E+00 0.  1.
</event>
<event>
 7    1  0.2755991E-011  0.5052886E+02  0.7816164E-02  0.1300439E+00
        -11   -1    0    0    0    0  0.00000000000E+00  0.00000000000E+00  0.45593999997E+02  0.45594000000E+02  0.51100000000E-03 0.  1.
         11   -1    0    0    0    0 -0.00000000000E+00 -0.00000000000E+00 -0.45593999997E+02  0.45594000000E+02  0.51100000000E-03 0. -1.
    9900012    2    1    2    0    0 -0.16734659375E+02 -0.26973009143E+02  0.25408145312E+02  0.50528857180E+02  0.29999991885E+02 0.  0.
         12    1    1    2    0    0  0.16734659375E+02  0.26973009143E+02 -0.25408145312E+02  0.40659142820E+02  0.00000000000E+00 0. -1.
         11    1    3    3    0    0 -0.28450249201E+01  0.29754525316E+01  0.23235031207E+01  0.47271716255E+01  0.51100000000E-03 0. -1.
        -11    1    3    3    0    0 -0.79454887889E+01 -0.45622398079E+01  0.16558816017E+02  0.18924566371E+02  0.51100000000E-03 0.  1.
        -12    1    3    3    0    0 -0.59441456660E+01 -0.25386221867E+02  0.65258261744E+01  0.26877119184E+02  0.00000000000E+00 0.  1.
</event>
<event>
 7    1  0.2755991E-011  0.5052881E+02  0.7816164E-02  0.1300439E+00
        -11   -1    0    0    0    0  0.00000000000E+00  0.00000000000E+00  0.45593999997E+02  0.45594000000E+02  0.51100000000E-03 0. -1.
         11   -1    0    0    0    0 -0.00000000000E+00 -0.00000000000E+00 -0.45593999997E+02  0.45594000000E+02  0.51100000000E-03 0.  1.
    9900012    2    1    2    0    0  0.12905960388E+02  0.79929012079E+00 -0.38548246990E+02  0.50528806400E+02  0.29999837533E+02 0.  0.
         12    1    1    2    0    0 -0.12905960388E+02 -0.79929012079E+00  0.38548246990E+02  0.40659193600E+02  0.00000000000E+00 0. -1.
         11    1    3    3    0    0  0.11465395527E+01 -0.96059239195E+01 -0.98764375808E+01  0.13825062273E+02  0.51100000000E-03 0. -1.
        -11    1    3    3    0    0 -0.13604320326E+01  0.79088362740E+01 -0.17646506968E+02  0.19385553254E+02  0.51100000000E-03 0.  1.
        -12    1    3    3    0    0  0.13119852867E+02  0.24963777663E+01 -0.11025302441E+02  0.17318190874E+02  0.00000000000E+00 0.  1.
</event>
<event>
 7    1  0.2755991E-011  0.5052886E+02  0.7816164E-02  0.1300439E+00
        -11   -1    0    0    0    0  0.00000000000E+00  0.00000000000E+00  0.45593999997E+02  0.45594000000E+02  0.51100000000E-03 0.  1.
         11   -1    0    0    0    0 -0.00000000000E+00 -0.00000000000E+00 -0.45593999997E+02  0.45594000000E+02  0.51100000000E-03 0. -1.
    9900012    2    1    2    0    0  0.73912220609E+01  0.38927662989E+01  0.39791730249E+02  0.50528860939E+02  0.30000003310E+02 0.  0.
         12    1    1    2    0    0 -0.73912220609E+01 -0.38927662989E+01 -0.39791730249E+02  0.40659139061E+02  0.00000000000E+00 0. -1.
         11    1    3    3    0    0 -0.38093111661E+01  0.44217477248E+01  0.11983825839E+02  0.13329470601E+02  0.51100000000E-03 0. -1.
        -11    1    3    3    0    0 -0.46599621071E+01  0.55997044294E+01  0.11668364185E+02  0.13755822751E+02  0.51100000000E-03 0.  1.
        -12    1    3    3    0    0  0.15860495334E+02 -0.61286858553E+01  0.16139540225E+02  0.23443567587E+02  0.00000000000E+00 0.  1.
</event>
<event>
 7    1  0.2755991E-011  0.5052886E+02  0.7816164E-02  0.1300439E+00
        -11   -1    0    0    0    0  0.00000000000E+00  0.00000000000E+00  0.45593999997E+02  0.45594000000E+02  0.51100000000E-03 0.  1.
         11   -1    0    0    0    0 -0.00000000000E+00 -0.00000000000E+00 -0.45593999997E+02  0.45594000000E+02  0.51100000000E-03 0. -1.
    9900012    2    1    2    0    0 -0.13600151457E+02 -0.35396451899E+02  0.14672860073E+02  0.50528858969E+02  0.29999997322E+02 0.  0.
         12    1    1    2    0    0  0.13600151457E+02  0.35396451899E+02 -0.14672860073E+02  0.40659141031E+02  0.00000000000E+00 0. -1.
         11    1    3    3    0    0  0.19690722257E+01 -0.23285252995E+01  0.46079100690E+00  0.30840888628E+01  0.51100000000E-03 0. -1.
        -11    1    3    3    0    0 -0.70740839688E+01 -0.30394699612E+02  0.19774373616E+02  0.36944638050E+02  0.51100000000E-03 0.  1.
        -12    1    3    3    0    0 -0.84951397136E+01 -0.26732269874E+01 -0.55623045505E+01  0.10500132056E+02  0.00000000000E+00 0.  1.
</event>
<event>
 7    1  0.2755991E-011  0.5052886E+02  0.7816164E-02  0.1300439E+00
        -11   -1    0    0    0    0  0.00000000000E+00  0.00000000000E+00  0.45593999997E+02  0.45594000000E+02  0.51100000000E-03 0. -1.
         11   -1    0    0    0    0 -0.00000000000E+00 -0.00000000000E+00 -0.45593999997E+02  0.45594000000E+02  0.51100000000E-03 0.  1.
    9900012    2    1    2    0    0  0.94233605169E+01  0.35600103575E+02 -0.17233640514E+02  0.50528862487E+02  0.30000008014E+02 0.  0.
         12    1    1    2    0    0 -0.94233605169E+01 -0.35600103575E+02  0.17233640514E+02  0.40659137513E+02  0.00000000000E+00 0. -1.
         11    1    3    3    0    0 -0.75825597785E+00  0.79301889601E+01 -0.12640139514E+01  0.80660139227E+01  0.51100000000E-03 0. -1.
        -11    1    3    3    0    0  0.78121935578E+01  0.32628190953E+02 -0.15468841192E+02  0.36944746056E+02  0.51100000000E-03 0.  1.
         12    1    3    3    0    0  0.23694229369E+01 -0.49582763384E+01 -0.50078537069E+00  0.55181025080E+01  0.00000000000E+00 0. -1.
</event>
<event>
 7    1  0.2755991E-011  0.5052886E+02  0.7816164E-02  0.1300439E+00
        -11   -1    0    0    0    0  0.00000000000E+00  0.00000000000E+00  0.45593999997E+02  0.45594000000E+02  0.51100000000E-03 0. -1.
         11   -1    0    0    0    0 -0.00000000000E+00 -0.00000000000E+00 -0.45593999997E+02  0.45594000000E+02  0.51100000000E-03 0.  1.
    9900012    2    1    2    0    0  0.19706840355E+02 -0.90208954905E+01 -0.34401016503E+02  0.50528855289E+02  0.29999986136E+02 0.  0.
         12    1    1    2    0    0 -0.19706840355E+02  0.90208954905E+01  0.34401016503E+02  0.40659144711E+02  0.00000000000E+00 0. -1.
         11    1    3    3    0    0 -0.42706210811E+01 -0.68792659339E+01 -0.88624080016E+01  0.12004365042E+02  0.51100000000E-03 0. -1.
        -11    1    3    3    0    0  0.38854226987E+00 -0.11091055276E+01 -0.10423059055E+02  0.10489101034E+02  0.51100000000E-03 0.  1.
         12    1    3    3    0    0  0.23588919166E+02 -0.10325240290E+01 -0.15115549446E+02  0.28035389213E+02  0.00000000000E+00 0. -1.
</event>
<event>
 7    1  0.2755991E-011  0.5052886E+02  0.7816164E-02  0.1300439E+00
        -11   -1    0    0    0    0  0.00000000000E+00  0.00000000000E+00  0.45593999997E+02  0.45594000000E+02  0.51100000000E-03 0. -1.
         11   -1    0    0    0    0 -0.00000000000E+00 -0.00000000000E+00 -0.45593999997E+02  0.45594000000E+02  0.51100000000E-03 0.  1.
    9900012    2    1    2    0    0 -0.15749018672E+02  0.36949978378E+02 -0.63113636154E+01  0.50528858322E+02  0.29999995356E+02 0.  0.
         12    1    1    2    0    0  0.15749018672E+02 -0.36949978378E+02  0.63113636154E+01  0.40659141678E+02  0.00000000000E+00 0. -1.
         11    1    3    3    0    0  0.82858457055E+00 -0.14732339006E+01 -0.64151026369E+00  0.18079010471E+01  0.51100000000E-03 0. -1.
        -11    1    3    3    0    0 -0.56636833975E+01 -0.15819575094E+01 -0.42025616313E+01  0.72278228890E+01  0.51100000000E-03 0.  1.
         12    1    3    3    0    0 -0.10913919845E+02  0.40005169788E+02 -0.14672917204E+01  0.41493134386E+02  0.00000000000E+00 0. -1.
</event>
<event>
 7    1  0.2755991E-011  0.5052886E+02  0.7816164E-02  0.1300439E+00
        -11   -1    0    0    0    0  0.00000000000E+00  0.00000000000E+00  0.45593999997E+02  0.45594000000E+02  0.51100000000E-03 0.  1.
         11   -1    0    0    0    0 -0.00000000000E+00 -0.00000000000E+00 -0.45593999997E+02  0.45594000000E+02  0.51100000000E-03 0. -1.
    9900012    2    1    2    0    0  0.28474819384E+02 -0.24428809715E+02  0.15671104718E+02  0.50528860731E+02  0.30000002679E+02 0.  0.
         12    1    1    2    0    0 -0.28474819384E+02  0.24428809715E+02 -0.15671104718E+02  0.40659139269E+02  0.00000000000E+00 0. -1.
         11    1    3    3    0    0 -0.18423064054E+01 -0.27692217245E+01 -0.51850930162E+01  0.61601843883E+01  0.51100000000E-03 0. -1.
        -11    1    3    3    0    0 -0.10552123017E+01 -0.13654136584E+00  0.21883892479E+00  0.10862814011E+01  0.51100000000E-03 0.  1.
        -12    1    3    3    0    0  0.31372338091E+02 -0.21523046624E+02  0.20637358809E+02  0.43282394942E+02  0.00000000000E+00 0.  1.
</event>
<event>
 7    1  0.2755991E-011  0.5052886E+02  0.7816164E-02  0.1300439E+00
        -11   -1    0    0    0    0  0.00000000000E+00  0.00000000000E+00  0.45593999997E+02  0.45594000000E+02  0.51100000000E-03 0. -1.
         11   -1    0    0    0    0 -0.00000000000E+00 -0.00000000000E+00 -0.45593999997E+02  0.45594000000E+02  0.51100000000E-03 0.  1.
    9900012    2    1    2    0    0 -0.35593912979E+02  0.11802542765E+02 -0.15714287537E+02  0.50528862162E+02  0.30000007029E+02 0.  0.
         12    1    1    2    0    0  0.35593912979E+02 -0.11802542765E+02  0.15714287537E+02  0.40659137838E+02  0.00000000000E+00 0. -1.
         11    1    3    3    0    0 -0.53207912209E+01  0.11738345781E+01 -0.50699140564E+01  0.74426296181E+01  0.51100000000E-03 0. -1.
        -11    1    3    3    0    0 -0.23235118139E+02  0.63293482539E+01 -0.19498673772E+02  0.30985958810E+02  0.51100000000E-03 0.  1.
         12    1    3    3    0    0 -0.70380036198E+01  0.42993599330E+01  0.88543002918E+01  0.12100273734E+02  0.00000000000E+00 0. -1.
</event>
<event>
 7    1  0.4544919E-011  0.5052886E+02  0.7816164E-02  0.1300439E+00
        -11   -1    0    0    0    0  0.00000000000E+00  0.00000000000E+00  0.45593999997E+02  0.45594000000E+02  0.51100000000E-03 0. -1.
         11   -1    0    0    0    0 -0.00000000000E+00 -0.00000000000E+00 -0.45593999997E+02  0.45594000000E+02  0.51100000000E-03 0.  1.
    9900012    2    1    2    0    0  0.13519255750E+02 -0.13554523679E+02 -0.35870183841E+02  0.50528862319E+02  0.30000007505E+02 0.  0.
         12    1    1    2    0    0 -0.13519255750E+02  0.13554523679E+02  0.35870183841E+02  0.40659137681E+02  0.00000000000E+00 0. -1.
         11    1    3    3    0    0 -0.68837710223E-02  0.32834104205E+01  0.62778890859E+00  0.33428955339E+01  0.51100000000E-03 0. -1.
        -11    1    3    3    0    0 -0.39410665170E+01 -0.99249829400E+01 -0.94834540181E+01  0.14281918359E+02  0.51100000000E-03 0.  1.
        -12    1    3    3    0    0  0.17467206039E+02 -0.69129511590E+01 -0.27014518731E+02  0.32904048426E+02  0.00000000000E+00 0.  1.
</event>
<event>
 7    1  0.2755991E-011  0.5052888E+02  0.7816164E-02  0.1300439E+00
        -11   -1    0    0    0    0  0.00000000000E+00  0.00000000000E+00  0.45593999997E+02  0.45594000000E+02  0.51100000000E-03 0. -1.
         11   -1    0    0    0    0 -0.00000000000E+00 -0.00000000000E+00 -0.45593999997E+02  0.45594000000E+02  0.51100000000E-03 0.  1.
    9900012    2    1    2    0    0  0.31915026009E+02 -0.25183586436E+02  0.61820068024E+00  0.50528879461E+02  0.30000059610E+02 0.  0.
         12    1    1    2    0    0 -0.31915026009E+02  0.25183586436E+02 -0.61820068024E+00  0.40659120539E+02  0.00000000000E+00 0. -1.
         11    1    3    3    0    0  0.31551420459E+01 -0.60981806128E+01 -0.64860273982E+01  0.94451723006E+01  0.51100000000E-03 0. -1.
        -11    1    3    3    0    0  0.64207622868E+01 -0.34357965388E+01 -0.72379801696E+01  0.10267387370E+02  0.51100000000E-03 0.  1.
        -12    1    3    3    0    0  0.22339121676E+02 -0.15649609284E+02  0.14342208248E+02  0.30816319791E+02  0.00000000000E+00 0.  1.
</event>
<event>
 7    1  0.2755991E-011  0.5052885E+02  0.7816164E-02  0.1300439E+00
        -11   -1    0    0    0    0  0.00000000000E+00  0.00000000000E+00  0.45593999997E+02  0.45594000000E+02  0.51100000000E-03 0.  1.
         11   -1    0    0    0    0 -0.00000000000E+00 -0.00000000000E+00 -0.45593999997E+02  0.45594000000E+02  0.51100000000E-03 0. -1.
    9900012    2    1    2    0    0 -0.32813541143E+02  0.20116295005E+02 -0.13106213210E+02  0.50528848118E+02  0.29999964338E+02 0.  0.
         12    1    1    2    0    0  0.32813541143E+02 -0.20116295005E+02  0.13106213210E+02  0.40659151882E+02  0.00000000000E+00 0. -1.
         11    1    3    3    0    0 -0.33687996572E+01  0.10598544521E+01 -0.47574811333E+01  0.59250088257E+01  0.51100000000E-03 0. -1.
        -11    1    3    3    0    0 -0.27678609042E+02  0.35204695406E+01 -0.29279377652E+01  0.28054802158E+02  0.51100000000E-03 0.  1.
        -12    1    3    3    0    0 -0.17661324441E+01  0.15535971012E+02 -0.54207943113E+01  0.16549037134E+02  0.00000000000E+00 0.  1.
</event>
<event>
 7    1  0.2755991E-011  0.5052883E+02  0.7816164E-02  0.1300439E+00
        -11   -1    0    0    0    0  0.00000000000E+00  0.00000000000E+00  0.45593999997E+02  0.45594000000E+02  0.51100000000E-03 0.  1.
         11   -1    0    0    0    0 -0.00000000000E+00 -0.00000000000E+00 -0.45593999997E+02  0.45594000000E+02  0.51100000000E-03 0. -1.
    9900012    2    1    2    0    0 -0.20689438090E+02  0.19366337815E+02  0.29155787982E+02  0.50528832994E+02  0.29999918367E+02 0.  0.
         12    1    1    2    0    0  0.20689438090E+02 -0.19366337815E+02 -0.29155787982E+02  0.40659167006E+02  0.00000000000E+00 0. -1.
         11    1    3    3    0    0 -0.15631329128E+02  0.18802086264E+02  0.71112396270E+01  0.25464222499E+02  0.51100000000E-03 0. -1.
        -11    1    3    3    0    0 -0.57417311147E+01  0.30110777405E+01  0.60440196661E+01  0.88636470676E+01  0.51100000000E-03 0.  1.
         12    1    3    3    0    0  0.68362215296E+00 -0.24468261895E+01  0.16000528689E+02  0.16200963427E+02  0.00000000000E+00 0. -1.
</event>
<event>
 7    1  0.2755991E-011  0.5052888E+02  0.7816164E-02  0.1300439E+00
        -11   -1    0    0    0    0  0.00000000000E+00  0.00000000000E+00  0.45593999997E+02  0.45594000000E+02  0.51100000000E-03 0.  1.
         11   -1    0    0    0    0 -0.00000000000E+00 -0.00000000000E+00 -0.45593999997E+02  0.45594000000E+02  0.51100000000E-03 0. -1.
    9900012    2    1    2    0    0  0.40959638352E+01  0.17153623492E+02  0.36635238376E+02  0.50528875446E+02  0.30000047404E+02 0.  0.
         12    1    1    2    0    0 -0.40959638352E+01 -0.17153623492E+02 -0.36635238376E+02  0.40659124554E+02  0.00000000000E+00 0. -1.
         11    1    3    3    0    0 -0.22733699461E+01 -0.56627624285E+00 -0.11840104317E+01  0.26250258396E+01  0.51100000000E-03 0. -1.
        -11    1    3    3    0    0  0.63076377818E+00  0.20823200185E+02  0.35139909396E+02  0.40851153735E+02  0.51100000000E-03 0.  1.
         12    1    3    3    0    0  0.57385700031E+01 -0.31033004496E+01  0.26793394116E+01  0.70526958706E+01  0.00000000000E+00 0. -1.
</event>
<event>
 7    1  0.2755991E-011  0.5052886E+02  0.7816164E-02  0.1300439E+00
        -11   -1    0    0    0    0  0.00000000000E+00  0.00000000000E+00  0.45593999997E+02  0.45594000000E+02  0.51100000000E-03 0. -1.
         11   -1    0    0    0    0 -0.00000000000E+00 -0.00000000000E+00 -0.45593999997E+02  0.45594000000E+02  0.51100000000E-03 0.  1.
    9900012    2    1    2    0    0 -0.31925394571E+02  0.19469688520E+02 -0.15964523864E+02  0.50528860661E+02  0.30000002465E+02 0.  0.
         12    1    1    2    0    0  0.31925394571E+02 -0.19469688520E+02  0.15964523864E+02  0.40659139339E+02  0.00000000000E+00 0. -1.
         11    1    3    3    0    0 -0.21355270860E+01  0.48757870715E+01  0.28882364000E+00  0.53307780725E+01  0.51100000000E-03 0. -1.
        -11    1    3    3    0    0 -0.23330196059E+02  0.21114864764E+02 -0.17385308974E+02  0.35949750076E+02  0.51100000000E-03 0.  1.
        -12    1    3    3    0    0 -0.64596714265E+01 -0.65209633153E+01  0.11319614702E+01  0.92483325129E+01  0.00000000000E+00 0.  1.
</event>
<event>
 7    1  0.2755991E-011  0.5052889E+02  0.7816164E-02  0.1300439E+00
        -11   -1    0    0    0    0  0.00000000000E+00  0.00000000000E+00  0.45593999997E+02  0.45594000000E+02  0.51100000000E-03 0.  1.
         11   -1    0    0    0    0 -0.00000000000E+00 -0.00000000000E+00 -0.45593999997E+02  0.45594000000E+02  0.51100000000E-03 0. -1.
    9900012    2    1    2    0    0  0.25612364001E+02  0.30453516790E+02  0.83518686209E+01  0.50528885597E+02  0.30000078259E+02 0.  0.
         12    1    1    2    0    0 -0.25612364001E+02 -0.30453516790E+02 -0.83518686209E+01  0.40659114403E+02  0.00000000000E+00 0. -1.
         11    1    3    3    0    0 -0.32204292317E+00 -0.41647775333E+01  0.10667118161E+01  0.43112594339E+01  0.51100000000E-03 0. -1.
        -11    1    3    3    0    0  0.11374745952E+02  0.61847167143E+01 -0.16370710170E+01  0.13050500683E+02  0.51100000000E-03 0.  1.
         12    1    3    3    0    0  0.14559660973E+02  0.28433577609E+02  0.89222278219E+01  0.33167125480E+02  0.00000000000E+00 0. -1.
</event>
<event>
 7    1  0.2755991E-011  0.5052880E+02  0.7816164E-02  0.1300439E+00
        -11   -1    0    0    0    0  0.00000000000E+00  0.00000000000E+00  0.45593999997E+02  0.45594000000E+02  0.51100000000E-03 0. -1.
         11   -1    0    0    0    0 -0.00000000000E+00 -0.00000000000E+00 -0.45593999997E+02  0.45594000000E+02  0.51100000000E-03 0.  1.
    9900012    2    1    2    0    0 -0.12769189995E+02  0.27565670712E+02 -0.27023171826E+02  0.50528803863E+02  0.29999829823E+02 0.  0.
         12    1    1    2    0    0  0.12769189995E+02 -0.27565670712E+02  0.27023171826E+02  0.40659196137E+02  0.00000000000E+00 0. -1.
         11    1    3    3    0    0  0.26569107383E+01  0.15348297981E+02 -0.50232804346E+01  0.16366513745E+02  0.51100000000E-03 0. -1.
        -11    1    3    3    0    0  0.99083263688E+00  0.90455042464E+00  0.23411433367E+01  0.26983167288E+01  0.51100000000E-03 0.  1.
        -12    1    3    3    0    0 -0.16416933371E+02  0.11312822307E+02 -0.24341034728E+02  0.31463973389E+02  0.00000000000E+00 0.  1.
</event>
<event>
 7    1  0.2755991E-011  0.5052887E+02  0.7816164E-02  0.1300439E+00
        -11   -1    0    0    0    0  0.00000000000E+00  0.00000000000E+00  0.45593999997E+02  0.45594000000E+02  0.51100000000E-03 0. -1.
         11   -1    0    0    0    0 -0.00000000000E+00 -0.00000000000E+00 -0.45593999997E+02  0.45594000000E+02  0.51100000000E-03 0.  1.
    9900012    2    1    2    0    0  0.26255283437E+02 -0.17705228392E+02 -0.25501959482E+02  0.50528868698E+02  0.30000026895E+02 0.  0.
         12    1    1    2    0    0 -0.26255283437E+02  0.17705228392E+02  0.25501959482E+02  0.40659131302E+02  0.00000000000E+00 0. -1.
         11    1    3    3    0    0  0.10493731163E+02 -0.54784562720E+01 -0.22861875199E+01  0.12056472556E+02  0.51100000000E-03 0. -1.
        -11    1    3    3    0    0  0.11510131533E+02  0.19028517587E+00 -0.22564758747E+02  0.25331554906E+02  0.51100000000E-03 0.  1.
         12    1    3    3    0    0  0.42514207410E+01 -0.12417057296E+02 -0.65101321506E+00  0.13140841237E+02  0.00000000000E+00 0. -1.
</event>
<event>
 7    1  0.2755991E-011  0.5052886E+02  0.7816164E-02  0.1300439E+00
        -11   -1    0    0    0    0  0.00000000000E+00  0.00000000000E+00  0.45593999997E+02  0.45594000000E+02  0.51100000000E-03 0.  1.
         11   -1    0    0    0    0 -0.00000000000E+00 -0.00000000000E+00 -0.45593999997E+02  0.45594000000E+02  0.51100000000E-03 0. -1.
    9900012    2    1    2    0    0  0.40537940621E+02  0.85456031210E+00  0.30183399687E+01  0.50528864750E+02  0.30000014895E+02 0.  0.
         12    1    1    2    0    0 -0.40537940621E+02 -0.85456031210E+00 -0.30183399687E+01  0.40659135250E+02  0.00000000000E+00 0. -1.
         11    1    3    3    0    0 -0.44682273404E+00  0.53415429672E+01  0.28788042002E+01  0.60843443123E+01  0.51100000000E-03 0. -1.
        -11    1    3    3    0    0  0.16684162985E+02  0.31847193029E+01 -0.63747315021E+01  0.18142241690E+02  0.51100000000E-03 0.  1.
        -12    1    3    3    0    0  0.24300600369E+02 -0.76717019580E+01  0.65142672706E+01  0.26302278748E+02  0.00000000000E+00 0.  1.
</event>
<event>
 7    1  0.2755991E-011  0.5052885E+02  0.7816164E-02  0.1300439E+00
        -11   -1    0    0    0    0  0.00000000000E+00  0.00000000000E+00  0.45593999997E+02  0.45594000000E+02  0.51100000000E-03 0.  1.
         11   -1    0    0    0    0 -0.00000000000E+00 -0.00000000000E+00 -0.45593999997E+02  0.45594000000E+02  0.51100000000E-03 0. -1.
    9900012    2    1    2    0    0 -0.36405359911E+02 -0.25076475205E+01  0.17931189364E+02  0.50528854924E+02  0.29999985026E+02 0.  0.
         12    1    1    2    0    0  0.36405359911E+02  0.25076475205E+01 -0.17931189364E+02  0.40659145076E+02  0.00000000000E+00 0. -1.
         11    1    3    3    0    0 -0.12518606912E+02 -0.28843774494E+01 -0.16966125179E+01  0.12958149813E+02  0.51100000000E-03 0. -1.
        -11    1    3    3    0    0 -0.24923486659E+02  0.65451233526E+01  0.15372241304E+02  0.30005410011E+02  0.51100000000E-03 0.  1.
        -12    1    3    3    0    0  0.10367336602E+01 -0.61683934237E+01  0.42555605780E+01  0.75652950997E+01  0.00000000000E+00 0.  1.
</event>
<event>
 7    1  0.2755991E-011  0.5052886E+02  0.7816164E-02  0.1300439E+00
        -11   -1    0    0    0    0  0.00000000000E+00  0.00000000000E+00  0.45593999997E+02  0.45594000000E+02  0.51100000000E-03 0.  1.
         11   -1    0    0    0    0 -0.00000000000E+00 -0.00000000000E+00 -0.45593999997E+02  0.45594000000E+02  0.51100000000E-03 0. -1.
    9900012    2    1    2    0    0 -0.19730940485E+02  0.22630857697E+02  0.27417153974E+02  0.50528855093E+02  0.29999985541E+02 0.  0.
         12    1    1    2    0    0  0.19730940485E+02 -0.22630857697E+02 -0.27417153974E+02  0.40659144907E+02  0.00000000000E+00 0. -1.
         11    1    3    3    0    0 -0.92349471323E+01  0.34170430153E+01  0.30457374769E+01  0.10307130956E+02  0.51100000000E-03 0. -1.
        -11    1    3    3    0    0 -0.17608334201E+02  0.12373680226E+02  0.12904786859E+02  0.25093722717E+02  0.51100000000E-03 0.  1.
        -12    1    3    3    0    0  0.71123408480E+01  0.68401344556E+01  0.11466629638E+02  0.15128001420E+02  0.00000000000E+00 0.  1.
</event>
<event>
 7    1  0.2755991E-011  0.5052886E+02  0.7816164E-02  0.1300439E+00
        -11   -1    0    0    0    0  0.00000000000E+00  0.00000000000E+00  0.45593999997E+02  0.45594000000E+02  0.51100000000E-03 0.  1.
         11   -1    0    0    0    0 -0.00000000000E+00 -0.00000000000E+00 -0.45593999997E+02  0.45594000000E+02  0.51100000000E-03 0. -1.
    9900012    2    1    2    0    0  0.61795189138E+01 -0.90925979148E+01  0.39144656177E+02  0.50528857140E+02  0.29999991764E+02 0.  0.
         12    1    1    2    0    0 -0.61795189138E+01  0.90925979148E+01 -0.39144656177E+02  0.40659142860E+02  0.00000000000E+00 0. -1.
         11    1    3    3    0    0  0.54383619296E+01  0.34006138849E+01 -0.15747040993E+01  0.66045172824E+01  0.51100000000E-03 0. -1.
        -11    1    3    3    0    0 -0.34171038789E+00  0.12135469796E+01  0.12185535130E+02  0.12250580759E+02  0.51100000000E-03 0.  1.
         12    1    3    3    0    0  0.10828673721E+01 -0.13706758779E+02  0.28533825147E+02  0.31673759099E+02  0.00000000000E+00 0. -1.
</event>
<event>
 7    1  0.2755991E-011  0.5052885E+02  0.7816164E-02  0.1300439E+00
        -11   -1    0    0    0    0  0.00000000000E+00  0.00000000000E+00  0.45593999997E+02  0.45594000000E+02  0.51100000000E-03 0.  1.
         11   -1    0    0    0    0 -0.00000000000E+00 -0.00000000000E+00 -0.45593999997E+02  0.45594000000E+02  0.51100000000E-03 0. -1.
    9900012    2    1    2    0    0 -0.34010669392E+02  0.22195525767E+02 -0.19492866858E+01  0.50528847093E+02  0.29999961222E+02 0.  0.
         12    1    1    2    0    0  0.34010669392E+02 -0.22195525767E+02  0.19492866858E+01  0.40659152907E+02  0.00000000000E+00 0. -1.
         11    1    3    3    0    0 -0.16051083680E+02  0.22691093056E+02  0.59363809472E+01  0.28421182424E+02  0.51100000000E-03 0. -1.
        -11    1    3    3    0    0 -0.81964397183E+01  0.21120157772E+01  0.11622772043E+01  0.85436013051E+01  0.51100000000E-03 0.  1.
         12    1    3    3    0    0 -0.97631459936E+01 -0.26075830664E+01 -0.90479448374E+01  0.13564063363E+02  0.00000000000E+00 0. -1.
</event>
<event>
 7    1  0.2755991E-011  0.5052886E+02  0.7816164E-02  0.1300439E+00
        -11   -1    0    0    0    0  0.00000000000E+00  0.00000000000E+00  0.45593999997E+02  0.45594000000E+02  0.51100000000E-03 0. -1.
         11   -1    0    0    0    0 -0.00000000000E+00 -0.00000000000E+00 -0.45593999997E+02  0.45594000000E+02  0.51100000000E-03 0.  1.
    9900012    2    1    2    0    0 -0.19059055011E+02 -0.28886605519E+02 -0.21342020014E+02  0.50528863578E+02  0.30000011330E+02 0.  0.
         12    1    1    2    0    0  0.19059055011E+02  0.28886605519E+02  0.21342020014E+02  0.40659136422E+02  0.00000000000E+00 0. -1.
         11    1    3    3    0    0 -0.34320842510E+01 -0.78237740910E+01 -0.76824155840E+01  0.11489567128E+02  0.51100000000E-03 0. -1.
        -11    1    3    3    0    0 -0.26063108290E+01 -0.20410683138E+01 -0.15561401665E+02  0.15909620927E+02  0.51100000000E-03 0.  1.
         12    1    3    3    0    0 -0.13020659931E+02 -0.19021763114E+02  0.19017972354E+01  0.23129675522E+02  0.00000000000E+00 0. -1.
</event>
<event>
 7    1  0.2755991E-011  0.5052886E+02  0.7816164E-02  0.1300439E+00
        -11   -1    0    0    0    0  0.00000000000E+00  0.00000000000E+00  0.45593999997E+02  0.45594000000E+02  0.51100000000E-03 0. -1.
         11   -1    0    0    0    0 -0.00000000000E+00 -0.00000000000E+00 -0.45593999997E+02  0.45594000000E+02  0.51100000000E-03 0.  1.
    9900012    2    1    2    0    0 -0.40569823857E+02  0.22807972370E+01  0.14328388976E+01  0.50528859931E+02  0.30000000246E+02 0.  0.
         12    1    1    2    0    0  0.40569823857E+02 -0.22807972370E+01 -0.14328388976E+01  0.40659140069E+02  0.00000000000E+00 0. -1.
         11    1    3    3    0    0 -0.95529022974E+01 -0.11167963922E+02  0.38807199275E+00  0.14701427162E+02  0.51100000000E-03 0. -1.
        -11    1    3    3    0    0 -0.45664350851E+01  0.40062183306E+01 -0.40263109625E+01  0.72878868629E+01  0.51100000000E-03 0.  1.
         12    1    3    3    0    0 -0.26450486475E+02  0.94425428279E+01  0.50710778673E+01  0.28539545906E+02  0.00000000000E+00 0. -1.
</event>
<event>
 7    1  0.2755991E-011  0.5052884E+02  0.7816164E-02  0.1300439E+00
        -11   -1    0    0    0    0  0.00000000000E+00  0.00000000000E+00  0.45593999997E+02  0.45594000000E+02  0.51100000000E-03 0.  1.
         11   -1    0    0    0    0 -0.00000000000E+00 -0.00000000000E+00 -0.45593999997E+02  0.45594000000E+02  0.51100000000E-03 0. -1.
    9900012    2    1    2    0    0  0.36302984491E+02  0.25698960957E+01  0.18128885945E+02  0.50528836770E+02  0.29999929847E+02 0.  0.
         12    1    1    2    0    0 -0.36302984491E+02 -0.25698960957E+01 -0.18128885945E+02  0.40659163230E+02  0.00000000000E+00 0. -1.
         11    1    3    3    0    0 -0.20492913017E+01 -0.11080272105E+01 -0.50271758157E-01  0.23302031347E+01  0.51100000000E-03 0. -1.
        -11    1    3    3    0    0  0.14552966516E+01 -0.14487720185E+00  0.10137546328E+02  0.10242495963E+02  0.51100000000E-03 0.  1.
        -12    1    3    3    0    0  0.36896979141E+02  0.38228005081E+01  0.80416113761E+01  0.37956137672E+02  0.00000000000E+00 0.  1.
</event>
<event>
 7    1  0.2755991E-011  0.5052885E+02  0.7816164E-02  0.1300439E+00
        -11   -1    0    0    0    0  0.00000000000E+00  0.00000000000E+00  0.45593999997E+02  0.45594000000E+02  0.51100000000E-03 0. -1.
         11   -1    0    0    0    0 -0.00000000000E+00 -0.00000000000E+00 -0.45593999997E+02  0.45594000000E+02  0.51100000000E-03 0.  1.
    9900012    2    1    2    0    0  0.36449982376E+01 -0.13974640933E+02 -0.38007766003E+02  0.50528845091E+02  0.29999955140E+02 0.  0.
         12    1    1    2    0    0 -0.36449982376E+01  0.13974640933E+02  0.38007766003E+02  0.40659154909E+02  0.00000000000E+00 0. -1.
         11    1    3    3    0    0 -0.12086084502E+02 -0.21380319933E+01 -0.14279329588E+02  0.18829335441E+02  0.51100000000E-03 0. -1.
        -11    1    3    3    0    0  0.78373283239E+01 -0.78822271655E+01 -0.18063519050E+02  0.21209524773E+02  0.51100000000E-03 0.  1.
        -12    1    3    3    0    0  0.78937544156E+01 -0.39543817745E+01 -0.56649173642E+01  0.10489984878E+02  0.00000000000E+00 0.  1.
</event>
<event>
 7    1  0.2755991E-011  0.5052885E+02  0.7816164E-02  0.1300439E+00
        -11   -1    0    0    0    0  0.00000000000E+00  0.00000000000E+00  0.45593999997E+02  0.45594000000E+02  0.51100000000E-03 0.  1.
         11   -1    0    0    0    0 -0.00000000000E+00 -0.00000000000E+00 -0.45593999997E+02  0.45594000000E+02  0.51100000000E-03 0. -1.
    9900012    2    1    2    0    0  0.15504628413E+02 -0.35106755111E+02  0.13427161317E+02  0.50528850751E+02  0.29999972342E+02 0.  0.
         12    1    1    2    0    0 -0.15504628413E+02  0.35106755111E+02 -0.13427161317E+02  0.40659149249E+02  0.00000000000E+00 0. -1.
         11    1    3    3    0    0 -0.12237025328E+01 -0.36823333310E+00  0.15871604130E+01  0.20376756646E+01  0.51100000000E-03 0. -1.
        -11    1    3    3    0    0 -0.25878511027E+01 -0.25245907059E+02  0.81481674898E+01  0.26654182228E+02  0.51100000000E-03 0.  1.
        -12    1    3    3    0    0  0.19316182048E+02 -0.94926147186E+01  0.36918334146E+01  0.21836992858E+02  0.00000000000E+00 0.  1.
</event>
<event>
 7    1  0.2755991E-011  0.5052886E+02  0.7816164E-02  0.1300439E+00
        -11   -1    0    0    0    0  0.00000000000E+00  0.00000000000E+00  0.45593999997E+02  0.45594000000E+02  0.51100000000E-03 0.  1.
         11   -1    0    0    0    0 -0.00000000000E+00 -0.00000000000E+00 -0.45593999997E+02  0.45594000000E+02  0.51100000000E-03 0. -1.
    9900012    2    1    2    0    0 -0.13148433491E+02 -0.38196150654E+02  0.46193592440E+01  0.50528859480E+02  0.29999998875E+02 0.  0.
         12    1    1    2    0    0  0.13148433491E+02  0.38196150654E+02 -0.46193592440E+01  0.40659140520E+02  0.00000000000E+00 0. -1.
         11    1    3    3    0    0  0.42303836621E+01 -0.73602792377E+01  0.16653546691E+01  0.86512000798E+01  0.51100000000E-03 0. -1.
        -11    1    3    3    0    0 -0.23052567949E+01 -0.53442096096E+01  0.98771239308E+01  0.11464395433E+02  0.51100000000E-03 0.  1.
        -12    1    3    3    0    0 -0.15073560358E+02 -0.25491661806E+02 -0.69231193559E+01  0.30413263967E+02  0.00000000000E+00 0.  1.
</event>
<event>
 7    1  0.2755991E-011  0.5052886E+02  0.7816164E-02  0.1300439E+00
        -11   -1    0    0    0    0  0.00000000000E+00  0.00000000000E+00  0.45593999997E+02  0.45594000000E+02  0.51100000000E-03 0.  1.
         11   -1    0    0    0    0 -0.00000000000E+00 -0.00000000000E+00 -0.45593999997E+02  0.45594000000E+02  0.51100000000E-03 0. -1.
    9900012    2    1    2    0    0  0.65779306174E+01 -0.39422249370E+02 -0.74687902191E+01  0.50528859036E+02  0.29999997525E+02 0.  0.
         12    1    1    2    0    0 -0.65779306174E+01  0.39422249370E+02  0.74687902191E+01  0.40659140964E+02  0.00000000000E+00 0. -1.
         11    1    3    3    0    0 -0.32650088486E-01 -0.56283966408E+00  0.43346568946E+01  0.43711674837E+01  0.51100000000E-03 0. -1.
        -11    1    3    3    0    0  0.57126509416E+01 -0.36329207473E+00  0.46729458085E+00  0.57432330963E+01  0.51100000000E-03 0.  1.
        -12    1    3    3    0    0  0.89792976430E+00 -0.38496117631E+02 -0.12270741695E+02  0.40414458456E+02  0.00000000000E+00 0.  1.
</event>
<event>
 7    1  0.2755991E-011  0.5052888E+02  0.7816164E-02  0.1300439E+00
        -11   -1    0    0    0    0  0.00000000000E+00  0.00000000000E+00  0.45593999997E+02  0.45594000000E+02  0.51100000000E-03 0.  1.
         11   -1    0    0    0    0 -0.00000000000E+00 -0.00000000000E+00 -0.45593999997E+02  0.45594000000E+02  0.51100000000E-03 0. -1.
    9900012    2    1    2    0    0  0.14917411588E+02  0.88904840629E+01  0.36764034717E+02  0.50528878956E+02  0.30000058076E+02 0.  0.
         12    1    1    2    0    0 -0.14917411588E+02 -0.88904840629E+01 -0.36764034717E+02  0.40659121044E+02  0.00000000000E+00 0. -1.
         11    1    3    3    0    0 -0.40157398949E+01  0.97619901543E+01  0.97436457469E+01  0.14365279370E+02  0.51100000000E-03 0. -1.
        -11    1    3    3    0    0 -0.23559853811E+01  0.66225949385E+00  0.45837619405E+01  0.51961647916E+01  0.51100000000E-03 0.  1.
        -12    1    3    3    0    0  0.21289136864E+02 -0.15337655852E+01  0.22436627030E+02  0.30967434795E+02  0.00000000000E+00 0.  1.
</event>
<event>
 7    1  0.2755991E-011  0.5052886E+02  0.7816164E-02  0.1300439E+00
        -11   -1    0    0    0    0  0.00000000000E+00  0.00000000000E+00  0.45593999997E+02  0.45594000000E+02  0.51100000000E-03 0.  1.
         11   -1    0    0    0    0 -0.00000000000E+00 -0.00000000000E+00 -0.45593999997E+02  0.45594000000E+02  0.51100000000E-03 0. -1.
    9900012    2    1    2    0    0  0.89361206334E+01  0.12161064673E+02  0.37754729996E+02  0.50528863474E+02  0.30000011015E+02 0.  0.
         12    1    1    2    0    0 -0.89361206334E+01 -0.12161064673E+02 -0.37754729996E+02  0.40659136526E+02  0.00000000000E+00 0. -1.
         11    1    3    3    0    0  0.44796477613E+01 -0.44800626369E+01  0.15321580648E+02  0.16579778017E+02  0.51100000000E-03 0. -1.
        -11    1    3    3    0    0  0.47557046671E+00  0.20570014996E+01  0.18099918722E+02  0.18222636484E+02  0.51100000000E-03 0.  1.
        -12    1    3    3    0    0  0.39809024054E+01  0.14584125810E+02  0.43332306267E+01  0.15726448972E+02  0.00000000000E+00 0.  1.
</event>
<event>
 7    1  0.2755991E-011  0.5052887E+02  0.7816164E-02  0.1300439E+00
        -11   -1    0    0    0    0  0.00000000000E+00  0.00000000000E+00  0.45593999997E+02  0.45594000000E+02  0.51100000000E-03 0.  1.
         11   -1    0    0    0    0 -0.00000000000E+00 -0.00000000000E+00 -0.45593999997E+02  0.45594000000E+02  0.51100000000E-03 0. -1.
    9900012    2    1    2    0    0  0.39324097902E+02 -0.22185282464E+01  0.10092484355E+02  0.50528870843E+02  0.30000033413E+02 0.  0.
         12    1    1    2    0    0 -0.39324097902E+02  0.22185282464E+01 -0.10092484355E+02  0.40659129157E+02  0.00000000000E+00 0. -1.
         11    1    3    3    0    0 -0.11416371582E+01 -0.37623647440E-01  0.20551923024E+01  0.23512904118E+01  0.51100000000E-03 0. -1.
        -11    1    3    3    0    0  0.18149208910E+02  0.36619802030E+01  0.15272212388E+02  0.24000924035E+02  0.51100000000E-03 0.  1.
         12    1    3    3    0    0  0.22316526150E+02 -0.58428848020E+01 -0.72349203350E+01  0.24176656395E+02  0.00000000000E+00 0. -1.
</event>
<event>
 7    1  0.2755991E-011  0.5052886E+02  0.7816164E-02  0.1300439E+00
        -11   -1    0    0    0    0  0.00000000000E+00  0.00000000000E+00  0.45593999997E+02  0.45594000000E+02  0.51100000000E-03 0.  1.
         11   -1    0    0    0    0 -0.00000000000E+00 -0.00000000000E+00 -0.45593999997E+02  0.45594000000E+02  0.51100000000E-03 0. -1.
    9900012    2    1    2    0    0  0.33662037723E+02  0.74253683369E+00  0.22792134253E+02  0.50528861687E+02  0.30000005583E+02 0.  0.
         12    1    1    2    0    0 -0.33662037723E+02 -0.74253683369E+00 -0.22792134253E+02  0.40659138313E+02  0.00000000000E+00 0. -1.
         11    1    3    3    0    0  0.60473156017E+01  0.17772329345E+01 -0.62487953121E+00  0.63339606551E+01  0.51100000000E-03 0.  1.
        -11    1    3    3    0    0  0.75909936983E+01  0.53104612757E+01 -0.36295756355E+01  0.99497740599E+01  0.51100000000E-03 0. -1.
        -12    1    3    3    0    0  0.20023728423E+02 -0.63451573766E+01  0.27046589419E+02  0.34245126972E+02  0.00000000000E+00 0.  1.
</event>
<event>
 7    1  0.2755991E-011  0.5052882E+02  0.7816164E-02  0.1300439E+00
        -11   -1    0    0    0    0  0.00000000000E+00  0.00000000000E+00  0.45593999997E+02  0.45594000000E+02  0.51100000000E-03 0.  1.
         11   -1    0    0    0    0 -0.00000000000E+00 -0.00000000000E+00 -0.45593999997E+02  0.45594000000E+02  0.51100000000E-03 0. -1.
    9900012    2    1    2    0    0 -0.20274187713E+02 -0.23170221186E+02  0.26556859834E+02  0.50528823404E+02  0.29999889218E+02 0.  0.
         12    1    1    2    0    0  0.20274187713E+02  0.23170221186E+02 -0.26556859834E+02  0.40659176596E+02  0.00000000000E+00 0. -1.
         11    1    3    3    0    0 -0.70298879175E+00 -0.52581084213E+01  0.10938748902E+02  0.12157225227E+02  0.51100000000E-03 0. -1.
        -11    1    3    3    0    0 -0.12512661496E+02 -0.19681626289E+02  0.19248178800E+02  0.30239469216E+02  0.51100000000E-03 0.  1.
         12    1    3    3    0    0 -0.70585374257E+01  0.17695135244E+01 -0.36300678687E+01  0.81321289608E+01  0.00000000000E+00 0. -1.
</event>
<event>
 7    1  0.2755991E-011  0.5052883E+02  0.7816164E-02  0.1300439E+00
        -11   -1    0    0    0    0  0.00000000000E+00  0.00000000000E+00  0.45593999997E+02  0.45594000000E+02  0.51100000000E-03 0.  1.
         11   -1    0    0    0    0 -0.00000000000E+00 -0.00000000000E+00 -0.45593999997E+02  0.45594000000E+02  0.51100000000E-03 0. -1.
    9900012    2    1    2    0    0 -0.15139703743E+01 -0.36216283402E+02  0.18418916366E+02  0.50528834122E+02  0.29999921798E+02 0.  0.
         12    1    1    2    0    0  0.15139703743E+01  0.36216283402E+02 -0.18418916366E+02  0.40659165878E+02  0.00000000000E+00 0. -1.
         11    1    3    3    0    0  0.20182707710E+01 -0.17626044323E+01 -0.37562016704E+01  0.46140267164E+01  0.51100000000E-03 0. -1.
        -11    1    3    3    0    0 -0.34165633304E+01 -0.56821753283E+01 -0.33715664211E+01  0.74382445405E+01  0.51100000000E-03 0.  1.
        -12    1    3    3    0    0 -0.11567781501E+00 -0.28771503642E+02  0.25546684457E+02  0.38476562865E+02  0.00000000000E+00 0.  1.
</event>
<event>
 7    1  0.2755991E-011  0.5052887E+02  0.7816164E-02  0.1300439E+00
        -11   -1    0    0    0    0  0.00000000000E+00  0.00000000000E+00  0.45593999997E+02  0.45594000000E+02  0.51100000000E-03 0.  1.
         11   -1    0    0    0    0 -0.00000000000E+00 -0.00000000000E+00 -0.45593999997E+02  0.45594000000E+02  0.51100000000E-03 0. -1.
    9900012    2    1    2    0    0  0.16633147647E+02  0.36873909483E+02  0.41010104114E+01  0.50528867107E+02  0.30000022058E+02 0.  0.
         12    1    1    2    0    0 -0.16633147647E+02 -0.36873909483E+02 -0.41010104114E+01  0.40659132893E+02  0.00000000000E+00 0. -1.
         11    1    3    3    0    0  0.91784463551E+01  0.14449698848E+02 -0.15399863534E+01  0.17187473128E+02  0.51100000000E-03 0. -1.
        -11    1    3    3    0    0  0.37882437690E+01  0.26550180748E+02  0.23658970368E+01  0.26923230818E+02  0.51100000000E-03 0.  1.
         12    1    3    3    0    0  0.36664575228E+01 -0.41259701129E+01  0.32750997280E+01  0.64181631614E+01  0.00000000000E+00 0. -1.
</event>
<event>
 7    1  0.2755991E-011  0.5052889E+02  0.7816164E-02  0.1300439E+00
        -11   -1    0    0    0    0  0.00000000000E+00  0.00000000000E+00  0.45593999997E+02  0.45594000000E+02  0.51100000000E-03 0.  1.
         11   -1    0    0    0    0 -0.00000000000E+00 -0.00000000000E+00 -0.45593999997E+02  0.45594000000E+02  0.51100000000E-03 0. -1.
    9900012    2    1    2    0    0 -0.38318347733E+02  0.13330478914E+02 -0.26769633075E+01  0.50528885725E+02  0.30000078649E+02 0.  0.
         12    1    1    2    0    0  0.38318347733E+02 -0.13330478914E+02  0.26769633075E+01  0.40659114275E+02  0.00000000000E+00 0. -1.
         11    1    3    3    0    0 -0.20608718031E+02  0.12903390033E+02 -0.46685598410E+01  0.24759082868E+02  0.51100000000E-03 0.  1.
        -11    1    3    3    0    0  0.16627951271E+01  0.51111146068E+01  0.22767244943E+01  0.58371101448E+01  0.51100000000E-03 0. -1.
        -12    1    3    3    0    0 -0.19372424830E+02 -0.46840257264E+01 -0.28512796081E+00  0.19932692712E+02  0.00000000000E+00 0.  1.
</event>
<event>
 7    1  0.2755991E-011  0.5052886E+02  0.7816164E-02  0.1300439E+00
        -11   -1    0    0    0    0  0.00000000000E+00  0.00000000000E+00  0.45593999997E+02  0.45594000000E+02  0.51100000000E-03 0. -1.
         11   -1    0    0    0    0 -0.00000000000E+00 -0.00000000000E+00 -0.45593999997E+02  0.45594000000E+02  0.51100000000E-03 0.  1.
    9900012    2    1    2    0    0 -0.39966030055E+02  0.34965038130E+01  0.66073296521E+01  0.50528857087E+02  0.29999991601E+02 0.  0.
         12    1    1    2    0    0  0.39966030055E+02 -0.34965038130E+01 -0.66073296521E+01  0.40659142913E+02  0.00000000000E+00 0. -1.
         11    1    3    3    0    0 -0.22793188697E+01  0.25280424956E+01  0.51391070645E+01  0.61641475527E+01  0.51100000000E-03 0. -1.
        -11    1    3    3    0    0 -0.25414627941E+01  0.80111861688E+01 -0.83998573313E+00  0.84465207783E+01  0.51100000000E-03 0.  1.
        -12    1    3    3    0    0 -0.35145248392E+02 -0.70427248514E+01  0.23082083207E+01  0.35918188756E+02  0.00000000000E+00 0.  1.
</event>
<event>
 7    1  0.2755991E-011  0.5052885E+02  0.7816164E-02  0.1300439E+00
        -11   -1    0    0    0    0  0.00000000000E+00  0.00000000000E+00  0.45593999997E+02  0.45594000000E+02  0.51100000000E-03 0. -1.
         11   -1    0    0    0    0 -0.00000000000E+00 -0.00000000000E+00 -0.45593999997E+02  0.45594000000E+02  0.51100000000E-03 0.  1.
    9900012    2    1    2    0    0 -0.20595563316E+02  0.35033690668E+02  0.12766288027E+01  0.50528849846E+02  0.29999969593E+02 0.  0.
         12    1    1    2    0    0  0.20595563316E+02 -0.35033690668E+02 -0.12766288027E+01  0.40659150154E+02  0.00000000000E+00 0. -1.
         11    1    3    3    0    0 -0.35407909950E+01  0.12109195551E+02  0.53510800388E+01  0.13704155413E+02  0.51100000000E-03 0. -1.
        -11    1    3    3    0    0 -0.94230248678E+01  0.26079192903E+02 -0.26575577442E+00  0.27730638769E+02  0.51100000000E-03 0.  1.
        -12    1    3    3    0    0 -0.76317474527E+01 -0.31546977854E+01 -0.38086954617E+01  0.90940556639E+01  0.00000000000E+00 0.  1.
</event>
<event>
 7    1  0.2755991E-011  0.5052885E+02  0.7816164E-02  0.1300439E+00
        -11   -1    0    0    0    0  0.00000000000E+00  0.00000000000E+00  0.45593999997E+02  0.45594000000E+02  0.51100000000E-03 0.  1.
         11   -1    0    0    0    0 -0.00000000000E+00 -0.00000000000E+00 -0.45593999997E+02  0.45594000000E+02  0.51100000000E-03 0. -1.
    9900012    2    1    2    0    0 -0.30657785881E+01 -0.13677791122E+02  0.38166547380E+02  0.50528852108E+02  0.29999976469E+02 0.  0.
         12    1    1    2    0    0  0.30657785881E+01  0.13677791122E+02 -0.38166547380E+02  0.40659147892E+02  0.00000000000E+00 0. -1.
         11    1    3    3    0    0  0.17552883126E+01 -0.11385878420E+02  0.11997865320E+02  0.16633341124E+02  0.51100000000E-03 0. -1.
        -11    1    3    3    0    0 -0.10891053433E+02 -0.75786408601E+01  0.13849591883E+02  0.19179729866E+02  0.51100000000E-03 0.  1.
         12    1    3    3    0    0  0.60699865323E+01  0.52867281576E+01  0.12319090177E+02  0.14715781118E+02  0.00000000000E+00 0. -1.
</event>
<event>
 7    1  0.2755991E-011  0.5052886E+02  0.7816164E-02  0.1300439E+00
        -11   -1    0    0    0    0  0.00000000000E+00  0.00000000000E+00  0.45593999997E+02  0.45594000000E+02  0.51100000000E-03 0.  1.
         11   -1    0    0    0    0 -0.00000000000E+00 -0.00000000000E+00 -0.45593999997E+02  0.45594000000E+02  0.51100000000E-03 0. -1.
    9900012    2    1    2    0    0 -0.24347794782E+01  0.15309740195E+02  0.37587892985E+02  0.50528855948E+02  0.29999988140E+02 0.  0.
         12    1    1    2    0    0  0.24347794782E+01 -0.15309740195E+02 -0.37587892985E+02  0.40659144052E+02  0.00000000000E+00 0. -1.
         11    1    3    3    0    0 -0.40305243516E+01  0.14152640463E+02  0.18883167675E+02  0.23939849213E+02  0.51100000000E-03 0.  1.
        -11    1    3    3    0    0 -0.49019904999E+01 -0.54347284270E+01  0.14863341711E+02  0.16567580119E+02  0.51100000000E-03 0. -1.
         12    1    3    3    0    0  0.64977353733E+01  0.65918281592E+01  0.38413835991E+01  0.10021426616E+02  0.00000000000E+00 0. -1.
</event>
<event>
 7    1  0.2755991E-011  0.5052886E+02  0.7816164E-02  0.1300439E+00
        -11   -1    0    0    0    0  0.00000000000E+00  0.00000000000E+00  0.45593999997E+02  0.45594000000E+02  0.51100000000E-03 0. -1.
         11   -1    0    0    0    0 -0.00000000000E+00 -0.00000000000E+00 -0.45593999997E+02  0.45594000000E+02  0.51100000000E-03 0.  1.
    9900012    2    1    2    0    0 -0.10964473240E+02  0.37771732680E+02 -0.10307403119E+02  0.50528855615E+02  0.29999987128E+02 0.  0.
         12    1    1    2    0    0  0.10964473240E+02 -0.37771732680E+02  0.10307403119E+02  0.40659144385E+02  0.00000000000E+00 0. -1.
         11    1    3    3    0    0 -0.27957915398E+01  0.79313792154E+01 -0.87814635880E+01  0.12158837510E+02  0.51100000000E-03 0. -1.
        -11    1    3    3    0    0 -0.13616479070E+02  0.29939783952E+02 -0.13568043885E+01  0.32918688974E+02  0.51100000000E-03 0.  1.
         12    1    3    3    0    0  0.54477973693E+01 -0.99430487595E-01 -0.16913514206E+00  0.54513291311E+01  0.00000000000E+00 0. -1.
</event>
<event>
 7    1  0.2755991E-011  0.5052886E+02  0.7816164E-02  0.1300439E+00
        -11   -1    0    0    0    0  0.00000000000E+00  0.00000000000E+00  0.45593999997E+02  0.45594000000E+02  0.51100000000E-03 0. -1.
         11   -1    0    0    0    0 -0.00000000000E+00 -0.00000000000E+00 -0.45593999997E+02  0.45594000000E+02  0.51100000000E-03 0.  1.
    9900012    2    1    2    0    0 -0.77544782705E+01  0.21389345485E+02 -0.33697616777E+02  0.50528863143E+02  0.30000010009E+02 0.  0.
         12    1    1    2    0    0  0.77544782705E+01 -0.21389345485E+02  0.33697616777E+02  0.40659136857E+02  0.00000000000E+00 0. -1.
         11    1    3    3    0    0 -0.80067149564E+00  0.98144512837E+00 -0.33528914481E+00  0.13102398466E+01  0.51100000000E-03 0. -1.
        -11    1    3    3    0    0 -0.10241529010E+02 -0.41883905004E+01 -0.74416506891E+01  0.13334530238E+02  0.51100000000E-03 0.  1.
        -12    1    3    3    0    0  0.32877222347E+01  0.24596290857E+02 -0.25920676943E+02  0.35884093058E+02  0.00000000000E+00 0.  1.
</event>
<event>
 7    1  0.2755991E-011  0.5052886E+02  0.7816164E-02  0.1300439E+00
        -11   -1    0    0    0    0  0.00000000000E+00  0.00000000000E+00  0.45593999997E+02  0.45594000000E+02  0.51100000000E-03 0.  1.
         11   -1    0    0    0    0 -0.00000000000E+00 -0.00000000000E+00 -0.45593999997E+02  0.45594000000E+02  0.51100000000E-03 0. -1.
    9900012    2    1    2    0    0  0.17109042894E+02 -0.10353559995E+02  0.35401268709E+02  0.50528863518E+02  0.30000011148E+02 0.  0.
         12    1    1    2    0    0 -0.17109042894E+02  0.10353559995E+02 -0.35401268709E+02  0.40659136482E+02  0.00000000000E+00 0. -1.
         11    1    3    3    0    0  0.12726225285E+02  0.57732202423E+01  0.76955547343E+01  0.15953320811E+02  0.51100000000E-03 0. -1.
        -11    1    3    3    0    0  0.45368319823E+01 -0.84678327752E+00  0.11034074470E+02  0.11960379845E+02  0.51100000000E-03 0.  1.
         12    1    3    3    0    0 -0.15401437327E+00 -0.15279996960E+02  0.16671639504E+02  0.22615162862E+02  0.00000000000E+00 0. -1.
</event>
<event>
 7    1  0.2755991E-011  0.5052886E+02  0.7816164E-02  0.1300439E+00
        -11   -1    0    0    0    0  0.00000000000E+00  0.00000000000E+00  0.45593999997E+02  0.45594000000E+02  0.51100000000E-03 0.  1.
         11   -1    0    0    0    0 -0.00000000000E+00 -0.00000000000E+00 -0.45593999997E+02  0.45594000000E+02  0.51100000000E-03 0. -1.
    9900012    2    1    2    0    0 -0.37197957644E+02  0.14435258368E+02 -0.78166900101E+01  0.50528863515E+02  0.30000011139E+02 0.  0.
         12    1    1    2    0    0  0.37197957644E+02 -0.14435258368E+02  0.78166900101E+01  0.40659136485E+02  0.00000000000E+00 0. -1.
         11    1    3    3    0    0 -0.87220916436E+01 -0.38863919552E+01 -0.81430055177E+00  0.95834237472E+01  0.51100000000E-03 0. -1.
        -11    1    3    3    0    0 -0.22554645786E+02  0.14883276595E+02  0.46600683720E+01  0.27421528153E+02  0.51100000000E-03 0.  1.
         12    1    3    3    0    0 -0.59212202138E+01  0.34383737286E+01 -0.11662457830E+02  0.13523911615E+02  0.00000000000E+00 0. -1.
</event>
<event>
 7    1  0.2755991E-011  0.5052886E+02  0.7816164E-02  0.1300439E+00
        -11   -1    0    0    0    0  0.00000000000E+00  0.00000000000E+00  0.45593999997E+02  0.45594000000E+02  0.51100000000E-03 0. -1.
         11   -1    0    0    0    0 -0.00000000000E+00 -0.00000000000E+00 -0.45593999997E+02  0.45594000000E+02  0.51100000000E-03 0.  1.
    9900012    2    1    2    0    0  0.61805963139E+01 -0.30027681419E+02 -0.26707756365E+02  0.50528859917E+02  0.30000000205E+02 0.  0.
         12    1    1    2    0    0 -0.61805963139E+01  0.30027681419E+02  0.26707756365E+02  0.40659140083E+02  0.00000000000E+00 0. -1.
         11    1    3    3    0    0 -0.42426601555E+01 -0.20753753773E+02 -0.14584899772E+02  0.25718432349E+02  0.51100000000E-03 0. -1.
        -11    1    3    3    0    0  0.23525892836E+00 -0.10961938235E+02 -0.84755619821E+01  0.13858376088E+02  0.51100000000E-03 0.  1.
         12    1    3    3    0    0  0.10187997541E+02  0.16880105888E+01 -0.36472946116E+01  0.10952051480E+02  0.00000000000E+00 0. -1.
</event>
<event>
 7    1  0.2755991E-011  0.5052889E+02  0.7816164E-02  0.1300439E+00
        -11   -1    0    0    0    0  0.00000000000E+00  0.00000000000E+00  0.45593999997E+02  0.45594000000E+02  0.51100000000E-03 0. -1.
         11   -1    0    0    0    0 -0.00000000000E+00 -0.00000000000E+00 -0.45593999997E+02  0.45594000000E+02  0.51100000000E-03 0.  1.
    9900012    2    1    2    0    0 -0.14349584455E+02 -0.99707005131E+01 -0.36712910601E+02  0.50528889735E+02  0.30000090838E+02 0.  0.
         12    1    1    2    0    0  0.14349584455E+02  0.99707005131E+01  0.36712910601E+02  0.40659110265E+02  0.00000000000E+00 0. -1.
         11    1    3    3    0    0 -0.11350859504E+02 -0.26692658201E+01 -0.35544109535E+01  0.12190193969E+02  0.51100000000E-03 0. -1.
        -11    1    3    3    0    0 -0.46647642670E+01 -0.35841749935E+01 -0.10535047158E+01  0.59763039161E+01  0.51100000000E-03 0.  1.
        -12    1    3    3    0    0  0.16660393167E+01 -0.37172596996E+01 -0.32104994932E+02  0.32362391850E+02  0.00000000000E+00 0.  1.
</event>
<event>
 7    1  0.2755991E-011  0.5052873E+02  0.7816164E-02  0.1300439E+00
        -11   -1    0    0    0    0  0.00000000000E+00  0.00000000000E+00  0.45593999997E+02  0.45594000000E+02  0.51100000000E-03 0.  1.
         11   -1    0    0    0    0 -0.00000000000E+00 -0.00000000000E+00 -0.45593999997E+02  0.45594000000E+02  0.51100000000E-03 0. -1.
    9900012    2    1    2    0    0  0.16576427731E+02 -0.37581478268E+01  0.36936085064E+02  0.50528732775E+02  0.29999613741E+02 0.  0.
         12    1    1    2    0    0 -0.16576427731E+02  0.37581478268E+01 -0.36936085064E+02  0.40659267225E+02  0.00000000000E+00 0. -1.
         11    1    3    3    0    0 -0.12118216610E+00 -0.12370863616E+01  0.17379442694E+02  0.17423837017E+02  0.51100000000E-03 0. -1.
        -11    1    3    3    0    0  0.18423284782E+02  0.20980014620E+01  0.20953680015E+02  0.27979916703E+02  0.51100000000E-03 0.  1.
         12    1    3    3    0    0 -0.17256748844E+01 -0.46190629273E+01 -0.13970376450E+01  0.51249790550E+01  0.00000000000E+00 0. -1.
</event>
<event>
 7    1  0.2755991E-011  0.5052887E+02  0.7816164E-02  0.1300439E+00
        -11   -1    0    0    0    0  0.00000000000E+00  0.00000000000E+00  0.45593999997E+02  0.45594000000E+02  0.51100000000E-03 0. -1.
         11   -1    0    0    0    0 -0.00000000000E+00 -0.00000000000E+00 -0.45593999997E+02  0.45594000000E+02  0.51100000000E-03 0.  1.
    9900012    2    1    2    0    0  0.25701373429E+02 -0.19899354720E+02 -0.24425810636E+02  0.50528866467E+02  0.30000020113E+02 0.  0.
         12    1    1    2    0    0 -0.25701373429E+02  0.19899354720E+02  0.24425810636E+02  0.40659133533E+02  0.00000000000E+00 0. -1.
         11    1    3    3    0    0  0.21540561697E+01 -0.51645330509E+01 -0.24594806134E+00  0.56011472330E+01  0.51100000000E-03 0. -1.
        -11    1    3    3    0    0 -0.30504710720E+01 -0.65039255221E+01  0.11646568407E+01  0.72775577480E+01  0.51100000000E-03 0.  1.
         12    1    3    3    0    0  0.26597788332E+02 -0.82308961468E+01 -0.25344519416E+02  0.37650161486E+02  0.00000000000E+00 0. -1.
</event>
<event>
 7    1  0.2755991E-011  0.5052880E+02  0.7816164E-02  0.1300439E+00
        -11   -1    0    0    0    0  0.00000000000E+00  0.00000000000E+00  0.45593999997E+02  0.45594000000E+02  0.51100000000E-03 0.  1.
         11   -1    0    0    0    0 -0.00000000000E+00 -0.00000000000E+00 -0.45593999997E+02  0.45594000000E+02  0.51100000000E-03 0. -1.
    9900012    2    1    2    0    0 -0.28532301238E+01  0.93988406094E+01  0.39454930701E+02  0.50528798291E+02  0.29999812886E+02 0.  0.
         12    1    1    2    0    0  0.28532301238E+01 -0.93988406094E+01 -0.39454930701E+02  0.40659201709E+02  0.00000000000E+00 0. -1.
         11    1    3    3    0    0 -0.48748007813E+01  0.48824361480E+01  0.25632840014E+01  0.73601827783E+01  0.51100000000E-03 0. -1.
        -11    1    3    3    0    0 -0.55445343747E+01 -0.62930487735E+01  0.89346640905E+01  0.12254490890E+02  0.51100000000E-03 0.  1.
         12    1    3    3    0    0  0.75661050322E+01  0.10809453235E+02  0.27956982609E+02  0.30914124623E+02  0.00000000000E+00 0. -1.
</event>
<event>
 7    1  0.2755991E-011  0.5052896E+02  0.7816164E-02  0.1300438E+00
        -11   -1    0    0    0    0  0.00000000000E+00  0.00000000000E+00  0.45593999997E+02  0.45594000000E+02  0.51100000000E-03 0. -1.
         11   -1    0    0    0    0 -0.00000000000E+00 -0.00000000000E+00 -0.45593999997E+02  0.45594000000E+02  0.51100000000E-03 0.  1.
    9900012    2    1    2    0    0  0.17891001222E+02 -0.18209180711E+02  0.31646411223E+02  0.50528960044E+02  0.30000304547E+02 0.  0.
         12    1    1    2    0    0 -0.17891001222E+02  0.18209180711E+02 -0.31646411223E+02  0.40659039956E+02  0.00000000000E+00 0. -1.
         11    1    3    3    0    0  0.10517627410E+02 -0.13216169232E+02  0.28594071997E+02  0.33210067286E+02  0.51100000000E-03 0. -1.
        -11    1    3    3    0    0  0.19472363722E+01 -0.79966070709E+01  0.62562936997E+01  0.10338213833E+02  0.51100000000E-03 0.  1.
        -12    1    3    3    0    0  0.54261374389E+01  0.30035955917E+01 -0.32039544736E+01  0.69806789249E+01  0.00000000000E+00 0.  1.
</event>
<event>
 7    1  0.2755991E-011  0.5052886E+02  0.7816164E-02  0.1300439E+00
        -11   -1    0    0    0    0  0.00000000000E+00  0.00000000000E+00  0.45593999997E+02  0.45594000000E+02  0.51100000000E-03 0.  1.
         11   -1    0    0    0    0 -0.00000000000E+00 -0.00000000000E+00 -0.45593999997E+02  0.45594000000E+02  0.51100000000E-03 0. -1.
    9900012    2    1    2    0    0  0.97897654836E+00  0.38589698831E+02 -0.12768801713E+02  0.50528861444E+02  0.30000004844E+02 0.  0.
         12    1    1    2    0    0 -0.97897654836E+00 -0.38589698831E+02  0.12768801713E+02  0.40659138556E+02  0.00000000000E+00 0. -1.
         11    1    3    3    0    0 -0.73097947599E+00  0.15019176553E+02  0.65510260928E+01  0.16402010196E+02  0.51100000000E-03 0.  1.
        -11    1    3    3    0    0 -0.15147343918E+01  0.74044050697E+01  0.13616562094E+01  0.76794363470E+01  0.51100000000E-03 0. -1.
         12    1    3    3    0    0  0.32246904162E+01  0.16166117208E+02 -0.20681484015E+02  0.26447414901E+02  0.00000000000E+00 0. -1.
</event>
<event>
 7    1  0.2755991E-011  0.5052886E+02  0.7816164E-02  0.1300439E+00
        -11   -1    0    0    0    0  0.00000000000E+00  0.00000000000E+00  0.45593999997E+02  0.45594000000E+02  0.51100000000E-03 0.  1.
         11   -1    0    0    0    0 -0.00000000000E+00 -0.00000000000E+00 -0.45593999997E+02  0.45594000000E+02  0.51100000000E-03 0. -1.
    9900012    2    1    2    0    0 -0.14644797514E+02  0.13835795482E+02  0.35316662557E+02  0.50528856071E+02  0.29999988515E+02 0.  0.
         12    1    1    2    0    0  0.14644797514E+02 -0.13835795482E+02 -0.35316662557E+02  0.40659143929E+02  0.00000000000E+00 0. -1.
         11    1    3    3    0    0  0.30659798298E+01 -0.11349269646E-02  0.93799538011E+01  0.98683213961E+01  0.51100000000E-03 0. -1.
        -11    1    3    3    0    0 -0.74989797627E+01  0.30042604547E+01  0.24390236836E+02  0.25693266268E+02  0.51100000000E-03 0.  1.
         12    1    3    3    0    0 -0.10211797582E+02  0.10832669954E+02  0.15464719202E+01  0.14967268407E+02  0.00000000000E+00 0. -1.
</event>
<event>
 7    1  0.2755991E-011  0.5052872E+02  0.7816164E-02  0.1300439E+00
        -11   -1    0    0    0    0  0.00000000000E+00  0.00000000000E+00  0.45593999997E+02  0.45594000000E+02  0.51100000000E-03 0. -1.
         11   -1    0    0    0    0 -0.00000000000E+00 -0.00000000000E+00 -0.45593999997E+02  0.45594000000E+02  0.51100000000E-03 0.  1.
    9900012    2    1    2    0    0 -0.20640397649E+01 -0.38472500173E+02  0.12991656580E+02  0.50528724669E+02  0.29999589102E+02 0.  0.
         12    1    1    2    0    0  0.20640397649E+01  0.38472500173E+02 -0.12991656580E+02  0.40659275331E+02  0.00000000000E+00 0. -1.
         11    1    3    3    0    0 -0.20427713995E+01 -0.99913310472E+01  0.10250171340E+02  0.14459101764E+02  0.51100000000E-03 0.  1.
        -11    1    3    3    0    0  0.73407384284E+01 -0.18974988326E+01  0.37671637312E+01  0.84663135622E+01  0.51100000000E-03 0. -1.
        -12    1    3    3    0    0 -0.73620067938E+01 -0.26583670293E+02 -0.10256784906E+01  0.27603309343E+02  0.00000000000E+00 0.  1.
</event>
<event>
 7    1  0.2755991E-011  0.5052897E+02  0.7816164E-02  0.1300438E+00
        -11   -1    0    0    0    0  0.00000000000E+00  0.00000000000E+00  0.45593999997E+02  0.45594000000E+02  0.51100000000E-03 0.  1.
         11   -1    0    0    0    0 -0.00000000000E+00 -0.00000000000E+00 -0.45593999997E+02  0.45594000000E+02  0.51100000000E-03 0. -1.
    9900012    2    1    2    0    0  0.18676649829E+02  0.35812840820E+02  0.46668882957E+01  0.50528970710E+02  0.30000336967E+02 0.  0.
         12    1    1    2    0    0 -0.18676649829E+02 -0.35812840820E+02 -0.46668882957E+01  0.40659029290E+02  0.00000000000E+00 0. -1.
         11    1    3    3    0    0 -0.27504788234E+01  0.15574489695E+02  0.10591636877E+02  0.19034511684E+02  0.51100000000E-03 0. -1.
        -11    1    3    3    0    0  0.11523800287E+02  0.12709339822E+02  0.11298674574E+01  0.17193076877E+02  0.51100000000E-03 0.  1.
        -12    1    3    3    0    0  0.99033283661E+01  0.75290113032E+01 -0.70546160388E+01  0.14301382149E+02  0.00000000000E+00 0.  1.
</event>
<event>
 7    1  0.2755991E-011  0.5052886E+02  0.7816164E-02  0.1300439E+00
        -11   -1    0    0    0    0  0.00000000000E+00  0.00000000000E+00  0.45593999997E+02  0.45594000000E+02  0.51100000000E-03 0.  1.
         11   -1    0    0    0    0 -0.00000000000E+00 -0.00000000000E+00 -0.45593999997E+02  0.45594000000E+02  0.51100000000E-03 0. -1.
    9900012    2    1    2    0    0 -0.22027186945E+02 -0.96579225275E+01  0.32782510211E+02  0.50528863168E+02  0.30000010084E+02 0.  0.
         12    1    1    2    0    0  0.22027186945E+02  0.96579225275E+01 -0.32782510211E+02  0.40659136832E+02  0.00000000000E+00 0. -1.
         11    1    3    3    0    0 -0.19643322001E+02 -0.46854297048E+01  0.45531681947E+01  0.20701321011E+02  0.51100000000E-03 0. -1.
        -11    1    3    3    0    0 -0.35411855300E+01 -0.53307879743E+01  0.12420390601E+02  0.13972236697E+02  0.51100000000E-03 0.  1.
        -12    1    3    3    0    0  0.11573205862E+01  0.35829515163E+00  0.15808951415E+02  0.15855305459E+02  0.00000000000E+00 0.  1.
</event>
<event>
 7    1  0.2755991E-011  0.5052886E+02  0.7816164E-02  0.1300439E+00
        -11   -1    0    0    0    0  0.00000000000E+00  0.00000000000E+00  0.45593999997E+02  0.45594000000E+02  0.51100000000E-03 0. -1.
         11   -1    0    0    0    0 -0.00000000000E+00 -0.00000000000E+00 -0.45593999997E+02  0.45594000000E+02  0.51100000000E-03 0.  1.
    9900012    2    1    2    0    0 -0.12536184525E+02  0.72928234850E+00 -0.38671413831E+02  0.50528855605E+02  0.29999987098E+02 0.  0.
         12    1    1    2    0    0  0.12536184525E+02 -0.72928234850E+00  0.38671413831E+02  0.40659144395E+02  0.00000000000E+00 0. -1.
         11    1    3    3    0    0 -0.75691263487E+01 -0.52961978210E+01 -0.78967807194E+01  0.12153210729E+02  0.51100000000E-03 0. -1.
        -11    1    3    3    0    0 -0.90950376855E+01 -0.14848396757E+00 -0.29461281102E+02  0.30833566814E+02  0.51100000000E-03 0.  1.
         12    1    3    3    0    0  0.41279795096E+01  0.61739641371E+01 -0.13133520097E+01  0.75420780624E+01  0.00000000000E+00 0. -1.
</event>
<event>
 7    1  0.4102924E-011  0.5052885E+02  0.7816164E-02  0.1300439E+00
        -11   -1    0    0    0    0  0.00000000000E+00  0.00000000000E+00  0.45593999997E+02  0.45594000000E+02  0.51100000000E-03 0. -1.
         11   -1    0    0    0    0 -0.00000000000E+00 -0.00000000000E+00 -0.45593999997E+02  0.45594000000E+02  0.51100000000E-03 0.  1.
    9900012    2    1    2    0    0  0.26751317806E+02 -0.15283847082E+02 -0.26531820403E+02  0.50528849986E+02  0.29999970018E+02 0.  0.
         12    1    1    2    0    0 -0.26751317806E+02  0.15283847082E+02  0.26531820403E+02  0.40659150014E+02  0.00000000000E+00 0. -1.
         11    1    3    3    0    0 -0.27008629519E+01 -0.11434941419E+01  0.25883049114E+01  0.39117211190E+01  0.51100000000E-03 0. -1.
        -11    1    3    3    0    0  0.62212099464E+01 -0.73421903518E+01 -0.12517526539E+01  0.97045400368E+01  0.51100000000E-03 0.  1.
        -12    1    3    3    0    0  0.23230970812E+02 -0.67981625879E+01 -0.27868372660E+02  0.36912588830E+02  0.00000000000E+00 0.  1.
</event>
<event>
 7    1  0.2755991E-011  0.5052886E+02  0.7816164E-02  0.1300439E+00
        -11   -1    0    0    0    0  0.00000000000E+00  0.00000000000E+00  0.45593999997E+02  0.45594000000E+02  0.51100000000E-03 0.  1.
         11   -1    0    0    0    0 -0.00000000000E+00 -0.00000000000E+00 -0.45593999997E+02  0.45594000000E+02  0.51100000000E-03 0. -1.
    9900012    2    1    2    0    0  0.88809510583E+01  0.81118268180E+01  0.38839320173E+02  0.50528858131E+02  0.29999994775E+02 0.  0.
         12    1    1    2    0    0 -0.88809510583E+01 -0.81118268180E+01 -0.38839320173E+02  0.40659141869E+02  0.00000000000E+00 0. -1.
         11    1    3    3    0    0  0.10964114785E+02 -0.29694141707E+01  0.15500707164E+02  0.19217209901E+02  0.51100000000E-03 0. -1.
        -11    1    3    3    0    0  0.37534167810E+01  0.13108894613E+02  0.11026441179E+02  0.17536067429E+02  0.51100000000E-03 0.  1.
         12    1    3    3    0    0 -0.58365805076E+01 -0.20276536249E+01  0.12312171830E+02  0.13775580802E+02  0.00000000000E+00 0. -1.
</event>
<event>
 7    1  0.2755991E-011  0.5052886E+02  0.7816164E-02  0.1300439E+00
        -11   -1    0    0    0    0  0.00000000000E+00  0.00000000000E+00  0.45593999997E+02  0.45594000000E+02  0.51100000000E-03 0. -1.
         11   -1    0    0    0    0 -0.00000000000E+00 -0.00000000000E+00 -0.45593999997E+02  0.45594000000E+02  0.51100000000E-03 0.  1.
    9900012    2    1    2    0    0 -0.60187077069E+01 -0.27886156867E+02 -0.28970727763E+02  0.50528860137E+02  0.30000000871E+02 0.  0.
         12    1    1    2    0    0  0.60187077069E+01  0.27886156867E+02  0.28970727763E+02  0.40659139863E+02  0.00000000000E+00 0. -1.
         11    1    3    3    0    0  0.63137737093E+01 -0.77993275405E+00 -0.34453316719E+01  0.72348009056E+01  0.51100000000E-03 0. -1.
        -11    1    3    3    0    0  0.44602575030E+01 -0.26812180736E+01 -0.25724528686E+01  0.58051995120E+01  0.51100000000E-03 0.  1.
        -12    1    3    3    0    0 -0.16792738919E+02 -0.24425006040E+02 -0.22952943223E+02  0.37488859719E+02  0.00000000000E+00 0.  1.
</event>
<event>
 7    1  0.2755991E-011  0.5052886E+02  0.7816164E-02  0.1300439E+00
        -11   -1    0    0    0    0  0.00000000000E+00  0.00000000000E+00  0.45593999997E+02  0.45594000000E+02  0.51100000000E-03 0.  1.
         11   -1    0    0    0    0 -0.00000000000E+00 -0.00000000000E+00 -0.45593999997E+02  0.45594000000E+02  0.51100000000E-03 0. -1.
    9900012    2    1    2    0    0  0.37750558896E+02 -0.66530385060E+01  0.13557226119E+02  0.50528855907E+02  0.29999988014E+02 0.  0.
         12    1    1    2    0    0 -0.37750558896E+02  0.66530385060E+01 -0.13557226119E+02  0.40659144093E+02  0.00000000000E+00 0. -1.
         11    1    3    3    0    0  0.11999235014E+01  0.12283943311E+01  0.66150685708E+01  0.68343179249E+01  0.51100000000E-03 0. -1.
        -11    1    3    3    0    0  0.16625252934E+02 -0.22821837953E+01  0.13971791632E+02  0.21836170902E+02  0.51100000000E-03 0.  1.
         12    1    3    3    0    0  0.19925382461E+02 -0.55992490418E+01 -0.70296340831E+01  0.21858367080E+02  0.00000000000E+00 0. -1.
</event>
<event>
 7    1  0.2755991E-011  0.5052886E+02  0.7816164E-02  0.1300439E+00
        -11   -1    0    0    0    0  0.00000000000E+00  0.00000000000E+00  0.45593999997E+02  0.45594000000E+02  0.51100000000E-03 0. -1.
         11   -1    0    0    0    0 -0.00000000000E+00 -0.00000000000E+00 -0.45593999997E+02  0.45594000000E+02  0.51100000000E-03 0.  1.
    9900012    2    1    2    0    0  0.13975769233E+02 -0.26379656481E+01 -0.38090483490E+02  0.50528856860E+02  0.29999990911E+02 0.  0.
         12    1    1    2    0    0 -0.13975769233E+02  0.26379656481E+01  0.38090483490E+02  0.40659143140E+02  0.00000000000E+00 0. -1.
         11    1    3    3    0    0 -0.48388538506E+00  0.25634718060E+01 -0.55562258396E+01  0.61381738822E+01  0.51100000000E-03 0. -1.
        -11    1    3    3    0    0  0.79011925089E+01  0.90518024843E+01 -0.23220092477E+02  0.26144534155E+02  0.51100000000E-03 0.  1.
         12    1    3    3    0    0  0.65584621088E+01 -0.14253239938E+02 -0.93141651729E+01  0.18246148822E+02  0.00000000000E+00 0. -1.
</event>
<event>
 7    1  0.2755991E-011  0.5052888E+02  0.7816164E-02  0.1300439E+00
        -11   -1    0    0    0    0  0.00000000000E+00  0.00000000000E+00  0.45593999997E+02  0.45594000000E+02  0.51100000000E-03 0.  1.
         11   -1    0    0    0    0 -0.00000000000E+00 -0.00000000000E+00 -0.45593999997E+02  0.45594000000E+02  0.51100000000E-03 0. -1.
    9900012    2    1    2    0    0  0.59831224528E+01  0.24680870232E+02  0.31752500436E+02  0.50528875641E+02  0.30000048000E+02 0.  0.
         12    1    1    2    0    0 -0.59831224528E+01 -0.24680870232E+02 -0.31752500436E+02  0.40659124359E+02  0.00000000000E+00 0. -1.
         11    1    3    3    0    0 -0.41414390136E+00  0.13821771771E+02  0.24078800782E+01  0.14036052750E+02  0.51100000000E-03 0. -1.
        -11    1    3    3    0    0 -0.59208080510E+01  0.53563509446E+01  0.13482654308E+02  0.15669346855E+02  0.51100000000E-03 0.  1.
         12    1    3    3    0    0  0.12318074405E+02  0.55027475161E+01  0.15861966049E+02  0.20823476036E+02  0.00000000000E+00 0. -1.
</event>
<event>
 7    1  0.2755991E-011  0.5052885E+02  0.7816164E-02  0.1300439E+00
        -11   -1    0    0    0    0  0.00000000000E+00  0.00000000000E+00  0.45593999997E+02  0.45594000000E+02  0.51100000000E-03 0.  1.
         11   -1    0    0    0    0 -0.00000000000E+00 -0.00000000000E+00 -0.45593999997E+02  0.45594000000E+02  0.51100000000E-03 0. -1.
    9900012    2    1    2    0    0 -0.31305076390E+02  0.21389137831E+02  0.14685472309E+02  0.50528854388E+02  0.29999983399E+02 0.  0.
         12    1    1    2    0    0  0.31305076390E+02 -0.21389137831E+02 -0.14685472309E+02  0.40659145612E+02  0.00000000000E+00 0. -1.
         11    1    3    3    0    0 -0.89084587983E+01  0.10096697467E+02  0.87778366214E+01  0.16073405175E+02  0.51100000000E-03 0. -1.
        -11    1    3    3    0    0 -0.17256066987E+02  0.18081081615E+02  0.67754081223E+01  0.25896013510E+02  0.51100000000E-03 0.  1.
         12    1    3    3    0    0 -0.51405506045E+01 -0.67886412513E+01 -0.86777243483E+00  0.85594357031E+01  0.00000000000E+00 0. -1.
</event>
<event>
 7    1  0.2755991E-011  0.5052886E+02  0.7816164E-02  0.1300439E+00
        -11   -1    0    0    0    0  0.00000000000E+00  0.00000000000E+00  0.45593999997E+02  0.45594000000E+02  0.51100000000E-03 0. -1.
         11   -1    0    0    0    0 -0.00000000000E+00 -0.00000000000E+00 -0.45593999997E+02  0.45594000000E+02  0.51100000000E-03 0.  1.
    9900012    2    1    2    0    0  0.29326989565E+02  0.24239455587E+02  0.14336734726E+02  0.50528862199E+02  0.30000007139E+02 0.  0.
         12    1    1    2    0    0 -0.29326989565E+02 -0.24239455587E+02 -0.14336734726E+02  0.40659137801E+02  0.00000000000E+00 0. -1.
         11    1    3    3    0    0  0.46226880978E+01  0.25351495842E+01 -0.31173832044E+01  0.61248924047E+01  0.51100000000E-03 0. -1.
        -11    1    3    3    0    0  0.65404107229E+01  0.12597392601E+02 -0.41079204410E+01  0.14776545042E+02  0.51100000000E-03 0.  1.
        -12    1    3    3    0    0  0.18163890744E+02  0.91069134021E+01  0.21562038372E+02  0.29627424752E+02  0.00000000000E+00 0.  1.
</event>
<event>
 7    1  0.2755991E-011  0.5052886E+02  0.7816164E-02  0.1300439E+00
        -11   -1    0    0    0    0  0.00000000000E+00  0.00000000000E+00  0.45593999997E+02  0.45594000000E+02  0.51100000000E-03 0.  1.
         11   -1    0    0    0    0 -0.00000000000E+00 -0.00000000000E+00 -0.45593999997E+02  0.45594000000E+02  0.51100000000E-03 0. -1.
    9900012    2    1    2    0    0 -0.33219874218E+02  0.81957934210E+01  0.21964387154E+02  0.50528863562E+02  0.30000011283E+02 0.  0.
         12    1    1    2    0    0  0.33219874218E+02 -0.81957934210E+01 -0.21964387154E+02  0.40659136438E+02  0.00000000000E+00 0. -1.
         11    1    3    3    0    0 -0.28848452988E+01  0.19265496805E+01 -0.45507731234E+01  0.57221903456E+01  0.51100000000E-03 0. -1.
        -11    1    3    3    0    0 -0.18788518601E+02  0.10759087193E+02  0.92205196565E+01  0.23532623556E+02  0.51100000000E-03 0.  1.
        -12    1    3    3    0    0 -0.11546510319E+02 -0.44898434521E+01  0.17294640620E+02  0.21274049660E+02  0.00000000000E+00 0.  1.
</event>
<event>
 7    1  0.2755991E-011  0.5052887E+02  0.7816164E-02  0.1300439E+00
        -11   -1    0    0    0    0  0.00000000000E+00  0.00000000000E+00  0.45593999997E+02  0.45594000000E+02  0.51100000000E-03 0. -1.
         11   -1    0    0    0    0 -0.00000000000E+00 -0.00000000000E+00 -0.45593999997E+02  0.45594000000E+02  0.51100000000E-03 0.  1.
    9900012    2    1    2    0    0 -0.33039908788E+02  0.62672934351E+01 -0.22852804665E+02  0.50528865470E+02  0.30000017082E+02 0.  0.
         12    1    1    2    0    0  0.33039908788E+02 -0.62672934351E+01  0.22852804665E+02  0.40659134530E+02  0.00000000000E+00 0. -1.
         11    1    3    3    0    0 -0.75097293981E+01  0.14704252773E+00 -0.47164312731E+01  0.88691815492E+01  0.51100000000E-03 0. -1.
        -11    1    3    3    0    0 -0.16862452516E+02 -0.21889865536E+01 -0.23086064003E+02  0.28672291824E+02  0.51100000000E-03 0.  1.
         12    1    3    3    0    0 -0.86677268734E+01  0.83092374609E+01  0.49496906117E+01  0.12987392097E+02  0.00000000000E+00 0. -1.
</event>
<event>
 7    1  0.2755991E-011  0.5052886E+02  0.7816164E-02  0.1300439E+00
        -11   -1    0    0    0    0  0.00000000000E+00  0.00000000000E+00  0.45593999997E+02  0.45594000000E+02  0.51100000000E-03 0.  1.
         11   -1    0    0    0    0 -0.00000000000E+00 -0.00000000000E+00 -0.45593999997E+02  0.45594000000E+02  0.51100000000E-03 0. -1.
    9900012    2    1    2    0    0 -0.18162066408E+02 -0.31928996533E+02  0.17431115904E+02  0.50528864772E+02  0.30000014961E+02 0.  0.
         12    1    1    2    0    0  0.18162066408E+02  0.31928996533E+02 -0.17431115904E+02  0.40659135228E+02  0.00000000000E+00 0. -1.
         11    1    3    3    0    0 -0.92459561666E+01 -0.15034056738E+02  0.34040411904E+01  0.17974928765E+02  0.51100000000E-03 0. -1.
        -11    1    3    3    0    0 -0.82867304276E+01 -0.21231621599E+02  0.15898712217E+02  0.27788859411E+02  0.51100000000E-03 0.  1.
         12    1    3    3    0    0 -0.62937981397E+00  0.43366818043E+01 -0.18716375032E+01  0.47650765959E+01  0.00000000000E+00 0. -1.
</event>
<event>
 7    1  0.2755991E-011  0.5052886E+02  0.7816164E-02  0.1300439E+00
        -11   -1    0    0    0    0  0.00000000000E+00  0.00000000000E+00  0.45593999997E+02  0.45594000000E+02  0.51100000000E-03 0.  1.
         11   -1    0    0    0    0 -0.00000000000E+00 -0.00000000000E+00 -0.45593999997E+02  0.45594000000E+02  0.51100000000E-03 0. -1.
    9900012    2    1    2    0    0  0.15787307772E+02  0.16658150047E+01  0.37431965185E+02  0.50528855346E+02  0.29999986311E+02 0.  0.
         12    1    1    2    0    0 -0.15787307772E+02 -0.16658150047E+01 -0.37431965185E+02  0.40659144654E+02  0.00000000000E+00 0. -1.
         11    1    3    3    0    0  0.80013915465E+00  0.78164180680E+00 -0.14452657282E+01  0.18275611802E+01  0.51100000000E-03 0. -1.
        -11    1    3    3    0    0 -0.12727456053E+01 -0.57805640252E+01 -0.12791201419E+00  0.59204023149E+01  0.51100000000E-03 0.  1.
        -12    1    3    3    0    0  0.16259914222E+02  0.66647372231E+01  0.39005142928E+02  0.42780891851E+02  0.00000000000E+00 0.  1.
</event>
<event>
 7    1  0.2755991E-011  0.5052891E+02  0.7816164E-02  0.1300439E+00
        -11   -1    0    0    0    0  0.00000000000E+00  0.00000000000E+00  0.45593999997E+02  0.45594000000E+02  0.51100000000E-03 0.  1.
         11   -1    0    0    0    0 -0.00000000000E+00 -0.00000000000E+00 -0.45593999997E+02  0.45594000000E+02  0.51100000000E-03 0. -1.
    9900012    2    1    2    0    0 -0.13166780364E+02  0.36750617598E+02  0.11366150784E+02  0.50528912668E+02  0.30000160546E+02 0.  0.
         12    1    1    2    0    0  0.13166780364E+02 -0.36750617598E+02 -0.11366150784E+02  0.40659087332E+02  0.00000000000E+00 0. -1.
         11    1    3    3    0    0 -0.59045954984E+01  0.12262623333E+02  0.58237661406E+01  0.14803797868E+02  0.51100000000E-03 0. -1.
        -11    1    3    3    0    0 -0.13912118131E+02  0.77287426043E+01  0.74912105190E+01  0.17589733609E+02  0.51100000000E-03 0.  1.
         12    1    3    3    0    0  0.66499332649E+01  0.16759251661E+02 -0.19488258756E+01  0.18135381192E+02  0.00000000000E+00 0. -1.
</event>
<event>
 7    1  0.2755991E-011  0.5052886E+02  0.7816164E-02  0.1300439E+00
        -11   -1    0    0    0    0  0.00000000000E+00  0.00000000000E+00  0.45593999997E+02  0.45594000000E+02  0.51100000000E-03 0.  1.
         11   -1    0    0    0    0 -0.00000000000E+00 -0.00000000000E+00 -0.45593999997E+02  0.45594000000E+02  0.51100000000E-03 0. -1.
    9900012    2    1    2    0    0  0.22669817741E+02  0.20559725259E+01  0.33690031358E+02  0.50528857457E+02  0.29999992725E+02 0.  0.
         12    1    1    2    0    0 -0.22669817741E+02 -0.20559725259E+01 -0.33690031358E+02  0.40659142543E+02  0.00000000000E+00 0. -1.
         11    1    3    3    0    0  0.14486803483E+02  0.10095480511E+02  0.21626986240E+02  0.27919755300E+02  0.51100000000E-03 0. -1.
        -11    1    3    3    0    0  0.18288740421E+01  0.27499267889E+01  0.91856244911E+01  0.97612793813E+01  0.51100000000E-03 0.  1.
         12    1    3    3    0    0  0.63541402150E+01 -0.10789434774E+02  0.28774206273E+01  0.12847822776E+02  0.00000000000E+00 0. -1.
</event>
<event>
 7    1  0.2755991E-011  0.5052886E+02  0.7816164E-02  0.1300439E+00
        -11   -1    0    0    0    0  0.00000000000E+00  0.00000000000E+00  0.45593999997E+02  0.45594000000E+02  0.51100000000E-03 0. -1.
         11   -1    0    0    0    0 -0.00000000000E+00 -0.00000000000E+00 -0.45593999997E+02  0.45594000000E+02  0.51100000000E-03 0.  1.
    9900012    2    1    2    0    0 -0.33322516663E+02  0.11024784002E+02 -0.20523885929E+02  0.50528857453E+02  0.29999992714E+02 0.  0.
         12    1    1    2    0    0  0.33322516663E+02 -0.11024784002E+02  0.20523885929E+02  0.40659142547E+02  0.00000000000E+00 0. -1.
         11    1    3    3    0    0  0.31750956630E+01  0.40889560925E+01  0.18369211166E+00  0.51802063133E+01  0.51100000000E-03 0. -1.
        -11    1    3    3    0    0 -0.25668330162E+02 -0.70114782803E+00 -0.77669349910E+01  0.26826853356E+02  0.51100000000E-03 0.  1.
         12    1    3    3    0    0 -0.10829282164E+02  0.76369757374E+01 -0.12940643050E+02  0.18521797784E+02  0.00000000000E+00 0. -1.
</event>
<event>
 7    1  0.2755991E-011  0.5052887E+02  0.7816164E-02  0.1300439E+00
        -11   -1    0    0    0    0  0.00000000000E+00  0.00000000000E+00  0.45593999997E+02  0.45594000000E+02  0.51100000000E-03 0. -1.
         11   -1    0    0    0    0 -0.00000000000E+00 -0.00000000000E+00 -0.45593999997E+02  0.45594000000E+02  0.51100000000E-03 0.  1.
    9900012    2    1    2    0    0 -0.15779145346E+02  0.36983607635E+02  0.60329456899E+01  0.50528867013E+02  0.30000021773E+02 0.  0.
         12    1    1    2    0    0  0.15779145346E+02 -0.36983607635E+02 -0.60329456899E+01  0.40659132987E+02  0.00000000000E+00 0. -1.
         11    1    3    3    0    0 -0.29967219100E+01 -0.22279658906E+01  0.54578309954E+00  0.37738645536E+01  0.51100000000E-03 0. -1.
        -11    1    3    3    0    0  0.26027489150E+01  0.16698451177E+02 -0.48676323117E+01  0.17587109433E+02  0.51100000000E-03 0.  1.
        -12    1    3    3    0    0 -0.15385172351E+02  0.22513122349E+02  0.10354794902E+02  0.29167893027E+02  0.00000000000E+00 0.  1.
</event>
<event>
 7    1  0.2755991E-011  0.5052886E+02  0.7816164E-02  0.1300439E+00
        -11   -1    0    0    0    0  0.00000000000E+00  0.00000000000E+00  0.45593999997E+02  0.45594000000E+02  0.51100000000E-03 0.  1.
         11   -1    0    0    0    0 -0.00000000000E+00 -0.00000000000E+00 -0.45593999997E+02  0.45594000000E+02  0.51100000000E-03 0. -1.
    9900012    2    1    2    0    0  0.74523717357E+01  0.33590947737E+02  0.21662788045E+02  0.50528855884E+02  0.29999987946E+02 0.  0.
         12    1    1    2    0    0 -0.74523717357E+01 -0.33590947737E+02 -0.21662788045E+02  0.40659144116E+02  0.00000000000E+00 0. -1.
         11    1    3    3    0    0  0.24773004460E+01  0.21979084456E+02  0.13945655491E+02  0.26147628542E+02  0.51100000000E-03 0. -1.
        -11    1    3    3    0    0  0.76221827724E+01  0.12120078539E+02  0.12424444068E+02  0.18956813674E+02  0.51100000000E-03 0.  1.
         12    1    3    3    0    0 -0.26471114827E+01 -0.50821525803E+00 -0.47073115147E+01  0.54244136685E+01  0.00000000000E+00 0. -1.
</event>
<event>
 7    1  0.2755991E-011  0.5052886E+02  0.7816164E-02  0.1300439E+00
        -11   -1    0    0    0    0  0.00000000000E+00  0.00000000000E+00  0.45593999997E+02  0.45594000000E+02  0.51100000000E-03 0.  1.
         11   -1    0    0    0    0 -0.00000000000E+00 -0.00000000000E+00 -0.45593999997E+02  0.45594000000E+02  0.51100000000E-03 0. -1.
    9900012    2    1    2    0    0 -0.29918107345E+02 -0.20496801016E+02  0.18383512189E+02  0.50528861797E+02  0.30000005919E+02 0.  0.
         12    1    1    2    0    0  0.29918107345E+02  0.20496801016E+02 -0.18383512189E+02  0.40659138203E+02  0.00000000000E+00 0. -1.
         11    1    3    3    0    0 -0.11266558612E+02 -0.11528355653E+02  0.12491112709E+02  0.20392798336E+02  0.51100000000E-03 0. -1.
        -11    1    3    3    0    0 -0.13382120828E+02 -0.10743343748E+02  0.12697817898E+02  0.21347954759E+02  0.51100000000E-03 0.  1.
         12    1    3    3    0    0 -0.52694279055E+01  0.17748983850E+01 -0.68054184178E+01  0.87881087026E+01  0.00000000000E+00 0. -1.
</event>
<event>
 7    1  0.2755991E-011  0.5052886E+02  0.7816164E-02  0.1300439E+00
        -11   -1    0    0    0    0  0.00000000000E+00  0.00000000000E+00  0.45593999997E+02  0.45594000000E+02  0.51100000000E-03 0.  1.
         11   -1    0    0    0    0 -0.00000000000E+00 -0.00000000000E+00 -0.45593999997E+02  0.45594000000E+02  0.51100000000E-03 0. -1.
    9900012    2    1    2    0    0  0.32233167683E+02  0.21974415977E+01  0.24685214177E+02  0.50528860223E+02  0.30000001133E+02 0.  0.
         12    1    1    2    0    0 -0.32233167683E+02 -0.21974415977E+01 -0.24685214177E+02  0.40659139777E+02  0.00000000000E+00 0. -1.
         11    1    3    3    0    0 -0.21439398058E+01  0.14106157691E+01 -0.43647491947E+00  0.26032336344E+01  0.51100000000E-03 0. -1.
        -11    1    3    3    0    0  0.23269746949E+02  0.95192323522E+01  0.95368178403E+01  0.26889548200E+02  0.51100000000E-03 0.  1.
         12    1    3    3    0    0  0.11107360540E+02 -0.87324065236E+01  0.15584871257E+02  0.21036078388E+02  0.00000000000E+00 0. -1.
</event>
<event>
 7    1  0.2755991E-011  0.5052886E+02  0.7816164E-02  0.1300439E+00
        -11   -1    0    0    0    0  0.00000000000E+00  0.00000000000E+00  0.45593999997E+02  0.45594000000E+02  0.51100000000E-03 0.  1.
         11   -1    0    0    0    0 -0.00000000000E+00 -0.00000000000E+00 -0.45593999997E+02  0.45594000000E+02  0.51100000000E-03 0. -1.
    9900012    2    1    2    0    0  0.33129766335E+01  0.72856700577E+01  0.39863631641E+02  0.50528856748E+02  0.29999990571E+02 0.  0.
         12    1    1    2    0    0 -0.33129766335E+01 -0.72856700577E+01 -0.39863631641E+02  0.40659143252E+02  0.00000000000E+00 0. -1.
         11    1    3    3    0    0 -0.71166824465E+01  0.95105506013E+01  0.10168016118E+02  0.15636057490E+02  0.51100000000E-03 0. -1.
        -11    1    3    3    0    0 -0.30134549992E+01 -0.15498535211E+01  0.16169781210E+01  0.37546738173E+01  0.51100000000E-03 0.  1.
         12    1    3    3    0    0  0.13443114079E+02 -0.67502702253E+00  0.28078637402E+02  0.31138125441E+02  0.00000000000E+00 0. -1.
</event>
<event>
 7    1  0.2755991E-011  0.5052885E+02  0.7816164E-02  0.1300439E+00
        -11   -1    0    0    0    0  0.00000000000E+00  0.00000000000E+00  0.45593999997E+02  0.45594000000E+02  0.51100000000E-03 0.  1.
         11   -1    0    0    0    0 -0.00000000000E+00 -0.00000000000E+00 -0.45593999997E+02  0.45594000000E+02  0.51100000000E-03 0. -1.
    9900012    2    1    2    0    0 -0.32631151793E+02 -0.24407083182E+01  0.24133328484E+02  0.50528847671E+02  0.29999962981E+02 0.  0.
         12    1    1    2    0    0  0.32631151793E+02  0.24407083182E+01 -0.24133328484E+02  0.40659152329E+02  0.00000000000E+00 0. -1.
         11    1    3    3    0    0  0.25003913486E+01  0.26718214881E+00 -0.29828595690E+01  0.39013836861E+01  0.51100000000E-03 0. -1.
        -11    1    3    3    0    0 -0.13890873267E+01  0.15288916716E+01  0.65886536996E+01  0.69048845884E+01  0.51100000000E-03 0.  1.
        -12    1    3    3    0    0 -0.33742455814E+02 -0.42367821386E+01  0.20527534353E+02  0.39722579396E+02  0.00000000000E+00 0.  1.
</event>
<event>
 7    1  0.2755991E-011  0.5052886E+02  0.7816164E-02  0.1300439E+00
        -11   -1    0    0    0    0  0.00000000000E+00  0.00000000000E+00  0.45593999997E+02  0.45594000000E+02  0.51100000000E-03 0. -1.
         11   -1    0    0    0    0 -0.00000000000E+00 -0.00000000000E+00 -0.45593999997E+02  0.45594000000E+02  0.51100000000E-03 0.  1.
    9900012    2    1    2    0    0 -0.37031759450E+02  0.60624572314E+01 -0.15654436148E+02  0.50528856295E+02  0.29999989195E+02 0.  0.
         12    1    1    2    0    0  0.37031759450E+02 -0.60624572314E+01  0.15654436148E+02  0.40659143705E+02  0.00000000000E+00 0. -1.
         11    1    3    3    0    0 -0.23312455864E+01 -0.26450972426E+01 -0.29819498278E+01  0.46177126852E+01  0.51100000000E-03 0. -1.
        -11    1    3    3    0    0 -0.80710042055E+01  0.37074828317E+01 -0.16311629823E+02  0.18572985909E+02  0.51100000000E-03 0.  1.
         12    1    3    3    0    0 -0.26629509659E+02  0.50000716423E+01  0.36391435020E+01  0.27338157702E+02  0.00000000000E+00 0. -1.
</event>
<event>
 7    1  0.2755991E-011  0.5052886E+02  0.7816164E-02  0.1300439E+00
        -11   -1    0    0    0    0  0.00000000000E+00  0.00000000000E+00  0.45593999997E+02  0.45594000000E+02  0.51100000000E-03 0.  1.
         11   -1    0    0    0    0 -0.00000000000E+00 -0.00000000000E+00 -0.45593999997E+02  0.45594000000E+02  0.51100000000E-03 0. -1.
    9900012    2    1    2    0    0  0.23317763991E+02 -0.30876947437E+02  0.12492463332E+02  0.50528860306E+02  0.30000001386E+02 0.  0.
         12    1    1    2    0    0 -0.23317763991E+02  0.30876947437E+02 -0.12492463332E+02  0.40659139694E+02  0.00000000000E+00 0. -1.
         11    1    3    3    0    0  0.11125377132E+02  0.12731507485E+01  0.15271918495E+01  0.11301647861E+02  0.51100000000E-03 0. -1.
        -11    1    3    3    0    0  0.10470222592E+02 -0.13905019502E+02  0.11553515305E+02  0.20891597465E+02  0.51100000000E-03 0.  1.
        -12    1    3    3    0    0  0.17221642671E+01 -0.18245078683E+02 -0.58824382249E+00  0.18335614980E+02  0.00000000000E+00 0.  1.
</event>
<event>
 7    1  0.2755991E-011  0.5052887E+02  0.7816164E-02  0.1300439E+00
        -11   -1    0    0    0    0  0.00000000000E+00  0.00000000000E+00  0.45593999997E+02  0.45594000000E+02  0.51100000000E-03 0.  1.
         11   -1    0    0    0    0 -0.00000000000E+00 -0.00000000000E+00 -0.45593999997E+02  0.45594000000E+02  0.51100000000E-03 0. -1.
    9900012    2    1    2    0    0  0.20529076632E+02  0.20607938719E+02  0.28408357474E+02  0.50528869415E+02  0.30000029073E+02 0.  0.
         12    1    1    2    0    0 -0.20529076632E+02 -0.20607938719E+02 -0.28408357474E+02  0.40659130585E+02  0.00000000000E+00 0. -1.
         11    1    3    3    0    0 -0.34002602374E+01  0.26449131014E+01  0.43722186174E+01  0.61378848878E+01  0.51100000000E-03 0. -1.
        -11    1    3    3    0    0  0.69581373424E-01  0.12774529105E+02  0.65336552396E+01  0.14348591794E+02  0.51100000000E-03 0.  1.
        -12    1    3    3    0    0  0.23859755495E+02  0.51884965123E+01  0.17502483617E+02  0.30042392733E+02  0.00000000000E+00 0.  1.
</event>
<event>
 7    1  0.2755991E-011  0.5052886E+02  0.7816164E-02  0.1300439E+00
        -11   -1    0    0    0    0  0.00000000000E+00  0.00000000000E+00  0.45593999997E+02  0.45594000000E+02  0.51100000000E-03 0. -1.
         11   -1    0    0    0    0 -0.00000000000E+00 -0.00000000000E+00 -0.45593999997E+02  0.45594000000E+02  0.51100000000E-03 0.  1.
    9900012    2    1    2    0    0 -0.39390877210E+02  0.98783839730E+01 -0.19854130313E+01  0.50528861517E+02  0.30000005066E+02 0.  0.
         12    1    1    2    0    0  0.39390877210E+02 -0.98783839730E+01  0.19854130313E+01  0.40659138483E+02  0.00000000000E+00 0. -1.
         11    1    3    3    0    0 -0.13384272528E+02 -0.62002418971E+01 -0.56364181368E+00  0.14761417379E+02  0.51100000000E-03 0. -1.
        -11    1    3    3    0    0 -0.17187396132E+02  0.11202466412E+02 -0.97304390162E+01  0.22706459064E+02  0.51100000000E-03 0.  1.
        -12    1    3    3    0    0 -0.88192085498E+01  0.48761594579E+01  0.83086677986E+01  0.13060985074E+02  0.00000000000E+00 0.  1.
</event>
<event>
 7    1  0.2755991E-011  0.5052886E+02  0.7816164E-02  0.1300439E+00
        -11   -1    0    0    0    0  0.00000000000E+00  0.00000000000E+00  0.45593999997E+02  0.45594000000E+02  0.51100000000E-03 0. -1.
         11   -1    0    0    0    0 -0.00000000000E+00 -0.00000000000E+00 -0.45593999997E+02  0.45594000000E+02  0.51100000000E-03 0.  1.
    9900012    2    1    2    0    0 -0.27744736111E+02  0.87806650223E+01 -0.28395341098E+02  0.50528857656E+02  0.29999993330E+02 0.  0.
         12    1    1    2    0    0  0.27744736111E+02 -0.87806650223E+01  0.28395341098E+02  0.40659142344E+02  0.00000000000E+00 0. -1.
         11    1    3    3    0    0  0.56087984085E+00 -0.16690931756E+01 -0.23670083690E+01  0.29501164561E+01  0.51100000000E-03 0. -1.
        -11    1    3    3    0    0 -0.11197235880E+01  0.20540555976E+01  0.49754028467E+01  0.54979595360E+01  0.51100000000E-03 0.  1.
        -12    1    3    3    0    0 -0.27185892363E+02  0.83957026004E+01 -0.31003735576E+02  0.42080781664E+02  0.00000000000E+00 0.  1.
</event>
<event>
 7    1  0.2755991E-011  0.5052883E+02  0.7816164E-02  0.1300439E+00
        -11   -1    0    0    0    0  0.00000000000E+00  0.00000000000E+00  0.45593999997E+02  0.45594000000E+02  0.51100000000E-03 0.  1.
         11   -1    0    0    0    0 -0.00000000000E+00 -0.00000000000E+00 -0.45593999997E+02  0.45594000000E+02  0.51100000000E-03 0. -1.
    9900012    2    1    2    0    0  0.57638922122E+01  0.17201912257E+01  0.40211775878E+02  0.50528825998E+02  0.29999897103E+02 0.  0.
         12    1    1    2    0    0 -0.57638922122E+01 -0.17201912257E+01 -0.40211775878E+02  0.40659174002E+02  0.00000000000E+00 0. -1.
         11    1    3    3    0    0 -0.47262219404E+01 -0.82291903951E+00  0.20767340353E+02  0.21314239258E+02  0.51100000000E-03 0. -1.
        -11    1    3    3    0    0  0.40785718281E+01  0.39886069757E+01  0.21566335534E+02  0.22308082894E+02  0.51100000000E-03 0.  1.
         12    1    3    3    0    0  0.64115423245E+01 -0.14454967105E+01 -0.21219000092E+01  0.69065038455E+01  0.00000000000E+00 0. -1.
</event>
<event>
 7    1  0.2755991E-011  0.5052885E+02  0.7816164E-02  0.1300439E+00
        -11   -1    0    0    0    0  0.00000000000E+00  0.00000000000E+00  0.45593999997E+02  0.45594000000E+02  0.51100000000E-03 0. -1.
         11   -1    0    0    0    0 -0.00000000000E+00 -0.00000000000E+00 -0.45593999997E+02  0.45594000000E+02  0.51100000000E-03 0.  1.
    9900012    2    1    2    0    0 -0.21303724814E+02  0.33379533440E+02 -0.92263175759E+01  0.50528845070E+02  0.29999955074E+02 0.  0.
         12    1    1    2    0    0  0.21303724814E+02 -0.33379533440E+02  0.92263175759E+01  0.40659154930E+02  0.00000000000E+00 0. -1.
         11    1    3    3    0    0  0.33893743441E+01  0.16846610898E+01 -0.43235724795E+01  0.57462353484E+01  0.51100000000E-03 0. -1.
        -11    1    3    3    0    0 -0.20848428120E+02  0.32969972107E+02 -0.78277602418E+01  0.39786302247E+02  0.51100000000E-03 0.  1.
         12    1    3    3    0    0 -0.38446710381E+01 -0.12750997569E+01  0.29250151453E+01  0.49963074747E+01  0.00000000000E+00 0. -1.
</event>
<event>
 7    1  0.2755991E-011  0.5052885E+02  0.7816164E-02  0.1300439E+00
        -11   -1    0    0    0    0  0.00000000000E+00  0.00000000000E+00  0.45593999997E+02  0.45594000000E+02  0.51100000000E-03 0.  1.
         11   -1    0    0    0    0 -0.00000000000E+00 -0.00000000000E+00 -0.45593999997E+02  0.45594000000E+02  0.51100000000E-03 0. -1.
    9900012    2    1    2    0    0  0.15007869258E+02  0.76250511355E+01  0.37010657064E+02  0.50528852434E+02  0.29999977458E+02 0.  0.
         12    1    1    2    0    0 -0.15007869258E+02 -0.76250511355E+01 -0.37010657064E+02  0.40659147566E+02  0.00000000000E+00 0. -1.
         11    1    3    3    0    0  0.23927675241E+01  0.51860979836E+01  0.45104265793E+00  0.57292572346E+01  0.51100000000E-03 0. -1.
        -11    1    3    3    0    0  0.10952346410E+02  0.11391519773E+02  0.28736092835E+02  0.32794567329E+02  0.51100000000E-03 0.  1.
         12    1    3    3    0    0  0.16627553240E+01 -0.89525666215E+01  0.78235215716E+01  0.12005027870E+02  0.00000000000E+00 0. -1.
</event>
<event>
 7    1  0.2755991E-011  0.5052884E+02  0.7816164E-02  0.1300439E+00
        -11   -1    0    0    0    0  0.00000000000E+00  0.00000000000E+00  0.45593999997E+02  0.45594000000E+02  0.51100000000E-03 0. -1.
         11   -1    0    0    0    0 -0.00000000000E+00 -0.00000000000E+00 -0.45593999997E+02  0.45594000000E+02  0.51100000000E-03 0.  1.
    9900012    2    1    2    0    0 -0.19203147209E+02 -0.33294490842E+02  0.13262086132E+02  0.50528844675E+02  0.29999953874E+02 0.  0.
         12    1    1    2    0    0  0.19203147209E+02  0.33294490842E+02 -0.13262086132E+02  0.40659155325E+02  0.00000000000E+00 0. -1.
         11    1    3    3    0    0 -0.10630332258E+02 -0.15156496612E+02  0.94000489172E+01  0.20762569045E+02  0.51100000000E-03 0. -1.
        -11    1    3    3    0    0 -0.13751680670E+02 -0.19239051416E+02  0.82584311845E+00  0.23662878898E+02  0.51100000000E-03 0.  1.
        -12    1    3    3    0    0  0.51788657193E+01  0.11010571859E+01  0.30361940967E+01  0.61033967312E+01  0.00000000000E+00 0.  1.
</event>
<event>
 7    1  0.2755991E-011  0.5052887E+02  0.7816164E-02  0.1300439E+00
        -11   -1    0    0    0    0  0.00000000000E+00  0.00000000000E+00  0.45593999997E+02  0.45594000000E+02  0.51100000000E-03 0. -1.
         11   -1    0    0    0    0 -0.00000000000E+00 -0.00000000000E+00 -0.45593999997E+02  0.45594000000E+02  0.51100000000E-03 0.  1.
    9900012    2    1    2    0    0  0.33782389805E+02  0.19741134650E+02 -0.11054546427E+02  0.50528865049E+02  0.30000015804E+02 0.  0.
         12    1    1    2    0    0 -0.33782389805E+02 -0.19741134650E+02  0.11054546427E+02  0.40659134951E+02  0.00000000000E+00 0. -1.
         11    1    3    3    0    0  0.14039709723E+02  0.63351120140E+01  0.47667326196E+00  0.15410201524E+02  0.51100000000E-03 0. -1.
        -11    1    3    3    0    0  0.13323330868E+02  0.17080132442E+02 -0.29192067647E+00  0.21663962878E+02  0.51100000000E-03 0.  1.
         12    1    3    3    0    0  0.64193492146E+01 -0.36741098065E+01 -0.11239299013E+02  0.13454700647E+02  0.00000000000E+00 0. -1.
</event>
<event>
 7    1  0.2755991E-011  0.5052888E+02  0.7816164E-02  0.1300439E+00
        -11   -1    0    0    0    0  0.00000000000E+00  0.00000000000E+00  0.45593999997E+02  0.45594000000E+02  0.51100000000E-03 0. -1.
         11   -1    0    0    0    0 -0.00000000000E+00 -0.00000000000E+00 -0.45593999997E+02  0.45594000000E+02  0.51100000000E-03 0.  1.
    9900012    2    1    2    0    0  0.19383633774E+01  0.36243090643E+02 -0.18326070871E+02  0.50528883611E+02  0.30000072224E+02 0.  0.
         12    1    1    2    0    0 -0.19383633774E+01 -0.36243090643E+02  0.18326070871E+02  0.40659116389E+02  0.00000000000E+00 0. -1.
         11    1    3    3    0    0  0.10153817379E+02  0.13021636618E+02 -0.64910738997E+01  0.17742521473E+02  0.51100000000E-03 0. -1.
        -11    1    3    3    0    0  0.52509020124E+01  0.78672221758E+01 -0.70862416677E+01  0.11818628429E+02  0.51100000000E-03 0.  1.
         12    1    3    3    0    0 -0.13466356014E+02  0.15354231849E+02 -0.47487553034E+01  0.20967733709E+02  0.00000000000E+00 0. -1.
</event>
<event>
 7    1  0.2755991E-011  0.5052888E+02  0.7816164E-02  0.1300439E+00
        -11   -1    0    0    0    0  0.00000000000E+00  0.00000000000E+00  0.45593999997E+02  0.45594000000E+02  0.51100000000E-03 0.  1.
         11   -1    0    0    0    0 -0.00000000000E+00 -0.00000000000E+00 -0.45593999997E+02  0.45594000000E+02  0.51100000000E-03 0. -1.
    9900012    2    1    2    0    0 -0.16861888612E+02  0.27356725915E+02  0.24908846207E+02  0.50528876058E+02  0.30000049267E+02 0.  0.
         12    1    1    2    0    0  0.16861888612E+02 -0.27356725915E+02 -0.24908846207E+02  0.40659123942E+02  0.00000000000E+00 0. -1.
         11    1    3    3    0    0 -0.44197917899E+01 -0.18233095709E+01  0.49445454178E+01  0.68780481902E+01  0.51100000000E-03 0. -1.
        -11    1    3    3    0    0 -0.51549077649E+01  0.97185841068E+01  0.20049829076E+02  0.22869621714E+02  0.51100000000E-03 0.  1.
        -12    1    3    3    0    0 -0.72871890569E+01  0.19461451379E+02 -0.85528286757E-01  0.20781206154E+02  0.00000000000E+00 0.  1.
</event>
<event>
 7    1  0.2755991E-011  0.5052886E+02  0.7816164E-02  0.1300439E+00
        -11   -1    0    0    0    0  0.00000000000E+00  0.00000000000E+00  0.45593999997E+02  0.45594000000E+02  0.51100000000E-03 0.  1.
         11   -1    0    0    0    0 -0.00000000000E+00 -0.00000000000E+00 -0.45593999997E+02  0.45594000000E+02  0.51100000000E-03 0. -1.
    9900012    2    1    2    0    0 -0.66704958938E+01  0.21304017097E+02  0.33982481630E+02  0.50528859359E+02  0.29999998507E+02 0.  0.
         12    1    1    2    0    0  0.66704958938E+01 -0.21304017097E+02 -0.33982481630E+02  0.40659140641E+02  0.00000000000E+00 0. -1.
         11    1    3    3    0    0  0.44754770310E+01 -0.35924079572E+01  0.14261334773E+02  0.15372734284E+02  0.51100000000E-03 0. -1.
        -11    1    3    3    0    0 -0.12484796142E+01  0.39444426233E+01  0.84058865618E+01  0.93688984468E+01  0.51100000000E-03 0.  1.
        -12    1    3    3    0    0 -0.98974933106E+01  0.20951982431E+02  0.11315260295E+02  0.25787226628E+02  0.00000000000E+00 0.  1.
</event>
<event>
 7    1  0.2755991E-011  0.5052886E+02  0.7816164E-02  0.1300439E+00
        -11   -1    0    0    0    0  0.00000000000E+00  0.00000000000E+00  0.45593999997E+02  0.45594000000E+02  0.51100000000E-03 0. -1.
         11   -1    0    0    0    0 -0.00000000000E+00 -0.00000000000E+00 -0.45593999997E+02  0.45594000000E+02  0.51100000000E-03 0.  1.
    9900012    2    1    2    0    0 -0.48839659741E+01  0.26466325339E+02 -0.30476981975E+02  0.50528856737E+02  0.29999990538E+02 0.  0.
         12    1    1    2    0    0  0.48839659741E+01 -0.26466325339E+02  0.30476981975E+02  0.40659143263E+02  0.00000000000E+00 0. -1.
         11    1    3    3    0    0 -0.31826876525E+01  0.70609557389E+01 -0.19809189543E+02  0.21269475482E+02  0.51100000000E-03 0.  1.
        -11    1    3    3    0    0 -0.53257597779E+01  0.13641777965E+01  0.30686375063E+01  0.62961285469E+01  0.51100000000E-03 0. -1.
         12    1    3    3    0    0  0.36244814563E+01  0.18041191803E+02 -0.13736429938E+02  0.22963252709E+02  0.00000000000E+00 0. -1.
</event>
<event>
 7    1  0.2755991E-011  0.5052889E+02  0.7816164E-02  0.1300439E+00
        -11   -1    0    0    0    0  0.00000000000E+00  0.00000000000E+00  0.45593999997E+02  0.45594000000E+02  0.51100000000E-03 0.  1.
         11   -1    0    0    0    0 -0.00000000000E+00 -0.00000000000E+00 -0.45593999997E+02  0.45594000000E+02  0.51100000000E-03 0. -1.
    9900012    2    1    2    0    0 -0.10783642832E+02 -0.25163114003E+02  0.30061502646E+02  0.50528890315E+02  0.30000092602E+02 0.  0.
         12    1    1    2    0    0  0.10783642832E+02  0.25163114003E+02 -0.30061502646E+02  0.40659109685E+02  0.00000000000E+00 0. -1.
         11    1    3    3    0    0 -0.15639740189E+02 -0.78860228204E+01  0.58163797277E+01  0.18455923236E+02  0.51100000000E-03 0. -1.
        -11    1    3    3    0    0  0.78493281599E+00  0.13532902219E+01  0.55270098605E+00  0.16592144501E+01  0.51100000000E-03 0.  1.
        -12    1    3    3    0    0  0.40711645407E+01 -0.18630381404E+02  0.23692421932E+02  0.30413752629E+02  0.00000000000E+00 0.  1.
</event>
<event>
 7    1  0.2755991E-011  0.5052886E+02  0.7816164E-02  0.1300439E+00
        -11   -1    0    0    0    0  0.00000000000E+00  0.00000000000E+00  0.45593999997E+02  0.45594000000E+02  0.51100000000E-03 0. -1.
         11   -1    0    0    0    0 -0.00000000000E+00 -0.00000000000E+00 -0.45593999997E+02  0.45594000000E+02  0.51100000000E-03 0.  1.
    9900012    2    1    2    0    0  0.39113523782E+02  0.87223648862E+01 -0.68715450909E+01  0.50528861743E+02  0.30000005754E+02 0.  0.
         12    1    1    2    0    0 -0.39113523782E+02 -0.87223648862E+01  0.68715450909E+01  0.40659138257E+02  0.00000000000E+00 0. -1.
         11    1    3    3    0    0 -0.65577507391E-01 -0.34123810722E+01 -0.37800146946E+01  0.50928534579E+01  0.51100000000E-03 0. -1.
        -11    1    3    3    0    0  0.15053046296E+02 -0.28468659866E+01  0.46328212515E+01  0.16005058005E+02  0.51100000000E-03 0.  1.
        -12    1    3    3    0    0  0.24126054994E+02  0.14981611945E+02 -0.77243516478E+01  0.29430950280E+02  0.00000000000E+00 0.  1.
</event>
<event>
 7    1  0.2755991E-011  0.5052886E+02  0.7816164E-02  0.1300439E+00
        -11   -1    0    0    0    0  0.00000000000E+00  0.00000000000E+00  0.45593999997E+02  0.45594000000E+02  0.51100000000E-03 0. -1.
         11   -1    0    0    0    0 -0.00000000000E+00 -0.00000000000E+00 -0.45593999997E+02  0.45594000000E+02  0.51100000000E-03 0.  1.
    9900012    2    1    2    0    0 -0.26816135649E+02 -0.15590608937E+02 -0.26286748087E+02  0.50528863964E+02  0.30000012506E+02 0.  0.
         12    1    1    2    0    0  0.26816135649E+02  0.15590608937E+02  0.26286748087E+02  0.40659136036E+02  0.00000000000E+00 0. -1.
         11    1    3    3    0    0  0.18837539831E+01 -0.79969904929E+00 -0.82969741312E+00  0.22082675782E+01  0.51100000000E-03 0. -1.
        -11    1    3    3    0    0 -0.51074435440E+01 -0.95700188536E+01 -0.21159682586E+02  0.23778212881E+02  0.51100000000E-03 0.  1.
        -12    1    3    3    0    0 -0.23592446089E+02 -0.52208910339E+01 -0.42973680879E+01  0.24542383505E+02  0.00000000000E+00 0.  1.
</event>
<event>
 7    1  0.2755991E-011  0.5052886E+02  0.7816164E-02  0.1300439E+00
        -11   -1    0    0    0    0  0.00000000000E+00  0.00000000000E+00  0.45593999997E+02  0.45594000000E+02  0.51100000000E-03 0.  1.
         11   -1    0    0    0    0 -0.00000000000E+00 -0.00000000000E+00 -0.45593999997E+02  0.45594000000E+02  0.51100000000E-03 0. -1.
    9900012    2    1    2    0    0 -0.67400773035E+01 -0.27192050777E+02  0.29467426890E+02  0.50528861850E+02  0.30000006080E+02 0.  0.
         12    1    1    2    0    0  0.67400773035E+01  0.27192050777E+02 -0.29467426890E+02  0.40659138150E+02  0.00000000000E+00 0. -1.
         11    1    3    3    0    0  0.50925368500E+01 -0.23677960438E+02  0.20384458612E+02  0.31656056217E+02  0.51100000000E-03 0.  1.
        -11    1    3    3    0    0 -0.40238699061E+01 -0.61985362655E+01  0.12571682361E+01  0.74962559382E+01  0.51100000000E-03 0. -1.
        -12    1    3    3    0    0 -0.78087442475E+01  0.26844459263E+01  0.78258000424E+01  0.11376549695E+02  0.00000000000E+00 0.  1.
</event>
<event>
 7    1  0.2755991E-011  0.5052887E+02  0.7816164E-02  0.1300439E+00
        -11   -1    0    0    0    0  0.00000000000E+00  0.00000000000E+00  0.45593999997E+02  0.45594000000E+02  0.51100000000E-03 0.  1.
         11   -1    0    0    0    0 -0.00000000000E+00 -0.00000000000E+00 -0.45593999997E+02  0.45594000000E+02  0.51100000000E-03 0. -1.
    9900012    2    1    2    0    0 -0.33543900503E+02  0.15327878379E+02  0.17118062572E+02  0.50528865937E+02  0.30000018502E+02 0.  0.
         12    1    1    2    0    0  0.33543900503E+02 -0.15327878379E+02 -0.17118062572E+02  0.40659134063E+02  0.00000000000E+00 0. -1.
         11    1    3    3    0    0 -0.12340546712E+02  0.82578338000E+01 -0.57061717659E+01  0.15907272196E+02  0.51100000000E-03 0. -1.
        -11    1    3    3    0    0 -0.13596361909E+02  0.47883426040E+01  0.52587450070E+01  0.15344174183E+02  0.51100000000E-03 0.  1.
        -12    1    3    3    0    0 -0.76069918811E+01  0.22817019749E+01  0.17565489331E+02  0.19277419558E+02  0.00000000000E+00 0.  1.
</event>
<event>
 7    1  0.2755991E-011  0.5052885E+02  0.7816164E-02  0.1300439E+00
        -11   -1    0    0    0    0  0.00000000000E+00  0.00000000000E+00  0.45593999997E+02  0.45594000000E+02  0.51100000000E-03 0. -1.
         11   -1    0    0    0    0 -0.00000000000E+00 -0.00000000000E+00 -0.45593999997E+02  0.45594000000E+02  0.51100000000E-03 0.  1.
    9900012    2    1    2    0    0  0.13488580979E+02  0.34278640683E+02 -0.17210437768E+02  0.50528853525E+02  0.29999980775E+02 0.  0.
         12    1    1    2    0    0 -0.13488580979E+02 -0.34278640683E+02  0.17210437768E+02  0.40659146475E+02  0.00000000000E+00 0. -1.
         11    1    3    3    0    0  0.20723914741E+00  0.41684780772E+01 -0.52021114407E+00  0.42059217111E+01  0.51100000000E-03 0. -1.
        -11    1    3    3    0    0  0.69072130372E+01  0.33641633686E+02 -0.18219775950E+02  0.38877105666E+02  0.51100000000E-03 0.  1.
         12    1    3    3    0    0  0.63741287946E+01 -0.35314710807E+01  0.15295493264E+01  0.74458261480E+01  0.00000000000E+00 0. -1.
</event>
<event>
 7    1  0.2755991E-011  0.5052894E+02  0.7816164E-02  0.1300439E+00
        -11   -1    0    0    0    0  0.00000000000E+00  0.00000000000E+00  0.45593999997E+02  0.45594000000E+02  0.51100000000E-03 0.  1.
         11   -1    0    0    0    0 -0.00000000000E+00 -0.00000000000E+00 -0.45593999997E+02  0.45594000000E+02  0.51100000000E-03 0. -1.
    9900012    2    1    2    0    0 -0.19719409290E+02 -0.79367891906E+00  0.35548198860E+02  0.50528936175E+02  0.30000231996E+02 0.  0.
         12    1    1    2    0    0  0.19719409290E+02  0.79367891906E+00 -0.35548198860E+02  0.40659063825E+02  0.00000000000E+00 0. -1.
         11    1    3    3    0    0 -0.12776060870E+02  0.53146546398E+01  0.10562736162E+02  0.17408178560E+02  0.51100000000E-03 0. -1.
        -11    1    3    3    0    0 -0.10171348309E+02  0.41515319899E+01  0.12706834110E+02  0.16797475336E+02  0.51100000000E-03 0.  1.
        -12    1    3    3    0    0  0.32279998891E+01 -0.10259865549E+02  0.12278628588E+02  0.16323282279E+02  0.00000000000E+00 0.  1.
</event>
<event>
 7    1  0.2755991E-011  0.5052883E+02  0.7816164E-02  0.1300439E+00
        -11   -1    0    0    0    0  0.00000000000E+00  0.00000000000E+00  0.45593999997E+02  0.45594000000E+02  0.51100000000E-03 0.  1.
         11   -1    0    0    0    0 -0.00000000000E+00 -0.00000000000E+00 -0.45593999997E+02  0.45594000000E+02  0.51100000000E-03 0. -1.
    9900012    2    1    2    0    0 -0.12817890926E+02  0.25699217710E+02  0.28782289702E+02  0.50528827367E+02  0.29999901264E+02 0.  0.
         12    1    1    2    0    0  0.12817890926E+02 -0.25699217710E+02 -0.28782289702E+02  0.40659172633E+02  0.00000000000E+00 0. -1.
         11    1    3    3    0    0  0.34199063303E+01  0.13047537046E+02  0.19339534979E+01  0.13626230537E+02  0.51100000000E-03 0. -1.
        -11    1    3    3    0    0 -0.29427315654E+01  0.89866115752E+01  0.41139377268E+01  0.10312290752E+02  0.51100000000E-03 0.  1.
        -12    1    3    3    0    0 -0.13295065691E+02  0.36650690892E+01  0.22734398478E+02  0.26590306078E+02  0.00000000000E+00 0.  1.
</event>
<event>
 7    1  0.2755991E-011  0.5052880E+02  0.7816164E-02  0.1300439E+00
        -11   -1    0    0    0    0  0.00000000000E+00  0.00000000000E+00  0.45593999997E+02  0.45594000000E+02  0.51100000000E-03 0. -1.
         11   -1    0    0    0    0 -0.00000000000E+00 -0.00000000000E+00 -0.45593999997E+02  0.45594000000E+02  0.51100000000E-03 0.  1.
    9900012    2    1    2    0    0 -0.24722520503E+01  0.13864323951E+02 -0.38142354212E+02  0.50528798167E+02  0.29999812509E+02 0.  0.
         12    1    1    2    0    0  0.24722520503E+01 -0.13864323951E+02  0.38142354212E+02  0.40659201833E+02  0.00000000000E+00 0. -1.
         11    1    3    3    0    0 -0.75102155511E+01  0.14147207046E+02 -0.18835538157E+02  0.24724973261E+02  0.51100000000E-03 0. -1.
        -11    1    3    3    0    0 -0.25483598434E+01  0.63953985150E+01 -0.63016692227E+01  0.93330753404E+01  0.51100000000E-03 0.  1.
        -12    1    3    3    0    0  0.75863233441E+01 -0.66782816094E+01 -0.13005146832E+02  0.16470749566E+02  0.00000000000E+00 0.  1.
</event>
<event>
 7    1  0.2755991E-011  0.5052885E+02  0.7816164E-02  0.1300439E+00
        -11   -1    0    0    0    0  0.00000000000E+00  0.00000000000E+00  0.45593999997E+02  0.45594000000E+02  0.51100000000E-03 0.  1.
         11   -1    0    0    0    0 -0.00000000000E+00 -0.00000000000E+00 -0.45593999997E+02  0.45594000000E+02  0.51100000000E-03 0. -1.
    9900012    2    1    2    0    0  0.73408137534E+01 -0.88460063274E+01  0.39000342431E+02  0.50528854851E+02  0.29999984806E+02 0.  0.
         12    1    1    2    0    0 -0.73408137534E+01  0.88460063274E+01 -0.39000342431E+02  0.40659145149E+02  0.00000000000E+00 0. -1.
         11    1    3    3    0    0  0.50083145965E+01 -0.38549864697E+01  0.27920689091E+01  0.69093982974E+01  0.51100000000E-03 0. -1.
        -11    1    3    3    0    0 -0.31171864900E+01  0.79483717253E+01  0.22204547914E+02  0.23789397072E+02  0.51100000000E-03 0.  1.
         12    1    3    3    0    0  0.54496856469E+01 -0.12939391583E+02  0.14003725607E+02  0.19830059482E+02  0.00000000000E+00 0. -1.
</event>
<event>
 7    1  0.2755991E-011  0.5052886E+02  0.7816164E-02  0.1300439E+00
        -11   -1    0    0    0    0  0.00000000000E+00  0.00000000000E+00  0.45593999997E+02  0.45594000000E+02  0.51100000000E-03 0. -1.
         11   -1    0    0    0    0 -0.00000000000E+00 -0.00000000000E+00 -0.45593999997E+02  0.45594000000E+02  0.51100000000E-03 0.  1.
    9900012    2    1    2    0    0 -0.26719964125E+02 -0.30606280244E+02  0.15698949026E+01  0.50528862734E+02  0.30000008767E+02 0.  0.
         12    1    1    2    0    0  0.26719964125E+02  0.30606280244E+02 -0.15698949026E+01  0.40659137266E+02  0.00000000000E+00 0. -1.
         11    1    3    3    0    0 -0.99834122404E+01 -0.11767662412E+02  0.92923821480E+01  0.18013738226E+02  0.51100000000E-03 0. -1.
        -11    1    3    3    0    0 -0.94453366634E+01 -0.62898879981E+01  0.57420245880E+01  0.12718015661E+02  0.51100000000E-03 0.  1.
         12    1    3    3    0    0 -0.72912152207E+01 -0.12548729834E+02 -0.13464511833E+02  0.19797108848E+02  0.00000000000E+00 0. -1.
</event>
<event>
 7    1  0.2755991E-011  0.5052885E+02  0.7816164E-02  0.1300439E+00
        -11   -1    0    0    0    0  0.00000000000E+00  0.00000000000E+00  0.45593999997E+02  0.45594000000E+02  0.51100000000E-03 0. -1.
         11   -1    0    0    0    0 -0.00000000000E+00 -0.00000000000E+00 -0.45593999997E+02  0.45594000000E+02  0.51100000000E-03 0.  1.
    9900012    2    1    2    0    0 -0.24969930878E+02 -0.19715400236E+02 -0.25317423627E+02  0.50528851046E+02  0.29999973239E+02 0.  0.
         12    1    1    2    0    0  0.24969930878E+02  0.19715400236E+02  0.25317423627E+02  0.40659148954E+02  0.00000000000E+00 0. -1.
         11    1    3    3    0    0  0.28899079797E+01  0.33475726375E+01  0.83484073323E+00  0.45005299694E+01  0.51100000000E-03 0. -1.
        -11    1    3    3    0    0 -0.44154177444E+01  0.67598864759E+00 -0.23807876594E+01  0.50617215104E+01  0.51100000000E-03 0.  1.
        -12    1    3    3    0    0 -0.23444421114E+02 -0.23738961521E+02 -0.23771476701E+02  0.40966599566E+02  0.00000000000E+00 0.  1.
</event>
<event>
 7    1  0.2755991E-011  0.5052884E+02  0.7816164E-02  0.1300439E+00
        -11   -1    0    0    0    0  0.00000000000E+00  0.00000000000E+00  0.45593999997E+02  0.45594000000E+02  0.51100000000E-03 0. -1.
         11   -1    0    0    0    0 -0.00000000000E+00 -0.00000000000E+00 -0.45593999997E+02  0.45594000000E+02  0.51100000000E-03 0.  1.
    9900012    2    1    2    0    0 -0.88008697776E+01 -0.47000326871E+01 -0.39416011922E+02  0.50528836065E+02  0.29999927702E+02 0.  0.
         12    1    1    2    0    0  0.88008697776E+01  0.47000326871E+01  0.39416011922E+02  0.40659163935E+02  0.00000000000E+00 0. -1.
         11    1    3    3    0    0 -0.56948646734E+01 -0.36951011591E+00  0.34325121818E+01  0.66595916927E+01  0.51100000000E-03 0. -1.
        -11    1    3    3    0    0  0.15179570887E+01  0.57116320298E+00 -0.26282024227E+01  0.30883441135E+01  0.51100000000E-03 0.  1.
         12    1    3    3    0    0 -0.46239621929E+01 -0.49016857741E+01 -0.40220321681E+02  0.40780900259E+02  0.00000000000E+00 0. -1.
</event>
<event>
 7    1  0.2755991E-011  0.5052888E+02  0.7816164E-02  0.1300439E+00
        -11   -1    0    0    0    0  0.00000000000E+00  0.00000000000E+00  0.45593999997E+02  0.45594000000E+02  0.51100000000E-03 0.  1.
         11   -1    0    0    0    0 -0.00000000000E+00 -0.00000000000E+00 -0.45593999997E+02  0.45594000000E+02  0.51100000000E-03 0. -1.
    9900012    2    1    2    0    0  0.64192066210E+01 -0.39461002556E+02  0.74018290704E+01  0.50528880359E+02  0.30000062339E+02 0.  0.
         12    1    1    2    0    0 -0.64192066210E+01  0.39461002556E+02 -0.74018290704E+01  0.40659119641E+02  0.00000000000E+00 0. -1.
         11    1    3    3    0    0  0.93629525163E+01 -0.26898261520E+02  0.30232421611E+01  0.28641252522E+02  0.51100000000E-03 0. -1.
        -11    1    3    3    0    0  0.68979998061E+01 -0.73498103034E+01  0.36732654952E+01  0.10728233428E+02  0.51100000000E-03 0.  1.
         12    1    3    3    0    0 -0.98417457014E+01 -0.52129307330E+01  0.70532141415E+00  0.11159394409E+02  0.00000000000E+00 0. -1.
</event>
<event>
 7    1  0.2755991E-011  0.5052886E+02  0.7816164E-02  0.1300439E+00
        -11   -1    0    0    0    0  0.00000000000E+00  0.00000000000E+00  0.45593999997E+02  0.45594000000E+02  0.51100000000E-03 0.  1.
         11   -1    0    0    0    0 -0.00000000000E+00 -0.00000000000E+00 -0.45593999997E+02  0.45594000000E+02  0.51100000000E-03 0. -1.
    9900012    2    1    2    0    0 -0.39245983522E+02 -0.97300817750E+00 -0.10581652752E+02  0.50528863972E+02  0.30000012530E+02 0.  0.
         12    1    1    2    0    0  0.39245983522E+02  0.97300817750E+00  0.10581652752E+02  0.40659136028E+02  0.00000000000E+00 0. -1.
         11    1    3    3    0    0 -0.96759615594E+00 -0.58867856178E+00 -0.31151544423E+01  0.33146601983E+01  0.51100000000E-03 0. -1.
        -11    1    3    3    0    0 -0.30896972074E+02  0.96434173797E+01 -0.11142810967E+02  0.34231281288E+02  0.51100000000E-03 0.  1.
         12    1    3    3    0    0 -0.73814152922E+01 -0.10027746995E+02  0.36763126575E+01  0.12982922486E+02  0.00000000000E+00 0. -1.
</event>
<event>
 7    1  0.2755991E-011  0.5052886E+02  0.7816164E-02  0.1300439E+00
        -11   -1    0    0    0    0  0.00000000000E+00  0.00000000000E+00  0.45593999997E+02  0.45594000000E+02  0.51100000000E-03 0.  1.
         11   -1    0    0    0    0 -0.00000000000E+00 -0.00000000000E+00 -0.45593999997E+02  0.45594000000E+02  0.51100000000E-03 0. -1.
    9900012    2    1    2    0    0  0.21902086601E+02 -0.83594966432E+01  0.33220219717E+02  0.50528861056E+02  0.30000003667E+02 0.  0.
         12    1    1    2    0    0 -0.21902086601E+02  0.83594966432E+01 -0.33220219717E+02  0.40659138944E+02  0.00000000000E+00 0. -1.
         11    1    3    3    0    0  0.13569267232E+02 -0.75144223564E+01  0.98470038418E+01  0.18372671049E+02  0.51100000000E-03 0. -1.
        -11    1    3    3    0    0  0.56516542558E+01 -0.30381375736E+01  0.26635801064E+02  0.27397762214E+02  0.51100000000E-03 0.  1.
         12    1    3    3    0    0  0.26811651134E+01  0.21930632869E+01 -0.32625851891E+01  0.47584277931E+01  0.00000000000E+00 0. -1.
</event>
<event>
 7    1  0.2755991E-011  0.5052886E+02  0.7816164E-02  0.1300439E+00
        -11   -1    0    0    0    0  0.00000000000E+00  0.00000000000E+00  0.45593999997E+02  0.45594000000E+02  0.51100000000E-03 0. -1.
         11   -1    0    0    0    0 -0.00000000000E+00 -0.00000000000E+00 -0.45593999997E+02  0.45594000000E+02  0.51100000000E-03 0.  1.
    9900012    2    1    2    0    0 -0.23926216038E+02 -0.22225905346E+02 -0.24222115466E+02  0.50528861298E+02  0.30000004402E+02 0.  0.
         12    1    1    2    0    0  0.23926216038E+02  0.22225905346E+02  0.24222115466E+02  0.40659138702E+02  0.00000000000E+00 0. -1.
         11    1    3    3    0    0  0.45109756357E+01 -0.31946129805E+01 -0.17721974765E+01  0.58047512813E+01  0.51100000000E-03 0. -1.
        -11    1    3    3    0    0 -0.18323520408E+02 -0.77920937880E+01 -0.21893993971E+02  0.29594173379E+02  0.51100000000E-03 0.  1.
         12    1    3    3    0    0 -0.10113671266E+02 -0.11239198578E+02 -0.55592401823E+00  0.15129936637E+02  0.00000000000E+00 0. -1.
</event>
<event>
 7    1  0.2755991E-011  0.5052886E+02  0.7816164E-02  0.1300439E+00
        -11   -1    0    0    0    0  0.00000000000E+00  0.00000000000E+00  0.45593999997E+02  0.45594000000E+02  0.51100000000E-03 0. -1.
         11   -1    0    0    0    0 -0.00000000000E+00 -0.00000000000E+00 -0.45593999997E+02  0.45594000000E+02  0.51100000000E-03 0.  1.
    9900012    2    1    2    0    0 -0.10599347958E+02  0.17780000342E+02 -0.34995589137E+02  0.50528857752E+02  0.29999993624E+02 0.  0.
         12    1    1    2    0    0  0.10599347958E+02 -0.17780000342E+02  0.34995589137E+02  0.40659142248E+02  0.00000000000E+00 0. -1.
         11    1    3    3    0    0 -0.75054821258E+01  0.15899324430E+02 -0.10148814346E+02  0.20300719499E+02  0.51100000000E-03 0. -1.
        -11    1    3    3    0    0 -0.13635179194E+01  0.83454890711E+01 -0.64003403371E+01  0.10605221622E+02  0.51100000000E-03 0.  1.
        -12    1    3    3    0    0 -0.17303479126E+01 -0.64648131593E+01 -0.18446434453E+02  0.19622916632E+02  0.00000000000E+00 0.  1.
</event>
<event>
 7    1  0.2755991E-011  0.5052885E+02  0.7816164E-02  0.1300439E+00
        -11   -1    0    0    0    0  0.00000000000E+00  0.00000000000E+00  0.45593999997E+02  0.45594000000E+02  0.51100000000E-03 0.  1.
         11   -1    0    0    0    0 -0.00000000000E+00 -0.00000000000E+00 -0.45593999997E+02  0.45594000000E+02  0.51100000000E-03 0. -1.
    9900012    2    1    2    0    0 -0.86177316917E+01 -0.24626979540E+00  0.39734626294E+02  0.50528850045E+02  0.29999970197E+02 0.  0.
         12    1    1    2    0    0  0.86177316917E+01  0.24626979540E+00 -0.39734626294E+02  0.40659149955E+02  0.00000000000E+00 0. -1.
         11    1    3    3    0    0  0.65982925497E+01  0.74946953162E+01  0.15028222711E+02  0.18043153842E+02  0.51100000000E-03 0. -1.
        -11    1    3    3    0    0  0.17777441545E+01  0.67082574238E+00  0.38806084946E+01  0.43208221445E+01  0.51100000000E-03 0.  1.
         12    1    3    3    0    0 -0.16993768396E+02 -0.84117908539E+01  0.20825795089E+02  0.28164874059E+02  0.00000000000E+00 0. -1.
</event>
<event>
 7    1  0.2755991E-011  0.5052886E+02  0.7816164E-02  0.1300439E+00
        -11   -1    0    0    0    0  0.00000000000E+00  0.00000000000E+00  0.45593999997E+02  0.45594000000E+02  0.51100000000E-03 0.  1.
         11   -1    0    0    0    0 -0.00000000000E+00 -0.00000000000E+00 -0.45593999997E+02  0.45594000000E+02  0.51100000000E-03 0. -1.
    9900012    2    1    2    0    0 -0.29752016838E+02 -0.20468773688E+02  0.18681870764E+02  0.50528862067E+02  0.30000006738E+02 0.  0.
         12    1    1    2    0    0  0.29752016838E+02  0.20468773688E+02 -0.18681870764E+02  0.40659137933E+02  0.00000000000E+00 0. -1.
         11    1    3    3    0    0 -0.25279083171E+02 -0.11349384048E+02  0.11490095667E+02  0.29997714295E+02  0.51100000000E-03 0. -1.
        -11    1    3    3    0    0 -0.99532591007E+01 -0.18457847928E+01  0.38422552809E+01  0.10827613501E+02  0.51100000000E-03 0.  1.
         12    1    3    3    0    0  0.54803254339E+01 -0.72736048474E+01  0.33495198165E+01  0.97035342705E+01  0.00000000000E+00 0. -1.
</event>
<event>
 7    1  0.2755991E-011  0.5052886E+02  0.7816164E-02  0.1300439E+00
        -11   -1    0    0    0    0  0.00000000000E+00  0.00000000000E+00  0.45593999997E+02  0.45594000000E+02  0.51100000000E-03 0.  1.
         11   -1    0    0    0    0 -0.00000000000E+00 -0.00000000000E+00 -0.45593999997E+02  0.45594000000E+02  0.51100000000E-03 0. -1.
    9900012    2    1    2    0    0  0.29697618126E+01  0.21920219314E+02  0.34115243572E+02  0.50528863955E+02  0.30000012477E+02 0.  0.
         12    1    1    2    0    0 -0.29697618126E+01 -0.21920219314E+02 -0.34115243572E+02  0.40659136045E+02  0.00000000000E+00 0. -1.
         11    1    3    3    0    0  0.57396836124E+01 -0.30284398695E+01  0.46634327764E+01  0.79914342601E+01  0.51100000000E-03 0. -1.
        -11    1    3    3    0    0  0.54511987850E+01  0.13058538197E+01  0.64132718310E+01  0.85176803316E+01  0.51100000000E-03 0.  1.
        -12    1    3    3    0    0 -0.82211205847E+01  0.23642805364E+02  0.23038538964E+02  0.34019749363E+02  0.00000000000E+00 0.  1.
</event>
<event>
 7    1  0.2755991E-011  0.5052887E+02  0.7816164E-02  0.1300439E+00
        -11   -1    0    0    0    0  0.00000000000E+00  0.00000000000E+00  0.45593999997E+02  0.45594000000E+02  0.51100000000E-03 0.  1.
         11   -1    0    0    0    0 -0.00000000000E+00 -0.00000000000E+00 -0.45593999997E+02  0.45594000000E+02  0.51100000000E-03 0. -1.
    9900012    2    1    2    0    0  0.21449775349E+02 -0.33787387490E+02 -0.71752817952E+01  0.50528867142E+02  0.30000022165E+02 0.  0.
         12    1    1    2    0    0 -0.21449775349E+02  0.33787387490E+02  0.71752817952E+01  0.40659132858E+02  0.00000000000E+00 0. -1.
         11    1    3    3    0    0 -0.96274807412E+00 -0.16425333680E+02 -0.11717088541E+02  0.20199223612E+02  0.51100000000E-03 0. -1.
        -11    1    3    3    0    0  0.45950581619E+01 -0.35220766675E+01 -0.30264157019E+01  0.65328994960E+01  0.51100000000E-03 0.  1.
         12    1    3    3    0    0  0.17817465261E+02 -0.13839977142E+02  0.75682224481E+01  0.23796744035E+02  0.00000000000E+00 0. -1.
</event>
<event>
 7    1  0.2755991E-011  0.5052886E+02  0.7816164E-02  0.1300439E+00
        -11   -1    0    0    0    0  0.00000000000E+00  0.00000000000E+00  0.45593999997E+02  0.45594000000E+02  0.51100000000E-03 0. -1.
         11   -1    0    0    0    0 -0.00000000000E+00 -0.00000000000E+00 -0.45593999997E+02  0.45594000000E+02  0.51100000000E-03 0.  1.
    9900012    2    1    2    0    0 -0.16392589246E+02  0.24669460751E+02 -0.27854372154E+02  0.50528864200E+02  0.30000013222E+02 0.  0.
         12    1    1    2    0    0  0.16392589246E+02 -0.24669460751E+02  0.27854372154E+02  0.40659135800E+02  0.00000000000E+00 0. -1.
         11    1    3    3    0    0 -0.10871168992E+02  0.19928971548E+01 -0.11765349154E+02  0.16142409836E+02  0.51100000000E-03 0. -1.
        -11    1    3    3    0    0 -0.19770667795E+01  0.23250573209E+00 -0.10898678210E+02  0.11078990881E+02  0.51100000000E-03 0.  1.
        -12    1    3    3    0    0 -0.35443534739E+01  0.22444057864E+02 -0.51903447904E+01  0.23307463483E+02  0.00000000000E+00 0.  1.
</event>
<event>
 7    1  0.2755991E-011  0.5052886E+02  0.7816164E-02  0.1300439E+00
        -11   -1    0    0    0    0  0.00000000000E+00  0.00000000000E+00  0.45593999997E+02  0.45594000000E+02  0.51100000000E-03 0.  1.
         11   -1    0    0    0    0 -0.00000000000E+00 -0.00000000000E+00 -0.45593999997E+02  0.45594000000E+02  0.51100000000E-03 0. -1.
    9900012    2    1    2    0    0  0.21045799032E+02  0.39438553847E+01  0.34564233707E+02  0.50528857068E+02  0.29999991544E+02 0.  0.
         12    1    1    2    0    0 -0.21045799032E+02 -0.39438553847E+01 -0.34564233707E+02  0.40659142932E+02  0.00000000000E+00 0. -1.
         11    1    3    3    0    0 -0.52533678081E+00  0.80459242406E+00 -0.43336906220E+01  0.44389438350E+01  0.51100000000E-03 0. -1.
        -11    1    3    3    0    0  0.14052734547E+02 -0.27059340340E+01  0.17071721321E+02  0.22276559348E+02  0.51100000000E-03 0.  1.
        -12    1    3    3    0    0  0.75184012653E+01  0.58451969947E+01  0.21826203009E+02  0.23813353885E+02  0.00000000000E+00 0.  1.
</event>
<event>
 7    1  0.2755991E-011  0.5052886E+02  0.7816164E-02  0.1300439E+00
        -11   -1    0    0    0    0  0.00000000000E+00  0.00000000000E+00  0.45593999997E+02  0.45594000000E+02  0.51100000000E-03 0. -1.
         11   -1    0    0    0    0 -0.00000000000E+00 -0.00000000000E+00 -0.45593999997E+02  0.45594000000E+02  0.51100000000E-03 0.  1.
    9900012    2    1    2    0    0  0.30952519049E+02  0.18846337129E+02 -0.18436993707E+02  0.50528860860E+02  0.30000003071E+02 0.  0.
         12    1    1    2    0    0 -0.30952519049E+02 -0.18846337129E+02  0.18436993707E+02  0.40659139140E+02  0.00000000000E+00 0. -1.
         11    1    3    3    0    0  0.19778612593E+01 -0.43148744758E+00 -0.44389851360E+00  0.20724774377E+01  0.51100000000E-03 0. -1.
        -11    1    3    3    0    0  0.52991922869E+01  0.20238769754E+02 -0.53271177134E+01  0.21588594754E+02  0.51100000000E-03 0.  1.
        -12    1    3    3    0    0  0.23675465503E+02 -0.96094517810E+00 -0.12665977480E+02  0.26867788668E+02  0.00000000000E+00 0.  1.
</event>
<event>
 7    1  0.2755991E-011  0.5052886E+02  0.7816164E-02  0.1300439E+00
        -11   -1    0    0    0    0  0.00000000000E+00  0.00000000000E+00  0.45593999997E+02  0.45594000000E+02  0.51100000000E-03 0.  1.
         11   -1    0    0    0    0 -0.00000000000E+00 -0.00000000000E+00 -0.45593999997E+02  0.45594000000E+02  0.51100000000E-03 0. -1.
    9900012    2    1    2    0    0 -0.32363542686E+02  0.50424356654E+00  0.24607169660E+02  0.50528856435E+02  0.29999989621E+02 0.  0.
         12    1    1    2    0    0  0.32363542686E+02 -0.50424356654E+00 -0.24607169660E+02  0.40659143565E+02  0.00000000000E+00 0. -1.
         11    1    3    3    0    0 -0.12146018436E+02  0.15493564189E+01  0.59068588630E+01  0.13594750864E+02  0.51100000000E-03 0. -1.
        -11    1    3    3    0    0 -0.24322333400E+02 -0.62879562320E+01  0.13765191859E+02  0.28646025951E+02  0.51100000000E-03 0.  1.
         12    1    3    3    0    0  0.41048091504E+01  0.52428433796E+01  0.49351189379E+01  0.82880796205E+01  0.00000000000E+00 0. -1.
</event>
<event>
 7    1  0.2755991E-011  0.5052885E+02  0.7816164E-02  0.1300439E+00
        -11   -1    0    0    0    0  0.00000000000E+00  0.00000000000E+00  0.45593999997E+02  0.45594000000E+02  0.51100000000E-03 0. -1.
         11   -1    0    0    0    0 -0.00000000000E+00 -0.00000000000E+00 -0.45593999997E+02  0.45594000000E+02  0.51100000000E-03 0.  1.
    9900012    2    1    2    0    0  0.33614987529E+02  0.28306297556E+01 -0.22697715248E+02  0.50528854303E+02  0.29999983139E+02 0.  0.
         12    1    1    2    0    0 -0.33614987529E+02 -0.28306297556E+01  0.22697715248E+02  0.40659145697E+02  0.00000000000E+00 0. -1.
         11    1    3    3    0    0 -0.55884719678E+00 -0.20593286195E+01 -0.62108216316E+01  0.65671493171E+01  0.51100000000E-03 0. -1.
        -11    1    3    3    0    0 -0.23437115277E+01  0.32768972762E+01 -0.29046787546E+01  0.49667090122E+01  0.51100000000E-03 0.  1.
        -12    1    3    3    0    0  0.36517546253E+02  0.16130610989E+01 -0.13582214861E+02  0.38994995974E+02  0.00000000000E+00 0.  1.
</event>
<event>
 7    1  0.2755991E-011  0.5052873E+02  0.7816164E-02  0.1300439E+00
        -11   -1    0    0    0    0  0.00000000000E+00  0.00000000000E+00  0.45593999997E+02  0.45594000000E+02  0.51100000000E-03 0.  1.
         11   -1    0    0    0    0 -0.00000000000E+00 -0.00000000000E+00 -0.45593999997E+02  0.45594000000E+02  0.51100000000E-03 0. -1.
    9900012    2    1    2    0    0 -0.63751846913E+01  0.34539202250E+02  0.20483570663E+02  0.50528731204E+02  0.29999608964E+02 0.  0.
         12    1    1    2    0    0  0.63751846913E+01 -0.34539202250E+02 -0.20483570663E+02  0.40659268796E+02  0.00000000000E+00 0. -1.
         11    1    3    3    0    0 -0.60442632262E+01  0.12290169393E+02  0.12701099765E+02  0.18678846783E+02  0.51100000000E-03 0. -1.
        -11    1    3    3    0    0 -0.89186330767E+01  0.24254921022E+01  0.30606773271E+01  0.97361580644E+01  0.51100000000E-03 0.  1.
         12    1    3    3    0    0  0.85877116115E+01  0.19823540756E+02  0.47217935711E+01  0.22113726356E+02  0.00000000000E+00 0. -1.
</event>
<event>
 7    1  0.2755991E-011  0.5052886E+02  0.7816164E-02  0.1300439E+00
        -11   -1    0    0    0    0  0.00000000000E+00  0.00000000000E+00  0.45593999997E+02  0.45594000000E+02  0.51100000000E-03 0.  1.
         11   -1    0    0    0    0 -0.00000000000E+00 -0.00000000000E+00 -0.45593999997E+02  0.45594000000E+02  0.51100000000E-03 0. -1.
    9900012    2    1    2    0    0 -0.49741818376E+01  0.35617758397E+02  0.18968345747E+02  0.50528864021E+02  0.30000012679E+02 0.  0.
         12    1    1    2    0    0  0.49741818376E+01 -0.35617758397E+02 -0.18968345747E+02  0.40659135979E+02  0.00000000000E+00 0. -1.
         11    1    3    3    0    0  0.46370936860E+01  0.62752010402E+01  0.66020683874E+01  0.10220963418E+02  0.51100000000E-03 0. -1.
        -11    1    3    3    0    0  0.43245533058E+01  0.23902150676E+01 -0.35122689864E+01  0.60622539586E+01  0.51100000000E-03 0.  1.
        -12    1    3    3    0    0 -0.13935828829E+02  0.26952342289E+02  0.15878546346E+02  0.34245646644E+02  0.00000000000E+00 0.  1.
</event>
<event>
 7    1  0.2755991E-011  0.5052886E+02  0.7816164E-02  0.1300439E+00
        -11   -1    0    0    0    0  0.00000000000E+00  0.00000000000E+00  0.45593999997E+02  0.45594000000E+02  0.51100000000E-03 0.  1.
         11   -1    0    0    0    0 -0.00000000000E+00 -0.00000000000E+00 -0.45593999997E+02  0.45594000000E+02  0.51100000000E-03 0. -1.
    9900012    2    1    2    0    0  0.15408862863E+02  0.18076457904E+02  0.32999610030E+02  0.50528860225E+02  0.30000001140E+02 0.  0.
         12    1    1    2    0    0 -0.15408862863E+02 -0.18076457904E+02 -0.32999610030E+02  0.40659139775E+02  0.00000000000E+00 0. -1.
         11    1    3    3    0    0  0.46336795145E+01  0.11263804543E+01 -0.14551201324E+01  0.49856888824E+01  0.51100000000E-03 0. -1.
        -11    1    3    3    0    0  0.17181189468E+02  0.10712702805E+02  0.19446406736E+02  0.28073439549E+02  0.51100000000E-03 0.  1.
         12    1    3    3    0    0 -0.64060061195E+01  0.62373746452E+01  0.15008323426E+02  0.17469731793E+02  0.00000000000E+00 0. -1.
</event>
<event>
 7    1  0.2755991E-011  0.5052886E+02  0.7816164E-02  0.1300439E+00
        -11   -1    0    0    0    0  0.00000000000E+00  0.00000000000E+00  0.45593999997E+02  0.45594000000E+02  0.51100000000E-03 0.  1.
         11   -1    0    0    0    0 -0.00000000000E+00 -0.00000000000E+00 -0.45593999997E+02  0.45594000000E+02  0.51100000000E-03 0. -1.
    9900012    2    1    2    0    0 -0.80770556324E+00  0.31038233421E+02 -0.26251505186E+02  0.50528857773E+02  0.29999993686E+02 0.  0.
         12    1    1    2    0    0  0.80770556324E+00 -0.31038233421E+02  0.26251505186E+02  0.40659142227E+02  0.00000000000E+00 0. -1.
         11    1    3    3    0    0  0.73514182104E+00  0.43753045818E+00  0.69263000133E+00  0.11007283855E+01  0.51100000000E-03 0. -1.
        -11    1    3    3    0    0 -0.13038119674E+01 -0.52647773173E+01 -0.21923512302E+01  0.58501461541E+01  0.51100000000E-03 0.  1.
         12    1    3    3    0    0 -0.23903541685E+00  0.35865480280E+02 -0.24751783957E+02  0.43577983233E+02  0.00000000000E+00 0. -1.
</event>
<event>
 7    1  0.2755991E-011  0.5052886E+02  0.7816164E-02  0.1300439E+00
        -11   -1    0    0    0    0  0.00000000000E+00  0.00000000000E+00  0.45593999997E+02  0.45594000000E+02  0.51100000000E-03 0. -1.
         11   -1    0    0    0    0 -0.00000000000E+00 -0.00000000000E+00 -0.45593999997E+02  0.45594000000E+02  0.51100000000E-03 0.  1.
    9900012    2    1    2    0    0  0.39309083282E+02 -0.22830259715E+01 -0.10136537369E+02  0.50528860487E+02  0.30000001938E+02 0.  0.
         12    1    1    2    0    0 -0.39309083282E+02  0.22830259715E+01  0.10136537369E+02  0.40659139513E+02  0.00000000000E+00 0. -1.
         11    1    3    3    0    0  0.10475080115E+02 -0.40137004685E-01 -0.37327722734E+01  0.11120364360E+02  0.51100000000E-03 0. -1.
        -11    1    3    3    0    0  0.17330717494E+02 -0.13618235516E+02 -0.72654104403E+01  0.23207677535E+02  0.51100000000E-03 0.  1.
         12    1    3    3    0    0  0.11503285673E+02  0.11375346549E+02  0.86164534422E+00  0.16200818593E+02  0.00000000000E+00 0. -1.
</event>
<event>
 7    1  0.2755991E-011  0.5052886E+02  0.7816164E-02  0.1300439E+00
        -11   -1    0    0    0    0  0.00000000000E+00  0.00000000000E+00  0.45593999997E+02  0.45594000000E+02  0.51100000000E-03 0.  1.
         11   -1    0    0    0    0 -0.00000000000E+00 -0.00000000000E+00 -0.45593999997E+02  0.45594000000E+02  0.51100000000E-03 0. -1.
    9900012    2    1    2    0    0 -0.37864001985E+02  0.16761534834E+00  0.14814007999E+02  0.50528861123E+02  0.30000003870E+02 0.  0.
         12    1    1    2    0    0  0.37864001985E+02 -0.16761534834E+00 -0.14814007999E+02  0.40659138877E+02  0.00000000000E+00 0. -1.
         11    1    3    3    0    0 -0.11277905293E+02  0.10608599522E+02  0.43640723412E+01  0.16086598748E+02  0.51100000000E-03 0. -1.
        -11    1    3    3    0    0 -0.20386512639E+02  0.33601872718E-02  0.87231350968E+01  0.22174376994E+02  0.51100000000E-03 0.  1.
        -12    1    3    3    0    0 -0.61995840517E+01 -0.10444344361E+02  0.17268005611E+01  0.12267885381E+02  0.00000000000E+00 0.  1.
</event>
<event>
 7    1  0.2755991E-011  0.5052887E+02  0.7816164E-02  0.1300439E+00
        -11   -1    0    0    0    0  0.00000000000E+00  0.00000000000E+00  0.45593999997E+02  0.45594000000E+02  0.51100000000E-03 0. -1.
         11   -1    0    0    0    0 -0.00000000000E+00 -0.00000000000E+00 -0.45593999997E+02  0.45594000000E+02  0.51100000000E-03 0.  1.
    9900012    2    1    2    0    0  0.55149661932E+01 -0.36056549896E+02 -0.17963164748E+02  0.50528869042E+02  0.30000027939E+02 0.  0.
         12    1    1    2    0    0 -0.55149661932E+01  0.36056549896E+02  0.17963164748E+02  0.40659130958E+02  0.00000000000E+00 0. -1.
         11    1    3    3    0    0 -0.52575277178E+01 -0.24984484102E+01  0.74259868149E+00  0.58681594410E+01  0.51100000000E-03 0. -1.
        -11    1    3    3    0    0  0.11352300009E+02 -0.12937176056E+02 -0.16620203968E+02  0.23926479474E+02  0.51100000000E-03 0.  1.
         12    1    3    3    0    0 -0.57980609759E+00 -0.20620925430E+02 -0.20855594614E+01  0.20734230127E+02  0.00000000000E+00 0. -1.
</event>
<event>
 7    1  0.2755991E-011  0.5052887E+02  0.7816164E-02  0.1300439E+00
        -11   -1    0    0    0    0  0.00000000000E+00  0.00000000000E+00  0.45593999997E+02  0.45594000000E+02  0.51100000000E-03 0. -1.
         11   -1    0    0    0    0 -0.00000000000E+00 -0.00000000000E+00 -0.45593999997E+02  0.45594000000E+02  0.51100000000E-03 0.  1.
    9900012    2    1    2    0    0 -0.26625863690E+02  0.17903521468E+02 -0.24973822728E+02  0.50528874089E+02  0.30000043282E+02 0.  0.
         12    1    1    2    0    0  0.26625863690E+02 -0.17903521468E+02  0.24973822728E+02  0.40659125911E+02  0.00000000000E+00 0. -1.
         11    1    3    3    0    0 -0.19639717496E+02  0.23985856112E+01 -0.18511152549E+02  0.27094916224E+02  0.51100000000E-03 0. -1.
        -11    1    3    3    0    0 -0.10742304391E+02  0.10213153457E+02 -0.78869220822E+01  0.16790150308E+02  0.51100000000E-03 0.  1.
         12    1    3    3    0    0  0.37561581976E+01  0.52917823998E+01  0.14242519031E+01  0.66438075571E+01  0.00000000000E+00 0. -1.
</event>
<event>
 7    1  0.2755991E-011  0.5052886E+02  0.7816164E-02  0.1300439E+00
        -11   -1    0    0    0    0  0.00000000000E+00  0.00000000000E+00  0.45593999997E+02  0.45594000000E+02  0.51100000000E-03 0. -1.
         11   -1    0    0    0    0 -0.00000000000E+00 -0.00000000000E+00 -0.45593999997E+02  0.45594000000E+02  0.51100000000E-03 0.  1.
    9900012    2    1    2    0    0 -0.18955024086E+02 -0.64795581207E+01 -0.35382027493E+02  0.50528862268E+02  0.30000007350E+02 0.  0.
         12    1    1    2    0    0  0.18955024086E+02  0.64795581207E+01  0.35382027493E+02  0.40659137732E+02  0.00000000000E+00 0. -1.
         11    1    3    3    0    0  0.32606051183E+01 -0.20789442148E+00 -0.20743446580E+02  0.20999174796E+02  0.51100000000E-03 0. -1.
        -11    1    3    3    0    0 -0.14657545695E+01 -0.68595686522E+00  0.18398031860E+01  0.24502753526E+01  0.51100000000E-03 0.  1.
        -12    1    3    3    0    0 -0.20749874635E+02 -0.55857068340E+01 -0.16478384099E+02  0.27079412119E+02  0.00000000000E+00 0.  1.
</event>
<event>
 7    1  0.2755991E-011  0.5052886E+02  0.7816164E-02  0.1300439E+00
        -11   -1    0    0    0    0  0.00000000000E+00  0.00000000000E+00  0.45593999997E+02  0.45594000000E+02  0.51100000000E-03 0.  1.
         11   -1    0    0    0    0 -0.00000000000E+00 -0.00000000000E+00 -0.45593999997E+02  0.45594000000E+02  0.51100000000E-03 0. -1.
    9900012    2    1    2    0    0  0.25474484623E+02  0.41224498699E+01  0.31420084239E+02  0.50528860150E+02  0.30000000912E+02 0.  0.
         12    1    1    2    0    0 -0.25474484623E+02 -0.41224498699E+01 -0.31420084239E+02  0.40659139850E+02  0.00000000000E+00 0. -1.
         11    1    3    3    0    0  0.25958834881E+01  0.91413313022E+01  0.31462005063E+00  0.95079721864E+01  0.51100000000E-03 0. -1.
        -11    1    3    3    0    0  0.51264285799E+01 -0.32263683316E+01  0.11666212575E+01  0.61685272160E+01  0.51100000000E-03 0.  1.
        -12    1    3    3    0    0  0.17752172555E+02 -0.17925131007E+01  0.29938842931E+02  0.34852360748E+02  0.00000000000E+00 0.  1.
</event>
<event>
 7    1  0.2755991E-011  0.5052881E+02  0.7816164E-02  0.1300439E+00
        -11   -1    0    0    0    0  0.00000000000E+00  0.00000000000E+00  0.45593999997E+02  0.45594000000E+02  0.51100000000E-03 0.  1.
         11   -1    0    0    0    0 -0.00000000000E+00 -0.00000000000E+00 -0.45593999997E+02  0.45594000000E+02  0.51100000000E-03 0. -1.
    9900012    2    1    2    0    0 -0.13936317771E+02 -0.34743286979E+02  0.15869868994E+02  0.50528810571E+02  0.29999850211E+02 0.  0.
         12    1    1    2    0    0  0.13936317771E+02  0.34743286979E+02 -0.15869868994E+02  0.40659189429E+02  0.00000000000E+00 0. -1.
         11    1    3    3    0    0 -0.25944457209E+01  0.25971853861E+01  0.74924779439E+01  0.83434852747E+01  0.51100000000E-03 0. -1.
        -11    1    3    3    0    0  0.96296362937E+00 -0.13396116717E+01  0.34470899320E+01  0.38215556575E+01  0.51100000000E-03 0.  1.
        -12    1    3    3    0    0 -0.12304835679E+02 -0.36000860694E+02  0.49303011183E+01  0.38363769639E+02  0.00000000000E+00 0.  1.
</event>
<event>
 7    1  0.2755991E-011  0.5052886E+02  0.7816164E-02  0.1300439E+00
        -11   -1    0    0    0    0  0.00000000000E+00  0.00000000000E+00  0.45593999997E+02  0.45594000000E+02  0.51100000000E-03 0.  1.
         11   -1    0    0    0    0 -0.00000000000E+00 -0.00000000000E+00 -0.45593999997E+02  0.45594000000E+02  0.51100000000E-03 0. -1.
    9900012    2    1    2    0    0 -0.13118021330E+02 -0.38203359123E+02 -0.46461376882E+01  0.50528859240E+02  0.29999998147E+02 0.  0.
         12    1    1    2    0    0  0.13118021330E+02  0.38203359123E+02  0.46461376882E+01  0.40659140760E+02  0.00000000000E+00 0. -1.
         11    1    3    3    0    0  0.11934603479E+01 -0.19665653707E+02  0.50708627747E+01  0.20343940937E+02  0.51100000000E-03 0. -1.
        -11    1    3    3    0    0 -0.46091938844E+01 -0.16458972178E+02 -0.12446069952E+01  0.17137429220E+02  0.51100000000E-03 0.  1.
        -12    1    3    3    0    0 -0.97022877938E+01 -0.20787332380E+01 -0.84723934678E+01  0.13047489083E+02  0.00000000000E+00 0.  1.
</event>
<event>
 7    1  0.2755991E-011  0.5052886E+02  0.7816164E-02  0.1300439E+00
        -11   -1    0    0    0    0  0.00000000000E+00  0.00000000000E+00  0.45593999997E+02  0.45594000000E+02  0.51100000000E-03 0.  1.
         11   -1    0    0    0    0 -0.00000000000E+00 -0.00000000000E+00 -0.45593999997E+02  0.45594000000E+02  0.51100000000E-03 0. -1.
    9900012    2    1    2    0    0  0.32571908435E+02  0.70586259431E+00  0.24325670122E+02  0.50528859723E+02  0.29999999615E+02 0.  0.
         12    1    1    2    0    0 -0.32571908435E+02 -0.70586259431E+00 -0.24325670122E+02  0.40659140277E+02  0.00000000000E+00 0. -1.
         11    1    3    3    0    0  0.24551496219E+01  0.79480776974E-01 -0.36679705756E+01  0.44145311488E+01  0.51100000000E-03 0. -1.
        -11    1    3    3    0    0  0.15625307757E+02  0.65834317469E+00  0.12402945795E+01  0.15688275532E+02  0.51100000000E-03 0.  1.
        -12    1    3    3    0    0  0.14491451056E+02 -0.31961357354E-01  0.26753346118E+02  0.30426053043E+02  0.00000000000E+00 0.  1.
</event>
<event>
 7    1  0.2755991E-011  0.5052886E+02  0.7816164E-02  0.1300439E+00
        -11   -1    0    0    0    0  0.00000000000E+00  0.00000000000E+00  0.45593999997E+02  0.45594000000E+02  0.51100000000E-03 0.  1.
         11   -1    0    0    0    0 -0.00000000000E+00 -0.00000000000E+00 -0.45593999997E+02  0.45594000000E+02  0.51100000000E-03 0. -1.
    9900012    2    1    2    0    0  0.13541554932E+02 -0.37776225608E+02  0.65382681887E+01  0.50528857337E+02  0.29999992363E+02 0.  0.
         12    1    1    2    0    0 -0.13541554932E+02  0.37776225608E+02 -0.65382681887E+01  0.40659142663E+02  0.00000000000E+00 0. -1.
         11    1    3    3    0    0 -0.31708746822E+01 -0.89041476684E+01  0.73469073307E+01  0.11971438491E+02  0.51100000000E-03 0. -1.
        -11    1    3    3    0    0 -0.76343234838E+00 -0.43004081845E+01  0.62164154091E+01  0.75973785153E+01  0.51100000000E-03 0.  1.
         12    1    3    3    0    0  0.17475861963E+02 -0.24571669755E+02 -0.70250545511E+01  0.30960040332E+02  0.00000000000E+00 0. -1.
</event>
<event>
 7    1  0.2755991E-011  0.5052886E+02  0.7816164E-02  0.1300439E+00
        -11   -1    0    0    0    0  0.00000000000E+00  0.00000000000E+00  0.45593999997E+02  0.45594000000E+02  0.51100000000E-03 0. -1.
         11   -1    0    0    0    0 -0.00000000000E+00 -0.00000000000E+00 -0.45593999997E+02  0.45594000000E+02  0.51100000000E-03 0.  1.
    9900012    2    1    2    0    0  0.30425819164E+02 -0.26490801086E+02  0.50668453194E+01  0.50528856680E+02  0.29999990365E+02 0.  0.
         12    1    1    2    0    0 -0.30425819164E+02  0.26490801086E+02 -0.50668453194E+01  0.40659143320E+02  0.00000000000E+00 0. -1.
         11    1    3    3    0    0  0.17300704145E+02 -0.12658823654E+02  0.82899158663E+01  0.22984405268E+02  0.51100000000E-03 0. -1.
        -11    1    3    3    0    0  0.13086976655E+02 -0.72301274284E+01  0.60770983224E+01  0.16139232475E+02  0.51100000000E-03 0.  1.
        -12    1    3    3    0    0  0.38138364621E-01 -0.66018500039E+01 -0.93001688693E+01  0.11405218937E+02  0.00000000000E+00 0.  1.
</event>
<event>
 7    1  0.2755991E-011  0.5052887E+02  0.7816164E-02  0.1300439E+00
        -11   -1    0    0    0    0  0.00000000000E+00  0.00000000000E+00  0.45593999997E+02  0.45594000000E+02  0.51100000000E-03 0. -1.
         11   -1    0    0    0    0 -0.00000000000E+00 -0.00000000000E+00 -0.45593999997E+02  0.45594000000E+02  0.51100000000E-03 0.  1.
    9900012    2    1    2    0    0  0.71697828065E+00  0.23220977071E+02 -0.33368203657E+02  0.50528870038E+02  0.30000030968E+02 0.  0.
         12    1    1    2    0    0 -0.71697828065E+00 -0.23220977071E+02  0.33368203657E+02  0.40659129962E+02  0.00000000000E+00 0. -1.
         11    1    3    3    0    0 -0.69840636787E+01 -0.10358618628E+01 -0.11307527911E+02  0.13330804289E+02  0.51100000000E-03 0. -1.
        -11    1    3    3    0    0 -0.12574762939E+01  0.19754212295E+02 -0.12977349439E+02  0.23669003966E+02  0.51100000000E-03 0.  1.
        -12    1    3    3    0    0  0.89585182533E+01  0.45026266385E+01 -0.90833263071E+01  0.13529061783E+02  0.00000000000E+00 0.  1.
</event>
<event>
 7    1  0.2755991E-011  0.5052886E+02  0.7816164E-02  0.1300439E+00
        -11   -1    0    0    0    0  0.00000000000E+00  0.00000000000E+00  0.45593999997E+02  0.45594000000E+02  0.51100000000E-03 0.  1.
         11   -1    0    0    0    0 -0.00000000000E+00 -0.00000000000E+00 -0.45593999997E+02  0.45594000000E+02  0.51100000000E-03 0. -1.
    9900012    2    1    2    0    0 -0.31163501046E+02  0.83500672174E+01  0.24744254575E+02  0.50528861366E+02  0.30000004607E+02 0.  0.
         12    1    1    2    0    0  0.31163501046E+02 -0.83500672174E+01 -0.24744254575E+02  0.40659138634E+02  0.00000000000E+00 0. -1.
         11    1    3    3    0    0 -0.21069561486E+01  0.27358936411E+01 -0.22705508881E+01  0.41327690262E+01  0.51100000000E-03 0. -1.
        -11    1    3    3    0    0  0.39156797141E+01  0.24358966141E+00  0.51339142592E+01  0.64613434693E+01  0.51100000000E-03 0.  1.
        -12    1    3    3    0    0 -0.32972224612E+02  0.53705839149E+01  0.21880891204E+02  0.39934748870E+02  0.00000000000E+00 0.  1.
</event>
<event>
 7    1  0.2755991E-011  0.5052886E+02  0.7816164E-02  0.1300439E+00
        -11   -1    0    0    0    0  0.00000000000E+00  0.00000000000E+00  0.45593999997E+02  0.45594000000E+02  0.51100000000E-03 0.  1.
         11   -1    0    0    0    0 -0.00000000000E+00 -0.00000000000E+00 -0.45593999997E+02  0.45594000000E+02  0.51100000000E-03 0. -1.
    9900012    2    1    2    0    0 -0.17513337940E+02 -0.70903369528E+01  0.36002440559E+02  0.50528860682E+02  0.30000002528E+02 0.  0.
         12    1    1    2    0    0  0.17513337940E+02  0.70903369528E+01 -0.36002440559E+02  0.40659139318E+02  0.00000000000E+00 0. -1.
         11    1    3    3    0    0  0.27327936288E+01 -0.54548887871E+01  0.15266123937E+02  0.16440149422E+02  0.51100000000E-03 0. -1.
        -11    1    3    3    0    0  0.98184193262E+00 -0.33215878319E+01  0.92853255296E+01  0.99103092665E+01  0.51100000000E-03 0.  1.
        -12    1    3    3    0    0 -0.21227973501E+02  0.16861396661E+01  0.11450991093E+02  0.24178401993E+02  0.00000000000E+00 0.  1.
</event>
<event>
 7    1  0.2755991E-011  0.5052886E+02  0.7816164E-02  0.1300439E+00
        -11   -1    0    0    0    0  0.00000000000E+00  0.00000000000E+00  0.45593999997E+02  0.45594000000E+02  0.51100000000E-03 0.  1.
         11   -1    0    0    0    0 -0.00000000000E+00 -0.00000000000E+00 -0.45593999997E+02  0.45594000000E+02  0.51100000000E-03 0. -1.
    9900012    2    1    2    0    0  0.61207372268E+01  0.25761721599E+02  0.30855079311E+02  0.50528860275E+02  0.30000001291E+02 0.  0.
         12    1    1    2    0    0 -0.61207372268E+01 -0.25761721599E+02 -0.30855079311E+02  0.40659139725E+02  0.00000000000E+00 0. -1.
         11    1    3    3    0    0 -0.67698176339E+01  0.32425404129E+01  0.85004051352E+01  0.11340255149E+02  0.51100000000E-03 0. -1.
        -11    1    3    3    0    0  0.13797847303E+02  0.80324518152E+01  0.17943259382E+02  0.24017939751E+02  0.51100000000E-03 0.  1.
         12    1    3    3    0    0 -0.90729244253E+00  0.14486729370E+02  0.44114147939E+01  0.15170665375E+02  0.00000000000E+00 0. -1.
</event>
<event>
 7    1  0.2755991E-011  0.5052885E+02  0.7816164E-02  0.1300439E+00
        -11   -1    0    0    0    0  0.00000000000E+00  0.00000000000E+00  0.45593999997E+02  0.45594000000E+02  0.51100000000E-03 0.  1.
         11   -1    0    0    0    0 -0.00000000000E+00 -0.00000000000E+00 -0.45593999997E+02  0.45594000000E+02  0.51100000000E-03 0. -1.
    9900012    2    1    2    0    0  0.31174701698E+02  0.14072223482E+02  0.21983556270E+02  0.50528852862E+02  0.29999978761E+02 0.  0.
         12    1    1    2    0    0 -0.31174701698E+02 -0.14072223482E+02 -0.21983556270E+02  0.40659147138E+02  0.00000000000E+00 0. -1.
         11    1    3    3    0    0  0.18728708213E+02 -0.46688319250E+01  0.10199673927E+02  0.21831075359E+02  0.51100000000E-03 0. -1.
        -11    1    3    3    0    0  0.42387504663E+01  0.37905965326E+00  0.67252918556E+01  0.79586583379E+01  0.51100000000E-03 0.  1.
        -12    1    3    3    0    0  0.82072430188E+01  0.18361995754E+02  0.50585904880E+01  0.20739119166E+02  0.00000000000E+00 0.  1.
</event>
<event>
 7    1  0.2755991E-011  0.5052885E+02  0.7816164E-02  0.1300439E+00
        -11   -1    0    0    0    0  0.00000000000E+00  0.00000000000E+00  0.45593999997E+02  0.45594000000E+02  0.51100000000E-03 0.  1.
         11   -1    0    0    0    0 -0.00000000000E+00 -0.00000000000E+00 -0.45593999997E+02  0.45594000000E+02  0.51100000000E-03 0. -1.
    9900012    2    1    2    0    0 -0.37719902523E+02 -0.13292572071E+02 -0.73268380158E+01  0.50528854978E+02  0.29999985191E+02 0.  0.
         12    1    1    2    0    0  0.37719902523E+02  0.13292572071E+02  0.73268380158E+01  0.40659145022E+02  0.00000000000E+00 0. -1.
         11    1    3    3    0    0 -0.61035490208E+01  0.63718492277E+00 -0.63889540766E+01  0.88587837613E+01  0.51100000000E-03 0. -1.
        -11    1    3    3    0    0  0.29695518192E+01  0.19844706615E+01  0.24591696744E+00  0.35800610650E+01  0.51100000000E-03 0.  1.
        -12    1    3    3    0    0 -0.34585905321E+02 -0.15914227656E+02 -0.11838009067E+01  0.38090010152E+02  0.00000000000E+00 0.  1.
</event>
<event>
 7    1  0.2755991E-011  0.5052886E+02  0.7816164E-02  0.1300439E+00
        -11   -1    0    0    0    0  0.00000000000E+00  0.00000000000E+00  0.45593999997E+02  0.45594000000E+02  0.51100000000E-03 0.  1.
         11   -1    0    0    0    0 -0.00000000000E+00 -0.00000000000E+00 -0.45593999997E+02  0.45594000000E+02  0.51100000000E-03 0. -1.
    9900012    2    1    2    0    0 -0.25263648080E+02 -0.20002212090E+02  0.24795671267E+02  0.50528859374E+02  0.29999998555E+02 0.  0.
         12    1    1    2    0    0  0.25263648080E+02  0.20002212090E+02 -0.24795671267E+02  0.40659140626E+02  0.00000000000E+00 0. -1.
         11    1    3    3    0    0 -0.16463309485E+02 -0.99600033727E+00  0.76528666918E+01  0.18182380063E+02  0.51100000000E-03 0.  1.
        -11    1    3    3    0    0 -0.89767215834E+00 -0.45413055298E+00 -0.34087796712E+01  0.35541284404E+01  0.51100000000E-03 0. -1.
        -12    1    3    3    0    0 -0.79026664364E+01 -0.18552081200E+02  0.20551584246E+02  0.28792350871E+02  0.00000000000E+00 0.  1.
</event>
<event>
 7    1  0.2755991E-011  0.5052885E+02  0.7816164E-02  0.1300439E+00
        -11   -1    0    0    0    0  0.00000000000E+00  0.00000000000E+00  0.45593999997E+02  0.45594000000E+02  0.51100000000E-03 0. -1.
         11   -1    0    0    0    0 -0.00000000000E+00 -0.00000000000E+00 -0.45593999997E+02  0.45594000000E+02  0.51100000000E-03 0.  1.
    9900012    2    1    2    0    0 -0.25457416189E+02  0.29856186428E+00 -0.31701687314E+02  0.50528853959E+02  0.29999982093E+02 0.  0.
         12    1    1    2    0    0  0.25457416189E+02 -0.29856186428E+00  0.31701687314E+02  0.40659146041E+02  0.00000000000E+00 0. -1.
         11    1    3    3    0    0 -0.11043978269E+02  0.12342145658E+02 -0.23400803866E+02  0.28668722283E+02  0.51100000000E-03 0. -1.
        -11    1    3    3    0    0 -0.35548323811E+01 -0.27128511861E+01  0.12582020534E+01  0.46453705432E+01  0.51100000000E-03 0.  1.
        -12    1    3    3    0    0 -0.10858605539E+02 -0.93307326079E+01 -0.95590855013E+01  0.17214761133E+02  0.00000000000E+00 0.  1.
</event>
<event>
 7    1  0.2755991E-011  0.5052886E+02  0.7816164E-02  0.1300439E+00
        -11   -1    0    0    0    0  0.00000000000E+00  0.00000000000E+00  0.45593999997E+02  0.45594000000E+02  0.51100000000E-03 0. -1.
         11   -1    0    0    0    0 -0.00000000000E+00 -0.00000000000E+00 -0.45593999997E+02  0.45594000000E+02  0.51100000000E-03 0.  1.
    9900012    2    1    2    0    0 -0.40519885897E+02 -0.31085344134E+01  0.12811511843E+01  0.50528862188E+02  0.30000007106E+02 0.  0.
         12    1    1    2    0    0  0.40519885897E+02  0.31085344134E+01 -0.12811511843E+01  0.40659137812E+02  0.00000000000E+00 0. -1.
         11    1    3    3    0    0 -0.49428668764E+01 -0.54866265286E+00  0.86198745339E+01  0.99516431259E+01  0.51100000000E-03 0. -1.
        -11    1    3    3    0    0 -0.17598054159E+02  0.61633613757E+00  0.52800391334E+01  0.18383421714E+02  0.51100000000E-03 0.  1.
        -12    1    3    3    0    0 -0.17978964861E+02 -0.31762078981E+01 -0.12618762483E+02  0.22193797348E+02  0.00000000000E+00 0.  1.
</event>
<event>
 7    1  0.2755991E-011  0.5052886E+02  0.7816164E-02  0.1300439E+00
        -11   -1    0    0    0    0  0.00000000000E+00  0.00000000000E+00  0.45593999997E+02  0.45594000000E+02  0.51100000000E-03 0.  1.
         11   -1    0    0    0    0 -0.00000000000E+00 -0.00000000000E+00 -0.45593999997E+02  0.45594000000E+02  0.51100000000E-03 0. -1.
    9900012    2    1    2    0    0 -0.31185116407E+02  0.24763888482E+02  0.82099849917E+01  0.50528861893E+02  0.30000006209E+02 0.  0.
         12    1    1    2    0    0  0.31185116407E+02 -0.24763888482E+02 -0.82099849917E+01  0.40659138107E+02  0.00000000000E+00 0. -1.
         11    1    3    3    0    0 -0.81191524057E+01  0.32467708691E+01  0.14294446057E+02  0.16756889485E+02  0.51100000000E-03 0. -1.
        -11    1    3    3    0    0 -0.17887390894E+02  0.10272563019E+02 -0.19461342641E+01  0.20718874072E+02  0.51100000000E-03 0.  1.
        -12    1    3    3    0    0 -0.51785731072E+01  0.11244554594E+02 -0.41383268014E+01  0.13053098336E+02  0.00000000000E+00 0.  1.
</event>
<event>
 7    1  0.2755991E-011  0.5052886E+02  0.7816164E-02  0.1300439E+00
        -11   -1    0    0    0    0  0.00000000000E+00  0.00000000000E+00  0.45593999997E+02  0.45594000000E+02  0.51100000000E-03 0.  1.
         11   -1    0    0    0    0 -0.00000000000E+00 -0.00000000000E+00 -0.45593999997E+02  0.45594000000E+02  0.51100000000E-03 0. -1.
    9900012    2    1    2    0    0 -0.25402568144E+02 -0.80461807022E+01  0.30710483256E+02  0.50528864814E+02  0.30000015090E+02 0.  0.
         12    1    1    2    0    0  0.25402568144E+02  0.80461807022E+01 -0.30710483256E+02  0.40659135186E+02  0.00000000000E+00 0. -1.
         11    1    3    3    0    0  0.75255339065E+00 -0.11225522334E+01  0.40386433279E+01  0.42587674642E+01  0.51100000000E-03 0. -1.
        -11    1    3    3    0    0 -0.16491291173E+01 -0.78752663221E+01  0.18903605799E+02  0.20544725818E+02  0.51100000000E-03 0.  1.
        -12    1    3    3    0    0 -0.24505992418E+02  0.95163785329E+00  0.77682341294E+01  0.25725371532E+02  0.00000000000E+00 0.  1.
</event>
<event>
 7    1  0.2755991E-011  0.5052886E+02  0.7816164E-02  0.1300439E+00
        -11   -1    0    0    0    0  0.00000000000E+00  0.00000000000E+00  0.45593999997E+02  0.45594000000E+02  0.51100000000E-03 0.  1.
         11   -1    0    0    0    0 -0.00000000000E+00 -0.00000000000E+00 -0.45593999997E+02  0.45594000000E+02  0.51100000000E-03 0. -1.
    9900012    2    1    2    0    0  0.31909834051E+02  0.25173157016E+02  0.11137482063E+01  0.50528858613E+02  0.29999996239E+02 0.  0.
         12    1    1    2    0    0 -0.31909834051E+02 -0.25173157016E+02 -0.11137482063E+01  0.40659141387E+02  0.00000000000E+00 0. -1.
         11    1    3    3    0    0  0.12303249772E+01  0.10143337047E+02  0.60462834485E+00  0.10235553805E+02  0.51100000000E-03 0. -1.
        -11    1    3    3    0    0  0.12985737127E+02  0.17537129940E+02 -0.31623741243E+01  0.22049510326E+02  0.51100000000E-03 0.  1.
        -12    1    3    3    0    0  0.17693771947E+02 -0.25073099709E+01  0.36714939858E+01  0.18243794482E+02  0.00000000000E+00 0.  1.
</event>
<event>
 7    1  0.2755991E-011  0.5052886E+02  0.7816164E-02  0.1300439E+00
        -11   -1    0    0    0    0  0.00000000000E+00  0.00000000000E+00  0.45593999997E+02  0.45594000000E+02  0.51100000000E-03 0.  1.
         11   -1    0    0    0    0 -0.00000000000E+00 -0.00000000000E+00 -0.45593999997E+02  0.45594000000E+02  0.51100000000E-03 0. -1.
    9900012    2    1    2    0    0  0.19914810793E+02 -0.15005432700E+01  0.35416294937E+02  0.50528864912E+02  0.30000015387E+02 0.  0.
         12    1    1    2    0    0 -0.19914810793E+02  0.15005432700E+01 -0.35416294937E+02  0.40659135088E+02  0.00000000000E+00 0. -1.
         11    1    3    3    0    0 -0.41658123262E+01 -0.16613993307E+01 -0.34750286720E-02  0.44848915717E+01  0.51100000000E-03 0. -1.
        -11    1    3    3    0    0  0.67746396509E+01 -0.75877576457E+01  0.94158292430E+01  0.13861011835E+02  0.51100000000E-03 0.  1.
         12    1    3    3    0    0  0.17305983468E+02  0.77486137064E+01  0.26003940723E+02  0.32182961506E+02  0.00000000000E+00 0. -1.
</event>
<event>
 7    1  0.2755991E-011  0.5052886E+02  0.7816164E-02  0.1300439E+00
        -11   -1    0    0    0    0  0.00000000000E+00  0.00000000000E+00  0.45593999997E+02  0.45594000000E+02  0.51100000000E-03 0. -1.
         11   -1    0    0    0    0 -0.00000000000E+00 -0.00000000000E+00 -0.45593999997E+02  0.45594000000E+02  0.51100000000E-03 0.  1.
    9900012    2    1    2    0    0 -0.25385122066E+02  0.27311479038E+02 -0.16212463179E+02  0.50528864841E+02  0.30000015171E+02 0.  0.
         12    1    1    2    0    0  0.25385122066E+02 -0.27311479038E+02  0.16212463179E+02  0.40659135159E+02  0.00000000000E+00 0. -1.
         11    1    3    3    0    0 -0.24809473775E+02  0.24967580917E+02 -0.13411808492E+02  0.37666519526E+02  0.51100000000E-03 0. -1.
        -11    1    3    3    0    0 -0.40773741095E+01  0.56055196455E+01  0.65086133417E+00  0.69620723109E+01  0.51100000000E-03 0.  1.
        -12    1    3    3    0    0  0.35017258192E+01 -0.32616215247E+01 -0.34515160213E+01  0.59002730046E+01  0.00000000000E+00 0.  1.
</event>
<event>
 7    1  0.2755991E-011  0.5052880E+02  0.7816164E-02  0.1300439E+00
        -11   -1    0    0    0    0  0.00000000000E+00  0.00000000000E+00  0.45593999997E+02  0.45594000000E+02  0.51100000000E-03 0. -1.
         11   -1    0    0    0    0 -0.00000000000E+00 -0.00000000000E+00 -0.45593999997E+02  0.45594000000E+02  0.51100000000E-03 0.  1.
    9900012    2    1    2    0    0 -0.33212629092E+02 -0.12851886112E+02 -0.19619404797E+02  0.50528797445E+02  0.29999810314E+02 0.  0.
         12    1    1    2    0    0  0.33212629092E+02  0.12851886112E+02  0.19619404797E+02  0.40659202555E+02  0.00000000000E+00 0. -1.
         11    1    3    3    0    0 -0.10253624378E+02 -0.82969661615E+01 -0.84770305820E+01  0.15679174345E+02  0.51100000000E-03 0. -1.
        -11    1    3    3    0    0  0.86848474803E+00 -0.83925279829E+01 -0.54766833694E+01  0.10058968769E+02  0.51100000000E-03 0.  1.
        -12    1    3    3    0    0 -0.23827489461E+02  0.38376080328E+01 -0.56656908453E+01  0.24790654332E+02  0.00000000000E+00 0.  1.
</event>
<event>
 7    1  0.2755991E-011  0.5052886E+02  0.7816164E-02  0.1300439E+00
        -11   -1    0    0    0    0  0.00000000000E+00  0.00000000000E+00  0.45593999997E+02  0.45594000000E+02  0.51100000000E-03 0.  1.
         11   -1    0    0    0    0 -0.00000000000E+00 -0.00000000000E+00 -0.45593999997E+02  0.45594000000E+02  0.51100000000E-03 0. -1.
    9900012    2    1    2    0    0  0.15563617974E+02 -0.22435966852E+01  0.37495407157E+02  0.50528862178E+02  0.30000007078E+02 0.  0.
         12    1    1    2    0    0 -0.15563617974E+02  0.22435966852E+01 -0.37495407157E+02  0.40659137822E+02  0.00000000000E+00 0. -1.
         11    1    3    3    0    0 -0.10006153664E+01  0.44159562691E+00  0.28334707443E+01  0.30372346846E+01  0.51100000000E-03 0. -1.
        -11    1    3    3    0    0  0.10408434467E+02 -0.11817252015E+02  0.32714983266E+02  0.36307755144E+02  0.51100000000E-03 0.  1.
         12    1    3    3    0    0  0.61557988726E+01  0.91320597032E+01  0.19469531473E+01  0.11183872350E+02  0.00000000000E+00 0. -1.
</event>
<event>
 7    1  0.2755991E-011  0.5052886E+02  0.7816164E-02  0.1300439E+00
        -11   -1    0    0    0    0  0.00000000000E+00  0.00000000000E+00  0.45593999997E+02  0.45594000000E+02  0.51100000000E-03 0.  1.
         11   -1    0    0    0    0 -0.00000000000E+00 -0.00000000000E+00 -0.45593999997E+02  0.45594000000E+02  0.51100000000E-03 0. -1.
    9900012    2    1    2    0    0 -0.19955071443E+02  0.23215507870E+02  0.26758194811E+02  0.50528859927E+02  0.30000000234E+02 0.  0.
         12    1    1    2    0    0  0.19955071443E+02 -0.23215507870E+02 -0.26758194811E+02  0.40659140073E+02  0.00000000000E+00 0. -1.
         11    1    3    3    0    0 -0.16882926774E+02  0.26776250411E+02  0.30093375436E+02  0.43676218333E+02  0.51100000000E-03 0.  1.
        -11    1    3    3    0    0 -0.21653425846E+00 -0.93837645140E+00 -0.27725052374E+01  0.29349996596E+01  0.51100000000E-03 0. -1.
        -12    1    3    3    0    0 -0.28556104109E+01 -0.26223660903E+01 -0.56267538734E+00  0.39176419339E+01  0.00000000000E+00 0.  1.
</event>
<event>
 7    1  0.2755991E-011  0.5052886E+02  0.7816164E-02  0.1300439E+00
        -11   -1    0    0    0    0  0.00000000000E+00  0.00000000000E+00  0.45593999997E+02  0.45594000000E+02  0.51100000000E-03 0. -1.
         11   -1    0    0    0    0 -0.00000000000E+00 -0.00000000000E+00 -0.45593999997E+02  0.45594000000E+02  0.51100000000E-03 0.  1.
    9900012    2    1    2    0    0  0.36477292243E+02  0.17682156909E+02  0.31486469465E+01  0.50528862036E+02  0.30000006646E+02 0.  0.
         12    1    1    2    0    0 -0.36477292243E+02 -0.17682156909E+02 -0.31486469465E+01  0.40659137964E+02  0.00000000000E+00 0. -1.
         11    1    3    3    0    0  0.35109992562E+01 -0.52597161210E+01 -0.48676823991E+00  0.63426077469E+01  0.51100000000E-03 0. -1.
        -11    1    3    3    0    0  0.28398002967E+02  0.11603606416E+02  0.70853028148E+01  0.31484786336E+02  0.51100000000E-03 0.  1.
         12    1    3    3    0    0  0.45682900196E+01  0.11338266615E+02 -0.34498876284E+01  0.12701467954E+02  0.00000000000E+00 0. -1.
</event>
<event>
 7    1  0.2755991E-011  0.5052887E+02  0.7816164E-02  0.1300439E+00
        -11   -1    0    0    0    0  0.00000000000E+00  0.00000000000E+00  0.45593999997E+02  0.45594000000E+02  0.51100000000E-03 0.  1.
         11   -1    0    0    0    0 -0.00000000000E+00 -0.00000000000E+00 -0.45593999997E+02  0.45594000000E+02  0.51100000000E-03 0. -1.
    9900012    2    1    2    0    0 -0.15579043691E+02  0.36336639874E+02  0.94924690303E+01  0.50528868579E+02  0.30000026532E+02 0.  0.
         12    1    1    2    0    0  0.15579043691E+02 -0.36336639874E+02 -0.94924690303E+01  0.40659131421E+02  0.00000000000E+00 0. -1.
         11    1    3    3    0    0  0.28736408281E+01 -0.31816369712E+01 -0.11380887836E+01  0.44357492903E+01  0.51100000000E-03 0. -1.
        -11    1    3    3    0    0 -0.43700293672E+01  0.90252391604E+01 -0.19703629925E+01  0.10219316472E+02  0.51100000000E-03 0.  1.
        -12    1    3    3    0    0 -0.14082655151E+02  0.30493037685E+02  0.12600920806E+02  0.35873802817E+02  0.00000000000E+00 0.  1.
</event>
<event>
 7    1  0.2755991E-011  0.5052886E+02  0.7816164E-02  0.1300439E+00
        -11   -1    0    0    0    0  0.00000000000E+00  0.00000000000E+00  0.45593999997E+02  0.45594000000E+02  0.51100000000E-03 0.  1.
         11   -1    0    0    0    0 -0.00000000000E+00 -0.00000000000E+00 -0.45593999997E+02  0.45594000000E+02  0.51100000000E-03 0. -1.
    9900012    2    1    2    0    0 -0.36433069799E+02 -0.13147556739E+02  0.12366849484E+02  0.50528858477E+02  0.29999995828E+02 0.  0.
         12    1    1    2    0    0  0.36433069799E+02  0.13147556739E+02 -0.12366849484E+02  0.40659141523E+02  0.00000000000E+00 0. -1.
         11    1    3    3    0    0 -0.30264345480E+02 -0.73425474726E+01 -0.21846404324E+01  0.31218844707E+02  0.51100000000E-03 0. -1.
        -11    1    3    3    0    0 -0.59466004797E+01 -0.34237750761E+01  0.29576554190E+01  0.74720826330E+01  0.51100000000E-03 0.  1.
        -12    1    3    3    0    0 -0.22212383910E+00 -0.23812341908E+01  0.11593834497E+02  0.11837931138E+02  0.00000000000E+00 0.  1.
</event>
<event>
 7    1  0.2755991E-011  0.5052887E+02  0.7816164E-02  0.1300439E+00
        -11   -1    0    0    0    0  0.00000000000E+00  0.00000000000E+00  0.45593999997E+02  0.45594000000E+02  0.51100000000E-03 0.  1.
         11   -1    0    0    0    0 -0.00000000000E+00 -0.00000000000E+00 -0.45593999997E+02  0.45594000000E+02  0.51100000000E-03 0. -1.
    9900012    2    1    2    0    0 -0.30242473230E+02 -0.15174723267E+02  0.22545191254E+02  0.50528867422E+02  0.30000023017E+02 0.  0.
         12    1    1    2    0    0  0.30242473230E+02  0.15174723267E+02 -0.22545191254E+02  0.40659132578E+02  0.00000000000E+00 0. -1.
         11    1    3    3    0    0 -0.15074818464E+01 -0.32979064146E+01 -0.30742492032E+01  0.47539138256E+01  0.51100000000E-03 0. -1.
        -11    1    3    3    0    0  0.25289168494E+01 -0.20374933803E+01 -0.11617422341E+01  0.34491223500E+01  0.51100000000E-03 0.  1.
        -12    1    3    3    0    0 -0.31263908233E+02 -0.98393234718E+01  0.26781182691E+02  0.42325831247E+02  0.00000000000E+00 0.  1.
</event>
<event>
 7    1  0.2755991E-011  0.5052887E+02  0.7816164E-02  0.1300439E+00
        -11   -1    0    0    0    0  0.00000000000E+00  0.00000000000E+00  0.45593999997E+02  0.45594000000E+02  0.51100000000E-03 0.  1.
         11   -1    0    0    0    0 -0.00000000000E+00 -0.00000000000E+00 -0.45593999997E+02  0.45594000000E+02  0.51100000000E-03 0. -1.
    9900012    2    1    2    0    0 -0.18472115387E+02  0.29156524000E+02  0.21490536811E+02  0.50528866819E+02  0.30000021182E+02 0.  0.
         12    1    1    2    0    0  0.18472115387E+02 -0.29156524000E+02 -0.21490536811E+02  0.40659133181E+02  0.00000000000E+00 0. -1.
         11    1    3    3    0    0 -0.10267814655E+02 -0.70765206588E+00  0.10432243027E+02  0.14654708597E+02  0.51100000000E-03 0. -1.
        -11    1    3    3    0    0 -0.92862575630E+01  0.12466423030E+02  0.98457308589E+01  0.18400671158E+02  0.51100000000E-03 0.  1.
         12    1    3    3    0    0  0.10819568303E+01  0.17397753036E+02  0.12125629247E+01  0.17473487063E+02  0.00000000000E+00 0. -1.
</event>
<event>
 7    1  0.2755991E-011  0.5052892E+02  0.7816164E-02  0.1300439E+00
        -11   -1    0    0    0    0  0.00000000000E+00  0.00000000000E+00  0.45593999997E+02  0.45594000000E+02  0.51100000000E-03 0.  1.
         11   -1    0    0    0    0 -0.00000000000E+00 -0.00000000000E+00 -0.45593999997E+02  0.45594000000E+02  0.51100000000E-03 0. -1.
    9900012    2    1    2    0    0 -0.21736153631E+02  0.31337411243E+02  0.14094921500E+02  0.50528923152E+02  0.30000192411E+02 0.  0.
         12    1    1    2    0    0  0.21736153631E+02 -0.31337411243E+02 -0.14094921500E+02  0.40659076848E+02  0.00000000000E+00 0. -1.
         11    1    3    3    0    0 -0.65290606273E+01 -0.18975302260E+01 -0.35597973511E+01  0.76747254723E+01  0.51100000000E-03 0. -1.
        -11    1    3    3    0    0 -0.69616905658E+01  0.27130090935E+02  0.89637658640E+01  0.29408435328E+02  0.51100000000E-03 0.  1.
         12    1    3    3    0    0 -0.82454024375E+01  0.61048505333E+01  0.86909529872E+01  0.13445762352E+02  0.00000000000E+00 0. -1.
</event>
<event>
 7    1  0.3026836E-011  0.5052887E+02  0.7816164E-02  0.1300439E+00
        -11   -1    0    0    0    0  0.00000000000E+00  0.00000000000E+00  0.45593999997E+02  0.45594000000E+02  0.51100000000E-03 0. -1.
         11   -1    0    0    0    0 -0.00000000000E+00 -0.00000000000E+00 -0.45593999997E+02  0.45594000000E+02  0.51100000000E-03 0.  1.
    9900012    2    1    2    0    0  0.35516973122E+01 -0.29489647199E+02 -0.27765289849E+02  0.50528866141E+02  0.30000019123E+02 0.  0.
         12    1    1    2    0    0 -0.35516973122E+01  0.29489647199E+02  0.27765289849E+02  0.40659133859E+02  0.00000000000E+00 0. -1.
         11    1    3    3    0    0 -0.29343430542E+01  0.17811244319E+01  0.24430384701E+01  0.42132185594E+01  0.51100000000E-03 0. -1.
        -11    1    3    3    0    0 -0.24306522433E+01 -0.42554029222E+01 -0.11254554786E+00  0.49019578864E+01  0.51100000000E-03 0.  1.
        -12    1    3    3    0    0  0.89166926097E+01 -0.27015368709E+02 -0.30095782771E+02  0.41413689696E+02  0.00000000000E+00 0.  1.
</event>
<event>
 7    1  0.2755991E-011  0.5052886E+02  0.7816164E-02  0.1300439E+00
        -11   -1    0    0    0    0  0.00000000000E+00  0.00000000000E+00  0.45593999997E+02  0.45594000000E+02  0.51100000000E-03 0.  1.
         11   -1    0    0    0    0 -0.00000000000E+00 -0.00000000000E+00 -0.45593999997E+02  0.45594000000E+02  0.51100000000E-03 0. -1.
    9900012    2    1    2    0    0 -0.98090603194E+01 -0.19028793594E+02  0.34566643436E+02  0.50528862178E+02  0.30000007078E+02 0.  0.
         12    1    1    2    0    0  0.98090603194E+01  0.19028793594E+02 -0.34566643436E+02  0.40659137822E+02  0.00000000000E+00 0. -1.
         11    1    3    3    0    0  0.64681237132E+01 -0.23837760823E+01  0.45585346670E+00  0.69084596999E+01  0.51100000000E-03 0. -1.
        -11    1    3    3    0    0  0.21188704009E+01 -0.16164378333E+01  0.74496849836E+01  0.79120344831E+01  0.51100000000E-03 0.  1.
        -12    1    3    3    0    0 -0.18396054434E+02 -0.15028579678E+02  0.26661104985E+02  0.35708367996E+02  0.00000000000E+00 0.  1.
</event>
<event>
 7    1  0.2755991E-011  0.5052888E+02  0.7816164E-02  0.1300439E+00
        -11   -1    0    0    0    0  0.00000000000E+00  0.00000000000E+00  0.45593999997E+02  0.45594000000E+02  0.51100000000E-03 0.  1.
         11   -1    0    0    0    0 -0.00000000000E+00 -0.00000000000E+00 -0.45593999997E+02  0.45594000000E+02  0.51100000000E-03 0. -1.
    9900012    2    1    2    0    0  0.15809358136E+02 -0.26956597826E+02  0.26010967746E+02  0.50528875390E+02  0.30000047234E+02 0.  0.
         12    1    1    2    0    0 -0.15809358136E+02  0.26956597826E+02 -0.26010967746E+02  0.40659124610E+02  0.00000000000E+00 0. -1.
         11    1    3    3    0    0 -0.29717703090E+01 -0.61928045886E+01  0.41621302977E+01  0.80315363610E+01  0.51100000000E-03 0. -1.
        -11    1    3    3    0    0 -0.43986973756E+01 -0.61260130066E+01  0.16462072525E+00  0.75434524061E+01  0.51100000000E-03 0.  1.
        -12    1    3    3    0    0  0.23179825820E+02 -0.14637780231E+02  0.21684216723E+02  0.34953886623E+02  0.00000000000E+00 0.  1.
</event>
<event>
 7    1  0.2755991E-011  0.5052887E+02  0.7816164E-02  0.1300439E+00
        -11   -1    0    0    0    0  0.00000000000E+00  0.00000000000E+00  0.45593999997E+02  0.45594000000E+02  0.51100000000E-03 0.  1.
         11   -1    0    0    0    0 -0.00000000000E+00 -0.00000000000E+00 -0.45593999997E+02  0.45594000000E+02  0.51100000000E-03 0. -1.
    9900012    2    1    2    0    0  0.12321120776E+02  0.94182417917E+01  0.37585260095E+02  0.50528867299E+02  0.30000022642E+02 0.  0.
         12    1    1    2    0    0 -0.12321120776E+02 -0.94182417917E+01 -0.37585260095E+02  0.40659132701E+02  0.00000000000E+00 0. -1.
         11    1    3    3    0    0  0.10500223026E+02 -0.35827906684E+01  0.14742447970E+02  0.18450768141E+02  0.51100000000E-03 0. -1.
        -11    1    3    3    0    0  0.92339892469E+01  0.30626595130E+01  0.13057368601E+02  0.16283160496E+02  0.51100000000E-03 0.  1.
         12    1    3    3    0    0 -0.74130914969E+01  0.99383729471E+01  0.97854435231E+01  0.15794938661E+02  0.00000000000E+00 0. -1.
</event>
<event>
 7    1  0.2755991E-011  0.5052876E+02  0.7816164E-02  0.1300439E+00
        -11   -1    0    0    0    0  0.00000000000E+00  0.00000000000E+00  0.45593999997E+02  0.45594000000E+02  0.51100000000E-03 0. -1.
         11   -1    0    0    0    0 -0.00000000000E+00 -0.00000000000E+00 -0.45593999997E+02  0.45594000000E+02  0.51100000000E-03 0.  1.
    9900012    2    1    2    0    0 -0.14103847070E+02  0.11607986430E+02 -0.36325055737E+02  0.50528763344E+02  0.29999706660E+02 0.  0.
         12    1    1    2    0    0  0.14103847070E+02 -0.11607986430E+02  0.36325055737E+02  0.40659236656E+02  0.00000000000E+00 0. -1.
         11    1    3    3    0    0 -0.13235695314E+01  0.11421762197E+02 -0.26565054068E+02  0.28946685231E+02  0.51100000000E-03 0. -1.
        -11    1    3    3    0    0 -0.42135413978E+01 -0.69283279808E+00 -0.11955253998E+02  0.12694961474E+02  0.51100000000E-03 0.  1.
         12    1    3    3    0    0 -0.85667361407E+01  0.87905703094E+00  0.21952523291E+01  0.88871166391E+01  0.00000000000E+00 0. -1.
</event>
<event>
 7    1  0.2755991E-011  0.5052884E+02  0.7816164E-02  0.1300439E+00
        -11   -1    0    0    0    0  0.00000000000E+00  0.00000000000E+00  0.45593999997E+02  0.45594000000E+02  0.51100000000E-03 0. -1.
         11   -1    0    0    0    0 -0.00000000000E+00 -0.00000000000E+00 -0.45593999997E+02  0.45594000000E+02  0.51100000000E-03 0.  1.
    9900012    2    1    2    0    0 -0.52405490146E+01 -0.39626416186E+02 -0.74465432826E+01  0.50528840877E+02  0.29999942329E+02 0.  0.
         12    1    1    2    0    0  0.52405490146E+01  0.39626416186E+02  0.74465432826E+01  0.40659159123E+02  0.00000000000E+00 0. -1.
         11    1    3    3    0    0 -0.73206234575E+01 -0.75042148038E+01  0.50902304690E+00  0.10495897882E+02  0.51100000000E-03 0. -1.
        -11    1    3    3    0    0  0.64078123218E+00 -0.26093233648E+02 -0.15431533622E+02  0.30321604064E+02  0.51100000000E-03 0.  1.
         12    1    3    3    0    0  0.14392932107E+01 -0.60289677340E+01  0.74759672920E+01  0.97113389311E+01  0.00000000000E+00 0. -1.
</event>
<event>
 7    1  0.2755991E-011  0.5052886E+02  0.7816164E-02  0.1300439E+00
        -11   -1    0    0    0    0  0.00000000000E+00  0.00000000000E+00  0.45593999997E+02  0.45594000000E+02  0.51100000000E-03 0.  1.
         11   -1    0    0    0    0 -0.00000000000E+00 -0.00000000000E+00 -0.45593999997E+02  0.45594000000E+02  0.51100000000E-03 0. -1.
    9900012    2    1    2    0    0  0.17129486941E+02 -0.17838636912E+02  0.32272738454E+02  0.50528856661E+02  0.29999990308E+02 0.  0.
         12    1    1    2    0    0 -0.17129486941E+02  0.17838636912E+02 -0.32272738454E+02  0.40659143339E+02  0.00000000000E+00 0. -1.
         11    1    3    3    0    0  0.12890697549E+02 -0.13551876506E+02  0.11119196970E+02  0.21759135590E+02  0.51100000000E-03 0. -1.
        -11    1    3    3    0    0  0.94568396113E+01 -0.62748099392E+01  0.64783015332E+01  0.13068031459E+02  0.51100000000E-03 0.  1.
         12    1    3    3    0    0 -0.52180502193E+01  0.19880495334E+01  0.14675239951E+02  0.15701689612E+02  0.00000000000E+00 0. -1.
</event>
<event>
 7    1  0.2755991E-011  0.5052886E+02  0.7816164E-02  0.1300439E+00
        -11   -1    0    0    0    0  0.00000000000E+00  0.00000000000E+00  0.45593999997E+02  0.45594000000E+02  0.51100000000E-03 0.  1.
         11   -1    0    0    0    0 -0.00000000000E+00 -0.00000000000E+00 -0.45593999997E+02  0.45594000000E+02  0.51100000000E-03 0. -1.
    9900012    2    1    2    0    0  0.34570551993E+02 -0.14434580631E+02 -0.15801440400E+02  0.50528859554E+02  0.29999999101E+02 0.  0.
         12    1    1    2    0    0 -0.34570551993E+02  0.14434580631E+02  0.15801440400E+02  0.40659140446E+02  0.00000000000E+00 0. -1.
         11    1    3    3    0    0 -0.10857916484E+01 -0.52960376110E+01 -0.42645045287E+01  0.68857067188E+01  0.51100000000E-03 0. -1.
        -11    1    3    3    0    0  0.12148335631E+02 -0.13411514500E+02 -0.34730291253E+01  0.18425870708E+02  0.51100000000E-03 0.  1.
         12    1    3    3    0    0  0.23508008010E+02  0.42729714800E+01 -0.80639067463E+01  0.25217282128E+02  0.00000000000E+00 0. -1.
</event>
<event>
 7    1  0.2755991E-011  0.5052887E+02  0.7816164E-02  0.1300439E+00
        -11   -1    0    0    0    0  0.00000000000E+00  0.00000000000E+00  0.45593999997E+02  0.45594000000E+02  0.51100000000E-03 0.  1.
         11   -1    0    0    0    0 -0.00000000000E+00 -0.00000000000E+00 -0.45593999997E+02  0.45594000000E+02  0.51100000000E-03 0. -1.
    9900012    2    1    2    0    0 -0.36248226090E+02 -0.12260701763E+02  0.13744307086E+02  0.50528872124E+02  0.30000037308E+02 0.  0.
         12    1    1    2    0    0  0.36248226090E+02  0.12260701763E+02 -0.13744307086E+02  0.40659127876E+02  0.00000000000E+00 0. -1.
         11    1    3    3    0    0 -0.80857684134E+01 -0.41425581511E+01 -0.46835325542E+01  0.10221346111E+02  0.51100000000E-03 0. -1.
        -11    1    3    3    0    0 -0.76017730078E+01 -0.20851939127E+01 -0.43762602375E+01  0.90159104057E+01  0.51100000000E-03 0.  1.
         12    1    3    3    0    0 -0.20560684669E+02 -0.60329496993E+01  0.22804099877E+02  0.31291615607E+02  0.00000000000E+00 0. -1.
</event>
<event>
 7    1  0.2755991E-011  0.5052887E+02  0.7816164E-02  0.1300439E+00
        -11   -1    0    0    0    0  0.00000000000E+00  0.00000000000E+00  0.45593999997E+02  0.45594000000E+02  0.51100000000E-03 0. -1.
         11   -1    0    0    0    0 -0.00000000000E+00 -0.00000000000E+00 -0.45593999997E+02  0.45594000000E+02  0.51100000000E-03 0.  1.
    9900012    2    1    2    0    0  0.18114389695E+02 -0.43803669735E+00 -0.36398375836E+02  0.50528871213E+02  0.30000034540E+02 0.  0.
         12    1    1    2    0    0 -0.18114389695E+02  0.43803669735E+00  0.36398375836E+02  0.40659128787E+02  0.00000000000E+00 0. -1.
         11    1    3    3    0    0  0.15535244768E+01  0.53026194636E-01 -0.10494817069E+02  0.10609308915E+02  0.51100000000E-03 0. -1.
        -11    1    3    3    0    0  0.73954311699E+01 -0.97133609161E+01 -0.23799801970E+02  0.26748315023E+02  0.51100000000E-03 0.  1.
         12    1    3    3    0    0  0.91654340488E+01  0.92222980241E+01 -0.21037567971E+01  0.13171247276E+02  0.00000000000E+00 0. -1.
</event>
<event>
 7    1  0.2755991E-011  0.5052886E+02  0.7816164E-02  0.1300439E+00
        -11   -1    0    0    0    0  0.00000000000E+00  0.00000000000E+00  0.45593999997E+02  0.45594000000E+02  0.51100000000E-03 0.  1.
         11   -1    0    0    0    0 -0.00000000000E+00 -0.00000000000E+00 -0.45593999997E+02  0.45594000000E+02  0.51100000000E-03 0. -1.
    9900012    2    1    2    0    0 -0.20148924880E+02 -0.78042730172E+01  0.34442407790E+02  0.50528864427E+02  0.30000013914E+02 0.  0.
         12    1    1    2    0    0  0.20148924880E+02  0.78042730172E+01 -0.34442407790E+02  0.40659135573E+02  0.00000000000E+00 0. -1.
         11    1    3    3    0    0  0.15759647798E+01 -0.71445446239E+01  0.12317176581E+02  0.14326235446E+02  0.51100000000E-03 0. -1.
        -11    1    3    3    0    0 -0.66200127863E+01 -0.91285410290E+01  0.98954994272E+01  0.15002524447E+02  0.51100000000E-03 0.  1.
        -12    1    3    3    0    0 -0.15104876873E+02  0.84688126357E+01  0.12229731782E+02  0.21200104535E+02  0.00000000000E+00 0.  1.
</event>
<event>
 7    1  0.2755991E-011  0.5052886E+02  0.7816164E-02  0.1300439E+00
        -11   -1    0    0    0    0  0.00000000000E+00  0.00000000000E+00  0.45593999997E+02  0.45594000000E+02  0.51100000000E-03 0.  1.
         11   -1    0    0    0    0 -0.00000000000E+00 -0.00000000000E+00 -0.45593999997E+02  0.45594000000E+02  0.51100000000E-03 0. -1.
    9900012    2    1    2    0    0  0.32791591508E+02 -0.24032752899E+02  0.55136177384E+00  0.50528859756E+02  0.29999999715E+02 0.  0.
         12    1    1    2    0    0 -0.32791591508E+02  0.24032752899E+02 -0.55136177384E+00  0.40659140244E+02  0.00000000000E+00 0. -1.
         11    1    3    3    0    0  0.11326574594E+02 -0.61383733932E+01 -0.44415237928E+01  0.13627107316E+02  0.51100000000E-03 0. -1.
        -11    1    3    3    0    0  0.98000909822E+01 -0.63535124084E+01 -0.94640060815E+01  0.15032508592E+02  0.51100000000E-03 0.  1.
         12    1    3    3    0    0  0.11664925932E+02 -0.11540867098E+02  0.14456891648E+02  0.21869243848E+02  0.00000000000E+00 0. -1.
</event>
<event>
 7    1  0.2755991E-011  0.5052887E+02  0.7816164E-02  0.1300439E+00
        -11   -1    0    0    0    0  0.00000000000E+00  0.00000000000E+00  0.45593999997E+02  0.45594000000E+02  0.51100000000E-03 0.  1.
         11   -1    0    0    0    0 -0.00000000000E+00 -0.00000000000E+00 -0.45593999997E+02  0.45594000000E+02  0.51100000000E-03 0. -1.
    9900012    2    1    2    0    0 -0.40305035194E+02  0.46181572965E+01  0.27096097268E+01  0.50528865434E+02  0.30000016973E+02 0.  0.
         12    1    1    2    0    0  0.40305035194E+02 -0.46181572965E+01 -0.27096097268E+01  0.40659134566E+02  0.00000000000E+00 0. -1.
         11    1    3    3    0    0 -0.17153828569E+01 -0.41205330812E+00  0.37631291805E+01  0.41561361581E+01  0.51100000000E-03 0. -1.
        -11    1    3    3    0    0 -0.32433574914E+02  0.47256457526E+01  0.95228587863E+01  0.34131412939E+02  0.51100000000E-03 0.  1.
         12    1    3    3    0    0 -0.61560774233E+01  0.30456485198E+00 -0.10576378240E+02  0.12241316337E+02  0.00000000000E+00 0. -1.
</event>
<event>
 7    1  0.2755991E-011  0.5052886E+02  0.7816164E-02  0.1300439E+00
        -11   -1    0    0    0    0  0.00000000000E+00  0.00000000000E+00  0.45593999997E+02  0.45594000000E+02  0.51100000000E-03 0.  1.
         11   -1    0    0    0    0 -0.00000000000E+00 -0.00000000000E+00 -0.45593999997E+02  0.45594000000E+02  0.51100000000E-03 0. -1.
    9900012    2    1    2    0    0  0.17136656942E+02 -0.67219773121E+01  0.36253494275E+02  0.50528857888E+02  0.29999994035E+02 0.  0.
         12    1    1    2    0    0 -0.17136656942E+02  0.67219773121E+01 -0.36253494275E+02  0.40659142112E+02  0.00000000000E+00 0. -1.
         11    1    3    3    0    0  0.90992092623E+01 -0.77312099344E+01  0.19189546252E+02  0.22601015505E+02  0.51100000000E-03 0. -1.
        -11    1    3    3    0    0 -0.44941651781E-01 -0.66302480759E+01  0.15290103283E+02  0.16665817351E+02  0.51100000000E-03 0.  1.
         12    1    3    3    0    0  0.80823893317E+01  0.76394806982E+01  0.17738447401E+01  0.11262025031E+02  0.00000000000E+00 0. -1.
</event>
<event>
 7    1  0.2755991E-011  0.5052887E+02  0.7816164E-02  0.1300439E+00
        -11   -1    0    0    0    0  0.00000000000E+00  0.00000000000E+00  0.45593999997E+02  0.45594000000E+02  0.51100000000E-03 0. -1.
         11   -1    0    0    0    0 -0.00000000000E+00 -0.00000000000E+00 -0.45593999997E+02  0.45594000000E+02  0.51100000000E-03 0.  1.
    9900012    2    1    2    0    0 -0.25440851302E+02  0.37953285382E+01 -0.31488466188E+02  0.50528868965E+02  0.30000027705E+02 0.  0.
         12    1    1    2    0    0  0.25440851302E+02 -0.37953285382E+01  0.31488466188E+02  0.40659131035E+02  0.00000000000E+00 0. -1.
         11    1    3    3    0    0 -0.39362593484E+01 -0.33093867940E+01 -0.14147197089E+02  0.15052885582E+02  0.51100000000E-03 0. -1.
        -11    1    3    3    0    0 -0.15455811865E+02  0.86329172979E+01 -0.21595698557E+02  0.27924605242E+02  0.51100000000E-03 0.  1.
        -12    1    3    3    0    0 -0.60487800883E+01 -0.15282019657E+01  0.42544294582E+01  0.75513781404E+01  0.00000000000E+00 0.  1.
</event>
<event>
 7    1  0.2755991E-011  0.5052886E+02  0.7816164E-02  0.1300439E+00
        -11   -1    0    0    0    0  0.00000000000E+00  0.00000000000E+00  0.45593999997E+02  0.45594000000E+02  0.51100000000E-03 0. -1.
         11   -1    0    0    0    0 -0.00000000000E+00 -0.00000000000E+00 -0.45593999997E+02  0.45594000000E+02  0.51100000000E-03 0.  1.
    9900012    2    1    2    0    0 -0.25856196045E+02 -0.29698747966E+02 -0.10129521527E+02  0.50528859440E+02  0.29999998755E+02 0.  0.
         12    1    1    2    0    0  0.25856196045E+02  0.29698747966E+02  0.10129521527E+02  0.40659140560E+02  0.00000000000E+00 0. -1.
         11    1    3    3    0    0 -0.82162003480E+01 -0.26133781340E+01 -0.12617618133E+02  0.15282014954E+02  0.51100000000E-03 0. -1.
        -11    1    3    3    0    0 -0.47522295034E+01 -0.87108385935E+01 -0.55955753843E+01  0.11391789078E+02  0.51100000000E-03 0.  1.
         12    1    3    3    0    0 -0.12887766194E+02 -0.18374531239E+02  0.80836719905E+01  0.23855055409E+02  0.00000000000E+00 0. -1.
</event>
<event>
 7    1  0.2755991E-011  0.5052885E+02  0.7816164E-02  0.1300439E+00
        -11   -1    0    0    0    0  0.00000000000E+00  0.00000000000E+00  0.45593999997E+02  0.45594000000E+02  0.51100000000E-03 0.  1.
         11   -1    0    0    0    0 -0.00000000000E+00 -0.00000000000E+00 -0.45593999997E+02  0.45594000000E+02  0.51100000000E-03 0. -1.
    9900012    2    1    2    0    0 -0.20338790278E+02  0.19770271335E+02  0.29131360424E+02  0.50528853688E+02  0.29999981271E+02 0.  0.
         12    1    1    2    0    0  0.20338790278E+02 -0.19770271335E+02 -0.29131360424E+02  0.40659146312E+02  0.00000000000E+00 0. -1.
         11    1    3    3    0    0  0.42201885024E+01  0.78831561729E+01  0.11964956683E+02  0.14937012115E+02  0.51100000000E-03 0. -1.
        -11    1    3    3    0    0 -0.44143952752E+01  0.94526557685E+01  0.87814355676E+01  0.13636465730E+02  0.51100000000E-03 0.  1.
        -12    1    3    3    0    0 -0.20144583505E+02  0.24344593935E+01  0.83849681736E+01  0.21955375843E+02  0.00000000000E+00 0.  1.
</event>
<event>
 7    1  0.2755991E-011  0.5052886E+02  0.7816164E-02  0.1300439E+00
        -11   -1    0    0    0    0  0.00000000000E+00  0.00000000000E+00  0.45593999997E+02  0.45594000000E+02  0.51100000000E-03 0.  1.
         11   -1    0    0    0    0 -0.00000000000E+00 -0.00000000000E+00 -0.45593999997E+02  0.45594000000E+02  0.51100000000E-03 0. -1.
    9900012    2    1    2    0    0  0.40508638301E+02  0.28840244452E+01  0.19744460545E+01  0.50528858208E+02  0.29999995009E+02 0.  0.
         12    1    1    2    0    0 -0.40508638301E+02 -0.28840244452E+01 -0.19744460545E+01  0.40659141792E+02  0.00000000000E+00 0. -1.
         11    1    3    3    0    0  0.15618358849E+02 -0.12126820285E+01  0.11591258760E+02  0.19487457780E+02  0.51100000000E-03 0. -1.
        -11    1    3    3    0    0  0.14553437449E+02 -0.42777430550E+01 -0.10228705789E+01  0.15203548655E+02  0.51100000000E-03 0.  1.
         12    1    3    3    0    0  0.10336842004E+02  0.83744495288E+01 -0.85939421261E+01  0.15837851773E+02  0.00000000000E+00 0. -1.
</event>
<event>
 7    1  0.2755991E-011  0.5052885E+02  0.7816164E-02  0.1300439E+00
        -11   -1    0    0    0    0  0.00000000000E+00  0.00000000000E+00  0.45593999997E+02  0.45594000000E+02  0.51100000000E-03 0.  1.
         11   -1    0    0    0    0 -0.00000000000E+00 -0.00000000000E+00 -0.45593999997E+02  0.45594000000E+02  0.51100000000E-03 0. -1.
    9900012    2    1    2    0    0 -0.29263187293E+02  0.25138148358E+02  0.12841570364E+02  0.50528848966E+02  0.29999966916E+02 0.  0.
         12    1    1    2    0    0  0.29263187293E+02 -0.25138148358E+02 -0.12841570364E+02  0.40659151034E+02  0.00000000000E+00 0. -1.
         11    1    3    3    0    0 -0.22140548370E+01  0.17943277439E+01 -0.22877225363E+01  0.36544938826E+01  0.51100000000E-03 0. -1.
        -11    1    3    3    0    0  0.29492180740E+01  0.11679988946E+02  0.57564700684E+01  0.13351291208E+02  0.51100000000E-03 0.  1.
        -12    1    3    3    0    0 -0.29998350530E+02  0.11663831669E+02  0.93728228314E+01  0.33523063875E+02  0.00000000000E+00 0.  1.
</event>
<event>
 7    1  0.2755991E-011  0.5052886E+02  0.7816164E-02  0.1300439E+00
        -11   -1    0    0    0    0  0.00000000000E+00  0.00000000000E+00  0.45593999997E+02  0.45594000000E+02  0.51100000000E-03 0.  1.
         11   -1    0    0    0    0 -0.00000000000E+00 -0.00000000000E+00 -0.45593999997E+02  0.45594000000E+02  0.51100000000E-03 0. -1.
    9900012    2    1    2    0    0  0.25475378735E+02  0.25873479860E+02  0.18295729675E+02  0.50528860731E+02  0.30000002678E+02 0.  0.
         12    1    1    2    0    0 -0.25475378735E+02 -0.25873479860E+02 -0.18295729675E+02  0.40659139269E+02  0.00000000000E+00 0. -1.
         11    1    3    3    0    0  0.11322948717E+02  0.10771022932E+02  0.18792711074E+02  0.24441564852E+02  0.51100000000E-03 0. -1.
        -11    1    3    3    0    0  0.67190563999E+01  0.12138560860E+02  0.66248996506E+01  0.15374643875E+02  0.51100000000E-03 0.  1.
         12    1    3    3    0    0  0.74333736185E+01  0.29638960682E+01 -0.71218810498E+01  0.10712652003E+02  0.00000000000E+00 0. -1.
</event>
<event>
 7    1  0.2755991E-011  0.5052884E+02  0.7816164E-02  0.1300439E+00
        -11   -1    0    0    0    0  0.00000000000E+00  0.00000000000E+00  0.45593999997E+02  0.45594000000E+02  0.51100000000E-03 0.  1.
         11   -1    0    0    0    0 -0.00000000000E+00 -0.00000000000E+00 -0.45593999997E+02  0.45594000000E+02  0.51100000000E-03 0. -1.
    9900012    2    1    2    0    0 -0.23222684170E+02  0.30857287083E+02  0.12716207727E+02  0.50528841559E+02  0.29999944402E+02 0.  0.
         12    1    1    2    0    0  0.23222684170E+02 -0.30857287083E+02 -0.12716207727E+02  0.40659158441E+02  0.00000000000E+00 0. -1.
         11    1    3    3    0    0 -0.13127336676E+02  0.22978476112E+02 -0.49087274712E+01  0.26915291904E+02  0.51100000000E-03 0. -1.
        -11    1    3    3    0    0 -0.43755610653E+00 -0.18927920423E+01  0.27199751114E+01  0.33425113207E+01  0.51100000000E-03 0.  1.
        -12    1    3    3    0    0 -0.96577913867E+01  0.97716030138E+01  0.14904960087E+02  0.20271038334E+02  0.00000000000E+00 0.  1.
</event>
<event>
 7    1  0.2755991E-011  0.5052886E+02  0.7816164E-02  0.1300439E+00
        -11   -1    0    0    0    0  0.00000000000E+00  0.00000000000E+00  0.45593999997E+02  0.45594000000E+02  0.51100000000E-03 0.  1.
         11   -1    0    0    0    0 -0.00000000000E+00 -0.00000000000E+00 -0.45593999997E+02  0.45594000000E+02  0.51100000000E-03 0. -1.
    9900012    2    1    2    0    0  0.15495783765E+02 -0.36716362015E+02  0.80594523975E+01  0.50528864163E+02  0.30000013109E+02 0.  0.
         12    1    1    2    0    0 -0.15495783765E+02  0.36716362015E+02 -0.80594523975E+01  0.40659135837E+02  0.00000000000E+00 0. -1.
         11    1    3    3    0    0  0.76981010663E+01 -0.60170244771E+01 -0.74817553416E+01  0.12306177588E+02  0.51100000000E-03 0. -1.
        -11    1    3    3    0    0  0.76893780016E+01 -0.96279566081E+01  0.49701375652E+00  0.12331711375E+02  0.51100000000E-03 0.  1.
         12    1    3    3    0    0  0.10830469729E+00 -0.21071380930E+02  0.15044193983E+02  0.25890975199E+02  0.00000000000E+00 0. -1.
</event>
<event>
 7    1  0.2755991E-011  0.5052886E+02  0.7816164E-02  0.1300439E+00
        -11   -1    0    0    0    0  0.00000000000E+00  0.00000000000E+00  0.45593999997E+02  0.45594000000E+02  0.51100000000E-03 0.  1.
         11   -1    0    0    0    0 -0.00000000000E+00 -0.00000000000E+00 -0.45593999997E+02  0.45594000000E+02  0.51100000000E-03 0. -1.
    9900012    2    1    2    0    0  0.14961092971E+02 -0.32568614217E+01  0.37665957544E+02  0.50528858261E+02  0.29999995171E+02 0.  0.
         12    1    1    2    0    0 -0.14961092971E+02  0.32568614217E+01 -0.37665957544E+02  0.40659141739E+02  0.00000000000E+00 0. -1.
         11    1    3    3    0    0  0.17594895835E+02  0.50220299981E+01  0.26799382609E+02  0.32450085566E+02  0.51100000000E-03 0. -1.
        -11    1    3    3    0    0  0.34478533293E+01 -0.61432548524E+01  0.24094534913E+01  0.74453165916E+01  0.51100000000E-03 0.  1.
        -12    1    3    3    0    0 -0.60816561932E+01 -0.21356365674E+01  0.84571214440E+01  0.10633456104E+02  0.00000000000E+00 0.  1.
</event>
<event>
 7    1  0.2755991E-011  0.5052885E+02  0.7816164E-02  0.1300439E+00
        -11   -1    0    0    0    0  0.00000000000E+00  0.00000000000E+00  0.45593999997E+02  0.45594000000E+02  0.51100000000E-03 0.  1.
         11   -1    0    0    0    0 -0.00000000000E+00 -0.00000000000E+00 -0.45593999997E+02  0.45594000000E+02  0.51100000000E-03 0. -1.
    9900012    2    1    2    0    0  0.24501538535E+02 -0.31644504036E+02  0.71739897378E+01  0.50528853981E+02  0.29999982161E+02 0.  0.
         12    1    1    2    0    0 -0.24501538535E+02  0.31644504036E+02 -0.71739897378E+01  0.40659146019E+02  0.00000000000E+00 0. -1.
         11    1    3    3    0    0  0.45391898111E+01 -0.32927801511E+01  0.62989523877E+01  0.84334718063E+01  0.51100000000E-03 0. -1.
        -11    1    3    3    0    0  0.75409424864E+01 -0.20998070470E+02  0.10588892084E+02  0.24696344120E+02  0.51100000000E-03 0.  1.
         12    1    3    3    0    0  0.12421406237E+02 -0.73536534140E+01 -0.97138547338E+01  0.17399038055E+02  0.00000000000E+00 0. -1.
</event>
<event>
 7    1  0.2755991E-011  0.5052886E+02  0.7816164E-02  0.1300439E+00
        -11   -1    0    0    0    0  0.00000000000E+00  0.00000000000E+00  0.45593999997E+02  0.45594000000E+02  0.51100000000E-03 0.  1.
         11   -1    0    0    0    0 -0.00000000000E+00 -0.00000000000E+00 -0.45593999997E+02  0.45594000000E+02  0.51100000000E-03 0. -1.
    9900012    2    1    2    0    0  0.56384539244E+01 -0.10233572614E+02  0.38944158454E+02  0.50528860206E+02  0.30000001081E+02 0.  0.
         12    1    1    2    0    0 -0.56384539244E+01  0.10233572614E+02 -0.38944158454E+02  0.40659139794E+02  0.00000000000E+00 0. -1.
         11    1    3    3    0    0 -0.12973701467E+01  0.31803855632E+01  0.36174194317E+01  0.49883609768E+01  0.51100000000E-03 0. -1.
        -11    1    3    3    0    0 -0.69510406353E+01 -0.12841622059E+01  0.18258898217E+01  0.73006788990E+01  0.51100000000E-03 0.  1.
        -12    1    3    3    0    0  0.13886864706E+02 -0.12129795971E+02  0.33500849201E+02  0.38239820330E+02  0.00000000000E+00 0.  1.
</event>
<event>
 7    1  0.2755991E-011  0.5052885E+02  0.7816164E-02  0.1300439E+00
        -11   -1    0    0    0    0  0.00000000000E+00  0.00000000000E+00  0.45593999997E+02  0.45594000000E+02  0.51100000000E-03 0.  1.
         11   -1    0    0    0    0 -0.00000000000E+00 -0.00000000000E+00 -0.45593999997E+02  0.45594000000E+02  0.51100000000E-03 0. -1.
    9900012    2    1    2    0    0 -0.13112576669E+02 -0.30117878532E+02  0.23961221375E+02  0.50528850919E+02  0.29999972855E+02 0.  0.
         12    1    1    2    0    0  0.13112576669E+02  0.30117878532E+02 -0.23961221375E+02  0.40659149081E+02  0.00000000000E+00 0. -1.
         11    1    3    3    0    0 -0.15294570970E+02 -0.28662771088E+02  0.23496345683E+02  0.40094346338E+02  0.51100000000E-03 0.  1.
        -11    1    3    3    0    0  0.46681568200E+01  0.48047930281E+00  0.36568633464E+01  0.59493863761E+01  0.51100000000E-03 0. -1.
        -12    1    3    3    0    0 -0.24861625193E+01 -0.19355867469E+01 -0.31919876544E+01  0.44851182050E+01  0.00000000000E+00 0.  1.
</event>
<event>
 7    1  0.2755991E-011  0.5052886E+02  0.7816164E-02  0.1300439E+00
        -11   -1    0    0    0    0  0.00000000000E+00  0.00000000000E+00  0.45593999997E+02  0.45594000000E+02  0.51100000000E-03 0.  1.
         11   -1    0    0    0    0 -0.00000000000E+00 -0.00000000000E+00 -0.45593999997E+02  0.45594000000E+02  0.51100000000E-03 0. -1.
    9900012    2    1    2    0    0 -0.86931436457E+01 -0.18337558479E+02  0.35232498072E+02  0.50528859357E+02  0.29999998503E+02 0.  0.
         12    1    1    2    0    0  0.86931436457E+01  0.18337558479E+02 -0.35232498072E+02  0.40659140643E+02  0.00000000000E+00 0. -1.
         11    1    3    3    0    0  0.42131654254E+01 -0.12885706925E+02  0.19995590594E+02  0.24158142505E+02  0.51100000000E-03 0. -1.
        -11    1    3    3    0    0 -0.49050285330E+01 -0.74241806086E+01  0.15775883062E+02  0.18112323133E+02  0.51100000000E-03 0.  1.
         12    1    3    3    0    0 -0.80012805381E+01  0.19723290544E+01 -0.53897558380E+00  0.82583937196E+01  0.00000000000E+00 0. -1.
</event>
<event>
 7    1  0.2755991E-011  0.5052887E+02  0.7816164E-02  0.1300439E+00
        -11   -1    0    0    0    0  0.00000000000E+00  0.00000000000E+00  0.45593999997E+02  0.45594000000E+02  0.51100000000E-03 0.  1.
         11   -1    0    0    0    0 -0.00000000000E+00 -0.00000000000E+00 -0.45593999997E+02  0.45594000000E+02  0.51100000000E-03 0. -1.
    9900012    2    1    2    0    0  0.18370097053E+02 -0.13272305405E+02  0.33757223638E+02  0.50528871821E+02  0.30000036388E+02 0.  0.
         12    1    1    2    0    0 -0.18370097053E+02  0.13272305405E+02 -0.33757223638E+02  0.40659128179E+02  0.00000000000E+00 0. -1.
         11    1    3    3    0    0  0.82351611220E+01 -0.15278614796E+02  0.11388992491E+02  0.20759650744E+02  0.51100000000E-03 0. -1.
        -11    1    3    3    0    0  0.74494901925E+01  0.13157515447E+01  0.34556482374E+00  0.75726825870E+01  0.51100000000E-03 0.  1.
        -12    1    3    3    0    0  0.26854457386E+01  0.69055784703E+00  0.22022666324E+02  0.22196538491E+02  0.00000000000E+00 0.  1.
</event>
<event>
 7    1  0.2755991E-011  0.5052886E+02  0.7816164E-02  0.1300439E+00
        -11   -1    0    0    0    0  0.00000000000E+00  0.00000000000E+00  0.45593999997E+02  0.45594000000E+02  0.51100000000E-03 0. -1.
         11   -1    0    0    0    0 -0.00000000000E+00 -0.00000000000E+00 -0.45593999997E+02  0.45594000000E+02  0.51100000000E-03 0.  1.
    9900012    2    1    2    0    0 -0.22024873233E+02  0.33818453929E+02 -0.49379225674E+01  0.50528856547E+02  0.29999989959E+02 0.  0.
         12    1    1    2    0    0  0.22024873233E+02 -0.33818453929E+02  0.49379225674E+01  0.40659143453E+02  0.00000000000E+00 0. -1.
         11    1    3    3    0    0  0.67788125684E+00  0.25171230208E+00  0.39638767815E+01  0.40292929257E+01  0.51100000000E-03 0. -1.
        -11    1    3    3    0    0  0.35384476217E+01  0.26621256677E+01  0.14445051748E+01  0.46576947199E+01  0.51100000000E-03 0.  1.
         12    1    3    3    0    0 -0.26241202112E+02  0.30904615959E+02 -0.10346304524E+02  0.41841868901E+02  0.00000000000E+00 0. -1.
</event>
<event>
 7    1  0.2755991E-011  0.5052886E+02  0.7816164E-02  0.1300439E+00
        -11   -1    0    0    0    0  0.00000000000E+00  0.00000000000E+00  0.45593999997E+02  0.45594000000E+02  0.51100000000E-03 0.  1.
         11   -1    0    0    0    0 -0.00000000000E+00 -0.00000000000E+00 -0.45593999997E+02  0.45594000000E+02  0.51100000000E-03 0. -1.
    9900012    2    1    2    0    0  0.32426028689E+02 -0.14091929019E+02  0.20078237368E+02  0.50528863071E+02  0.30000009790E+02 0.  0.
         12    1    1    2    0    0 -0.32426028689E+02  0.14091929019E+02 -0.20078237368E+02  0.40659136929E+02  0.00000000000E+00 0. -1.
         11    1    3    3    0    0  0.17061087652E+02 -0.11672953076E+02  0.31572754944E+01  0.20911884999E+02  0.51100000000E-03 0. -1.
        -11    1    3    3    0    0  0.11131021410E+02 -0.10235101998E+02  0.83735387357E+01  0.17285054288E+02  0.51100000000E-03 0.  1.
        -12    1    3    3    0    0  0.42339196272E+01  0.78161260548E+01  0.85474231378E+01  0.12331923784E+02  0.00000000000E+00 0.  1.
</event>
<event>
 7    1  0.2755991E-011  0.5052872E+02  0.7816164E-02  0.1300439E+00
        -11   -1    0    0    0    0  0.00000000000E+00  0.00000000000E+00  0.45593999997E+02  0.45594000000E+02  0.51100000000E-03 0. -1.
         11   -1    0    0    0    0 -0.00000000000E+00 -0.00000000000E+00 -0.45593999997E+02  0.45594000000E+02  0.51100000000E-03 0.  1.
    9900012    2    1    2    0    0 -0.24722660647E+02  0.27495406372E+02 -0.16910639516E+02  0.50528720003E+02  0.29999574919E+02 0.  0.
         12    1    1    2    0    0  0.24722660647E+02 -0.27495406372E+02  0.16910639516E+02  0.40659279997E+02  0.00000000000E+00 0. -1.
         11    1    3    3    0    0 -0.16247219975E+01  0.56346835511E-02 -0.11017758563E+01  0.19630750412E+01  0.51100000000E-03 0. -1.
        -11    1    3    3    0    0 -0.19096840660E+02  0.11867173483E+01 -0.87502530790E+01  0.21039594826E+02  0.51100000000E-03 0.  1.
         12    1    3    3    0    0 -0.40010979900E+01  0.26303054340E+02 -0.70586105803E+01  0.27526050135E+02  0.00000000000E+00 0. -1.
</event>
<event>
 7    1  0.2755991E-011  0.5052888E+02  0.7816164E-02  0.1300439E+00
        -11   -1    0    0    0    0  0.00000000000E+00  0.00000000000E+00  0.45593999997E+02  0.45594000000E+02  0.51100000000E-03 0.  1.
         11   -1    0    0    0    0 -0.00000000000E+00 -0.00000000000E+00 -0.45593999997E+02  0.45594000000E+02  0.51100000000E-03 0. -1.
    9900012    2    1    2    0    0 -0.23074844791E+02 -0.23343415166E+02  0.23995836857E+02  0.50528884414E+02  0.30000074666E+02 0.  0.
         12    1    1    2    0    0  0.23074844791E+02  0.23343415166E+02 -0.23995836857E+02  0.40659115586E+02  0.00000000000E+00 0. -1.
         11    1    3    3    0    0 -0.11690871901E+02 -0.62974940526E+01  0.18364147493E+02  0.22662233573E+02  0.51100000000E-03 0. -1.
        -11    1    3    3    0    0 -0.40389680296E+01 -0.11695333008E+02  0.11627842228E+02  0.16979422606E+02  0.51100000000E-03 0.  1.
         12    1    3    3    0    0 -0.73450048606E+01 -0.53505881058E+01 -0.59961528631E+01  0.10887228235E+02  0.00000000000E+00 0. -1.
</event>
<event>
 7    1  0.2755991E-011  0.5052887E+02  0.7816164E-02  0.1300439E+00
        -11   -1    0    0    0    0  0.00000000000E+00  0.00000000000E+00  0.45593999997E+02  0.45594000000E+02  0.51100000000E-03 0.  1.
         11   -1    0    0    0    0 -0.00000000000E+00 -0.00000000000E+00 -0.45593999997E+02  0.45594000000E+02  0.51100000000E-03 0. -1.
    9900012    2    1    2    0    0 -0.31188270575E+01  0.76650049366E+01  0.39808112924E+02  0.50528865264E+02  0.30000016457E+02 0.  0.
         12    1    1    2    0    0  0.31188270575E+01 -0.76650049366E+01 -0.39808112924E+02  0.40659134736E+02  0.00000000000E+00 0. -1.
         11    1    3    3    0    0 -0.57412916417E-01 -0.21203347602E+01 -0.81410548989E+00  0.22719779374E+01  0.51100000000E-03 0. -1.
        -11    1    3    3    0    0 -0.51209292636E+00 -0.32729553512E+01 -0.18188365756E+01  0.37792383685E+01  0.51100000000E-03 0.  1.
        -12    1    3    3    0    0 -0.25493212147E+01  0.13058295048E+02  0.42441054990E+02  0.44477648958E+02  0.00000000000E+00 0.  1.
</event>
<event>
 7    1  0.2755991E-011  0.5052886E+02  0.7816164E-02  0.1300439E+00
        -11   -1    0    0    0    0  0.00000000000E+00  0.00000000000E+00  0.45593999997E+02  0.45594000000E+02  0.51100000000E-03 0.  1.
         11   -1    0    0    0    0 -0.00000000000E+00 -0.00000000000E+00 -0.45593999997E+02  0.45594000000E+02  0.51100000000E-03 0. -1.
    9900012    2    1    2    0    0 -0.12293938373E+02 -0.17377802243E+02  0.34641549587E+02  0.50528857249E+02  0.29999992093E+02 0.  0.
         12    1    1    2    0    0  0.12293938373E+02  0.17377802243E+02 -0.34641549587E+02  0.40659142751E+02  0.00000000000E+00 0. -1.
         11    1    3    3    0    0  0.69399377947E+01  0.12700488168E+00  0.17642236635E+02  0.18958570109E+02  0.51100000000E-03 0.  1.
        -11    1    3    3    0    0 -0.14930818532E+01 -0.67647430487E+00 -0.23309133806E+00  0.16556698761E+01  0.51100000000E-03 0. -1.
        -12    1    3    3    0    0 -0.17740794314E+02 -0.16828332820E+02  0.17232404289E+02  0.29914617263E+02  0.00000000000E+00 0.  1.
</event>
<event>
 7    1  0.2755991E-011  0.5052885E+02  0.7816164E-02  0.1300439E+00
        -11   -1    0    0    0    0  0.00000000000E+00  0.00000000000E+00  0.45593999997E+02  0.45594000000E+02  0.51100000000E-03 0.  1.
         11   -1    0    0    0    0 -0.00000000000E+00 -0.00000000000E+00 -0.45593999997E+02  0.45594000000E+02  0.51100000000E-03 0. -1.
    9900012    2    1    2    0    0 -0.79591315402E+01  0.34211631448E+02  0.20478838072E+02  0.50528852075E+02  0.29999976367E+02 0.  0.
         12    1    1    2    0    0  0.79591315402E+01 -0.34211631448E+02 -0.20478838072E+02  0.40659147925E+02  0.00000000000E+00 0. -1.
         11    1    3    3    0    0 -0.69775651791E+01  0.16735047371E+02  0.32993592037E+01  0.18429161613E+02  0.51100000000E-03 0. -1.
        -11    1    3    3    0    0 -0.22652121576E+01  0.18111222162E+02  0.21115792623E+02  0.27911005942E+02  0.51100000000E-03 0.  1.
         12    1    3    3    0    0  0.12836457966E+01 -0.63463808440E+00 -0.39363137554E+01  0.41886845202E+01  0.00000000000E+00 0. -1.
</event>
<event>
 7    1  0.2755991E-011  0.5052880E+02  0.7816164E-02  0.1300439E+00
        -11   -1    0    0    0    0  0.00000000000E+00  0.00000000000E+00  0.45593999997E+02  0.45594000000E+02  0.51100000000E-03 0.  1.
         11   -1    0    0    0    0 -0.00000000000E+00 -0.00000000000E+00 -0.45593999997E+02  0.45594000000E+02  0.51100000000E-03 0. -1.
    9900012    2    1    2    0    0 -0.27656337816E+02 -0.76485563397E+01  0.28806193419E+02  0.50528804057E+02  0.29999830410E+02 0.  0.
         12    1    1    2    0    0  0.27656337816E+02  0.76485563397E+01 -0.28806193419E+02  0.40659195943E+02  0.00000000000E+00 0. -1.
         11    1    3    3    0    0 -0.18399469428E+02 -0.12916964551E+01  0.10723646942E+02  0.21335546840E+02  0.51100000000E-03 0. -1.
        -11    1    3    3    0    0 -0.13981257661E+02 -0.11647817707E+00  0.15674326228E+02  0.21004133782E+02  0.51100000000E-03 0.  1.
         12    1    3    3    0    0  0.47243892731E+01 -0.62403817075E+01  0.24082202478E+01  0.81891234342E+01  0.00000000000E+00 0. -1.
</event>
<event>
 7    1  0.2755991E-011  0.5052886E+02  0.7816164E-02  0.1300439E+00
        -11   -1    0    0    0    0  0.00000000000E+00  0.00000000000E+00  0.45593999997E+02  0.45594000000E+02  0.51100000000E-03 0.  1.
         11   -1    0    0    0    0 -0.00000000000E+00 -0.00000000000E+00 -0.45593999997E+02  0.45594000000E+02  0.51100000000E-03 0. -1.
    9900012    2    1    2    0    0 -0.14189535524E+01 -0.26470991898E+02  0.30829189066E+02  0.50528859087E+02  0.29999997682E+02 0.  0.
         12    1    1    2    0    0  0.14189535524E+01  0.26470991898E+02 -0.30829189066E+02  0.40659140913E+02  0.00000000000E+00 0. -1.
         11    1    3    3    0    0  0.38376035621E+01 -0.41819923024E+01 -0.21446198105E+01  0.60675905522E+01  0.51100000000E-03 0. -1.
        -11    1    3    3    0    0 -0.76080341167E+01 -0.20476937833E+02  0.15618189837E+02  0.26853584867E+02  0.51100000000E-03 0.  1.
        -12    1    3    3    0    0  0.23514770022E+01 -0.18120617629E+01  0.17355619040E+02  0.17607683669E+02  0.00000000000E+00 0.  1.
</event>
<event>
 7    1  0.2755991E-011  0.5052886E+02  0.7816164E-02  0.1300439E+00
        -11   -1    0    0    0    0  0.00000000000E+00  0.00000000000E+00  0.45593999997E+02  0.45594000000E+02  0.51100000000E-03 0. -1.
         11   -1    0    0    0    0 -0.00000000000E+00 -0.00000000000E+00 -0.45593999997E+02  0.45594000000E+02  0.51100000000E-03 0.  1.
    9900012    2    1    2    0    0 -0.30978898881E+02 -0.16432286323E+02 -0.20577990103E+02  0.50528857284E+02  0.29999992201E+02 0.  0.
         12    1    1    2    0    0  0.30978898881E+02  0.16432286323E+02  0.20577990103E+02  0.40659142716E+02  0.00000000000E+00 0. -1.
         11    1    3    3    0    0 -0.20727483355E+02  0.28926160949E+01 -0.69106664483E+01  0.22039807284E+02  0.51100000000E-03 0. -1.
        -11    1    3    3    0    0 -0.95069323700E+01 -0.56583412019E+01 -0.41394580338E+01  0.11812438416E+02  0.51100000000E-03 0.  1.
         12    1    3    3    0    0 -0.74448315632E+00 -0.13666561216E+02 -0.95278656210E+01  0.16676611584E+02  0.00000000000E+00 0. -1.
</event>
<event>
 7    1  0.2755991E-011  0.5052886E+02  0.7816164E-02  0.1300439E+00
        -11   -1    0    0    0    0  0.00000000000E+00  0.00000000000E+00  0.45593999997E+02  0.45594000000E+02  0.51100000000E-03 0.  1.
         11   -1    0    0    0    0 -0.00000000000E+00 -0.00000000000E+00 -0.45593999997E+02  0.45594000000E+02  0.51100000000E-03 0. -1.
    9900012    2    1    2    0    0 -0.24315376635E+02 -0.16085233452E+02  0.28340666499E+02  0.50528860146E+02  0.30000000899E+02 0.  0.
         12    1    1    2    0    0  0.24315376635E+02  0.16085233452E+02 -0.28340666499E+02  0.40659139854E+02  0.00000000000E+00 0. -1.
         11    1    3    3    0    0 -0.16428723908E+01 -0.45118364566E+01  0.10461063345E+02  0.11510410265E+02  0.51100000000E-03 0.  1.
        -11    1    3    3    0    0  0.45616681225E-01 -0.16325695449E+01  0.13789117494E+02  0.13885500557E+02  0.51100000000E-03 0. -1.
        -12    1    3    3    0    0 -0.22718120925E+02 -0.99408274504E+01  0.40904856606E+01  0.25132949324E+02  0.00000000000E+00 0.  1.
</event>
<event>
 7    1  0.2755991E-011  0.5052885E+02  0.7816164E-02  0.1300439E+00
        -11   -1    0    0    0    0  0.00000000000E+00  0.00000000000E+00  0.45593999997E+02  0.45594000000E+02  0.51100000000E-03 0.  1.
         11   -1    0    0    0    0 -0.00000000000E+00 -0.00000000000E+00 -0.45593999997E+02  0.45594000000E+02  0.51100000000E-03 0. -1.
    9900012    2    1    2    0    0  0.12514071983E+02 -0.22728595708E+02  0.31304563276E+02  0.50528846758E+02  0.29999960207E+02 0.  0.
         12    1    1    2    0    0 -0.12514071983E+02  0.22728595708E+02 -0.31304563276E+02  0.40659153242E+02  0.00000000000E+00 0. -1.
         11    1    3    3    0    0  0.12801653494E+02 -0.15354935870E+02  0.29720774616E+02  0.35818721805E+02  0.51100000000E-03 0. -1.
        -11    1    3    3    0    0 -0.23117713579E+01  0.79669970961E+00  0.50470081613E+01  0.56081466528E+01  0.51100000000E-03 0.  1.
         12    1    3    3    0    0  0.20241898472E+01 -0.81703595473E+01 -0.34632195011E+01  0.91019783005E+01  0.00000000000E+00 0. -1.
</event>
<event>
 7    1  0.2755991E-011  0.5052887E+02  0.7816164E-02  0.1300439E+00
        -11   -1    0    0    0    0  0.00000000000E+00  0.00000000000E+00  0.45593999997E+02  0.45594000000E+02  0.51100000000E-03 0. -1.
         11   -1    0    0    0    0 -0.00000000000E+00 -0.00000000000E+00 -0.45593999997E+02  0.45594000000E+02  0.51100000000E-03 0.  1.
    9900012    2    1    2    0    0  0.29916545528E+02  0.14135187436E+01 -0.27498496539E+02  0.50528867650E+02  0.30000023710E+02 0.  0.
         12    1    1    2    0    0 -0.29916545528E+02 -0.14135187436E+01  0.27498496539E+02  0.40659132350E+02  0.00000000000E+00 0. -1.
         11    1    3    3    0    0  0.87255166880E+01 -0.59885643820E+01 -0.96367271456E+00  0.10626674465E+02  0.51100000000E-03 0.  1.
        -11    1    3    3    0    0  0.23579837076E+02  0.10339530164E+02 -0.24759751593E+02  0.35720580898E+02  0.51100000000E-03 0. -1.
         12    1    3    3    0    0 -0.23888082359E+01 -0.29374470380E+01 -0.17750722314E+01  0.41816122867E+01  0.00000000000E+00 0. -1.
</event>
<event>
 7    1  0.2755991E-011  0.5052885E+02  0.7816164E-02  0.1300439E+00
        -11   -1    0    0    0    0  0.00000000000E+00  0.00000000000E+00  0.45593999997E+02  0.45594000000E+02  0.51100000000E-03 0. -1.
         11   -1    0    0    0    0 -0.00000000000E+00 -0.00000000000E+00 -0.45593999997E+02  0.45594000000E+02  0.51100000000E-03 0.  1.
    9900012    2    1    2    0    0  0.19915569541E+02  0.44990304926E+01 -0.35160996836E+02  0.50528845016E+02  0.29999954911E+02 0.  0.
         12    1    1    2    0    0 -0.19915569541E+02 -0.44990304926E+01  0.35160996836E+02  0.40659154984E+02  0.00000000000E+00 0. -1.
         11    1    3    3    0    0  0.11659810866E+02  0.18971521670E+01 -0.34791334864E+01  0.12314818141E+02  0.51100000000E-03 0. -1.
        -11    1    3    3    0    0  0.79103296947E+01 -0.51653245593E+01 -0.55653948607E+01  0.10964830774E+02  0.51100000000E-03 0.  1.
        -12    1    3    3    0    0  0.34542898046E+00  0.77672028849E+01 -0.26116468489E+02  0.27249196101E+02  0.00000000000E+00 0.  1.
</event>
<event>
 7    1  0.2755991E-011  0.5052884E+02  0.7816164E-02  0.1300439E+00
        -11   -1    0    0    0    0  0.00000000000E+00  0.00000000000E+00  0.45593999997E+02  0.45594000000E+02  0.51100000000E-03 0. -1.
         11   -1    0    0    0    0 -0.00000000000E+00 -0.00000000000E+00 -0.45593999997E+02  0.45594000000E+02  0.51100000000E-03 0.  1.
    9900012    2    1    2    0    0 -0.27696221348E+02  0.12825169353E+02 -0.26862651166E+02  0.50528835307E+02  0.29999925398E+02 0.  0.
         12    1    1    2    0    0  0.27696221348E+02 -0.12825169353E+02  0.26862651166E+02  0.40659164693E+02  0.00000000000E+00 0. -1.
         11    1    3    3    0    0 -0.12685601563E+02  0.73120242843E+01 -0.11848363037E+02  0.18835442471E+02  0.51100000000E-03 0. -1.
        -11    1    3    3    0    0 -0.11099803151E+02  0.50302882815E+01  0.35678872740E+01  0.12698001813E+02  0.51100000000E-03 0.  1.
         12    1    3    3    0    0 -0.39108166343E+01  0.48285678739E+00 -0.18582175403E+02  0.18995391023E+02  0.00000000000E+00 0. -1.
</event>
<event>
 7    1  0.2755991E-011  0.5052886E+02  0.7816164E-02  0.1300439E+00
        -11   -1    0    0    0    0  0.00000000000E+00  0.00000000000E+00  0.45593999997E+02  0.45594000000E+02  0.51100000000E-03 0.  1.
         11   -1    0    0    0    0 -0.00000000000E+00 -0.00000000000E+00 -0.45593999997E+02  0.45594000000E+02  0.51100000000E-03 0. -1.
    9900012    2    1    2    0    0  0.13375258804E+02 -0.37487122039E+02  0.83056245469E+01  0.50528864914E+02  0.30000015393E+02 0.  0.
         12    1    1    2    0    0 -0.13375258804E+02  0.37487122039E+02 -0.83056245469E+01  0.40659135086E+02  0.00000000000E+00 0. -1.
         11    1    3    3    0    0  0.16017088638E-01 -0.19042041099E+01 -0.60232331318E+01  0.63170869442E+01  0.51100000000E-03 0. -1.
        -11    1    3    3    0    0 -0.23327040954E+01  0.48708988062E+00  0.11103748268E+00  0.23856015032E+01  0.51100000000E-03 0.  1.
        -12    1    3    3    0    0  0.15691945811E+02 -0.36070007809E+02  0.14217820196E+02  0.41826176467E+02  0.00000000000E+00 0.  1.
</event>
<event>
 7    1  0.2755991E-011  0.5052885E+02  0.7816164E-02  0.1300439E+00
        -11   -1    0    0    0    0  0.00000000000E+00  0.00000000000E+00  0.45593999997E+02  0.45594000000E+02  0.51100000000E-03 0. -1.
         11   -1    0    0    0    0 -0.00000000000E+00 -0.00000000000E+00 -0.45593999997E+02  0.45594000000E+02  0.51100000000E-03 0.  1.
    9900012    2    1    2    0    0  0.37442001249E+02  0.15698964682E+02  0.21920779315E+01  0.50528853978E+02  0.29999982151E+02 0.  0.
         12    1    1    2    0    0 -0.37442001249E+02 -0.15698964682E+02 -0.21920779315E+01  0.40659146022E+02  0.00000000000E+00 0. -1.
         11    1    3    3    0    0  0.14391542992E+02  0.14684250448E+02  0.16890635422E+01  0.20629994106E+02  0.51100000000E-03 0. -1.
        -11    1    3    3    0    0  0.98984714699E+01  0.53536237974E+01 -0.78543191889E+01  0.13723387169E+02  0.51100000000E-03 0.  1.
        -12    1    3    3    0    0  0.13151986786E+02 -0.43389095633E+01  0.83573335781E+01  0.16175472703E+02  0.00000000000E+00 0.  1.
</event>
<event>
 7    1  0.2755991E-011  0.5052886E+02  0.7816164E-02  0.1300439E+00
        -11   -1    0    0    0    0  0.00000000000E+00  0.00000000000E+00  0.45593999997E+02  0.45594000000E+02  0.51100000000E-03 0.  1.
         11   -1    0    0    0    0 -0.00000000000E+00 -0.00000000000E+00 -0.45593999997E+02  0.45594000000E+02  0.51100000000E-03 0. -1.
    9900012    2    1    2    0    0 -0.27369725754E+02 -0.29068193223E+02  0.76879253648E+01  0.50528856606E+02  0.29999990139E+02 0.  0.
         12    1    1    2    0    0  0.27369725754E+02  0.29068193223E+02 -0.76879253648E+01  0.40659143394E+02  0.00000000000E+00 0. -1.
         11    1    3    3    0    0 -0.60028602075E+01  0.46765398572E+00  0.12127385551E+01  0.61419675989E+01  0.51100000000E-03 0. -1.
        -11    1    3    3    0    0  0.19429724965E+01 -0.96168824350E+00  0.71842058238E+01  0.75041854974E+01  0.51100000000E-03 0.  1.
        -12    1    3    3    0    0 -0.23309838043E+02 -0.28574158966E+02 -0.70901901417E+00  0.36882703509E+02  0.00000000000E+00 0.  1.
</event>
<event>
 7    1  0.2755991E-011  0.5052885E+02  0.7816164E-02  0.1300439E+00
        -11   -1    0    0    0    0  0.00000000000E+00  0.00000000000E+00  0.45593999997E+02  0.45594000000E+02  0.51100000000E-03 0.  1.
         11   -1    0    0    0    0 -0.00000000000E+00 -0.00000000000E+00 -0.45593999997E+02  0.45594000000E+02  0.51100000000E-03 0. -1.
    9900012    2    1    2    0    0 -0.28720757777E+02 -0.13939430679E+02  0.25178902161E+02  0.50528846431E+02  0.29999959211E+02 0.  0.
         12    1    1    2    0    0  0.28720757777E+02  0.13939430679E+02 -0.25178902161E+02  0.40659153569E+02  0.00000000000E+00 0. -1.
         11    1    3    3    0    0 -0.10134637064E+02  0.33928950504E+01  0.14379000472E+02  0.17915866154E+02  0.51100000000E-03 0. -1.
        -11    1    3    3    0    0 -0.56943061664E+01 -0.48107952159E+01  0.12507229560E+02  0.14560208269E+02  0.51100000000E-03 0.  1.
        -12    1    3    3    0    0 -0.12891814546E+02 -0.12521530513E+02 -0.17073278699E+01  0.18052772007E+02  0.00000000000E+00 0.  1.
</event>
<event>
 7    1  0.2755991E-011  0.5052886E+02  0.7816164E-02  0.1300439E+00
        -11   -1    0    0    0    0  0.00000000000E+00  0.00000000000E+00  0.45593999997E+02  0.45594000000E+02  0.51100000000E-03 0.  1.
         11   -1    0    0    0    0 -0.00000000000E+00 -0.00000000000E+00 -0.45593999997E+02  0.45594000000E+02  0.51100000000E-03 0. -1.
    9900012    2    1    2    0    0 -0.37096158634E+02  0.78992614898E+01  0.14650682181E+02  0.50528858274E+02  0.29999995211E+02 0.  0.
         12    1    1    2    0    0  0.37096158634E+02 -0.78992614898E+01 -0.14650682181E+02  0.40659141726E+02  0.00000000000E+00 0. -1.
         11    1    3    3    0    0 -0.30354361368E+02  0.32943094059E+01  0.20637754807E+02  0.36853176962E+02  0.51100000000E-03 0.  1.
        -11    1    3    3    0    0  0.39689894631E+00  0.42502055250E+01  0.12599129786E+00  0.42705561519E+01  0.51100000000E-03 0. -1.
        -12    1    3    3    0    0 -0.71386962132E+01  0.35474655889E+00 -0.61130639238E+01  0.94051251603E+01  0.00000000000E+00 0.  1.
</event>
<event>
 7    1  0.2755991E-011  0.5052886E+02  0.7816164E-02  0.1300439E+00
        -11   -1    0    0    0    0  0.00000000000E+00  0.00000000000E+00  0.45593999997E+02  0.45594000000E+02  0.51100000000E-03 0.  1.
         11   -1    0    0    0    0 -0.00000000000E+00 -0.00000000000E+00 -0.45593999997E+02  0.45594000000E+02  0.51100000000E-03 0. -1.
    9900012    2    1    2    0    0 -0.81504174400E+01  0.31224030771E+01  0.39711293065E+02  0.50528862007E+02  0.30000006557E+02 0.  0.
         12    1    1    2    0    0  0.81504174400E+01 -0.31224030771E+01 -0.39711293065E+02  0.40659137993E+02  0.00000000000E+00 0. -1.
         11    1    3    3    0    0 -0.34795296541E+01  0.30366155843E+01  0.41243707772E+02  0.41501464936E+02  0.51100000000E-03 0.  1.
        -11    1    3    3    0    0 -0.59807019463E+01  0.72363289384E+00  0.99909862058E+00  0.61066061483E+01  0.51100000000E-03 0. -1.
        -12    1    3    3    0    0  0.13098141604E+01 -0.63784540106E+00 -0.25315133272E+01  0.29207909231E+01  0.00000000000E+00 0.  1.
</event>
<event>
 7    1  0.2755991E-011  0.5052886E+02  0.7816164E-02  0.1300439E+00
        -11   -1    0    0    0    0  0.00000000000E+00  0.00000000000E+00  0.45593999997E+02  0.45594000000E+02  0.51100000000E-03 0. -1.
         11   -1    0    0    0    0 -0.00000000000E+00 -0.00000000000E+00 -0.45593999997E+02  0.45594000000E+02  0.51100000000E-03 0.  1.
    9900012    2    1    2    0    0 -0.25478210472E+02 -0.10274449577E+02 -0.29974364346E+02  0.50528855384E+02  0.29999986424E+02 0.  0.
         12    1    1    2    0    0  0.25478210472E+02  0.10274449577E+02  0.29974364346E+02  0.40659144616E+02  0.00000000000E+00 0. -1.
         11    1    3    3    0    0 -0.42557652541E+00  0.15687907033E+01  0.11806147987E+00  0.16297725068E+01  0.51100000000E-03 0. -1.
        -11    1    3    3    0    0 -0.36533712279E+01  0.40325461290E+01  0.31566834026E+01  0.62907233270E+01  0.51100000000E-03 0.  1.
        -12    1    3    3    0    0 -0.21399262719E+02 -0.15875786410E+02 -0.33249109228E+02  0.42608359550E+02  0.00000000000E+00 0.  1.
</event>
<event>
 7    1  0.2755991E-011  0.5052886E+02  0.7816164E-02  0.1300439E+00
        -11   -1    0    0    0    0  0.00000000000E+00  0.00000000000E+00  0.45593999997E+02  0.45594000000E+02  0.51100000000E-03 0.  1.
         11   -1    0    0    0    0 -0.00000000000E+00 -0.00000000000E+00 -0.45593999997E+02  0.45594000000E+02  0.51100000000E-03 0. -1.
    9900012    2    1    2    0    0 -0.13457685332E+01  0.39087239520E+02 -0.11114946597E+02  0.50528862970E+02  0.30000009482E+02 0.  0.
         12    1    1    2    0    0  0.13457685332E+01 -0.39087239520E+02  0.11114946597E+02  0.40659137030E+02  0.00000000000E+00 0. -1.
         11    1    3    3    0    0  0.31931062240E+01  0.22183831984E+01 -0.56719584966E+01  0.68766463353E+01  0.51100000000E-03 0. -1.
        -11    1    3    3    0    0 -0.66866570064E+01  0.76144356209E+00 -0.30876586467E+01  0.74043780562E+01  0.51100000000E-03 0.  1.
        -12    1    3    3    0    0  0.21477822492E+01  0.36107412759E+02 -0.23553294532E+01  0.36247838578E+02  0.00000000000E+00 0.  1.
</event>
<event>
 7    1  0.2755991E-011  0.5052880E+02  0.7816164E-02  0.1300439E+00
        -11   -1    0    0    0    0  0.00000000000E+00  0.00000000000E+00  0.45593999997E+02  0.45594000000E+02  0.51100000000E-03 0.  1.
         11   -1    0    0    0    0 -0.00000000000E+00 -0.00000000000E+00 -0.45593999997E+02  0.45594000000E+02  0.51100000000E-03 0. -1.
    9900012    2    1    2    0    0 -0.20068980244E+02  0.31631161782E+02 -0.15807474249E+02  0.50528799247E+02  0.29999815792E+02 0.  0.
         12    1    1    2    0    0  0.20068980244E+02 -0.31631161782E+02  0.15807474249E+02  0.40659200753E+02  0.00000000000E+00 0. -1.
         11    1    3    3    0    0  0.28150604285E+01  0.74747891867E+00 -0.55266214866E+00  0.29645784965E+01  0.51100000000E-03 0. -1.
        -11    1    3    3    0    0 -0.18976066491E+02  0.30643347215E+02 -0.47516049229E+01  0.36354966340E+02  0.51100000000E-03 0.  1.
         12    1    3    3    0    0 -0.39079741817E+01  0.24033564831E+00 -0.10503207178E+02  0.11209254411E+02  0.00000000000E+00 0. -1.
</event>
<event>
 7    1  0.2755991E-011  0.5052885E+02  0.7816164E-02  0.1300439E+00
        -11   -1    0    0    0    0  0.00000000000E+00  0.00000000000E+00  0.45593999997E+02  0.45594000000E+02  0.51100000000E-03 0.  1.
         11   -1    0    0    0    0 -0.00000000000E+00 -0.00000000000E+00 -0.45593999997E+02  0.45594000000E+02  0.51100000000E-03 0. -1.
    9900012    2    1    2    0    0  0.14886061417E+02  0.37761538746E+02 -0.23744271631E+01  0.50528849279E+02  0.29999967869E+02 0.  0.
         12    1    1    2    0    0 -0.14886061417E+02 -0.37761538746E+02  0.23744271631E+01  0.40659150721E+02  0.00000000000E+00 0. -1.
         11    1    3    3    0    0 -0.43351927927E+01  0.24765896807E+01  0.29574916813E+01  0.58029432449E+01  0.51100000000E-03 0.  1.
        -11    1    3    3    0    0 -0.56442440432E+00  0.17197125836E+01 -0.54712676755E+01  0.57628774511E+01  0.51100000000E-03 0. -1.
         12    1    3    3    0    0  0.19785678614E+02  0.33565236482E+02  0.13934883109E+00  0.38963028583E+02  0.00000000000E+00 0. -1.
</event>
<event>
 7    1  0.2755991E-011  0.5052885E+02  0.7816164E-02  0.1300439E+00
        -11   -1    0    0    0    0  0.00000000000E+00  0.00000000000E+00  0.45593999997E+02  0.45594000000E+02  0.51100000000E-03 0. -1.
         11   -1    0    0    0    0 -0.00000000000E+00 -0.00000000000E+00 -0.45593999997E+02  0.45594000000E+02  0.51100000000E-03 0.  1.
    9900012    2    1    2    0    0 -0.27383894059E+02  0.29142794377E+02 -0.73475187461E+01  0.50528854047E+02  0.29999982360E+02 0.  0.
         12    1    1    2    0    0  0.27383894059E+02 -0.29142794377E+02  0.73475187461E+01  0.40659145953E+02  0.00000000000E+00 0. -1.
         11    1    3    3    0    0 -0.11244884833E+02  0.87883184101E+01 -0.10054478914E+01  0.14307092685E+02  0.51100000000E-03 0. -1.
        -11    1    3    3    0    0 -0.11451305019E+02  0.25529232955E+02 -0.78876830805E+01  0.29070425978E+02  0.51100000000E-03 0.  1.
         12    1    3    3    0    0 -0.46877042071E+01 -0.51747569876E+01  0.15456122258E+01  0.71513353835E+01  0.00000000000E+00 0. -1.
</event>
<event>
 7    1  0.2755991E-011  0.5052885E+02  0.7816164E-02  0.1300439E+00
        -11   -1    0    0    0    0  0.00000000000E+00  0.00000000000E+00  0.45593999997E+02  0.45594000000E+02  0.51100000000E-03 0.  1.
         11   -1    0    0    0    0 -0.00000000000E+00 -0.00000000000E+00 -0.45593999997E+02  0.45594000000E+02  0.51100000000E-03 0. -1.
    9900012    2    1    2    0    0 -0.30369752267E+02  0.13995523629E+02  0.23129419348E+02  0.50528848832E+02  0.29999966508E+02 0.  0.
         12    1    1    2    0    0  0.30369752267E+02 -0.13995523629E+02 -0.23129419348E+02  0.40659151168E+02  0.00000000000E+00 0. -1.
         11    1    3    3    0    0 -0.78558794214E+01 -0.31880523111E+01  0.10218777765E+02  0.13277874012E+02  0.51100000000E-03 0. -1.
        -11    1    3    3    0    0 -0.13256120333E+02  0.56808594089E+01  0.16641699470E+02  0.22021422557E+02  0.51100000000E-03 0.  1.
         12    1    3    3    0    0 -0.92577525121E+01  0.11502716531E+02 -0.37310578869E+01  0.15229552263E+02  0.00000000000E+00 0. -1.
</event>
<event>
 7    1  0.2755991E-011  0.5052884E+02  0.7816164E-02  0.1300439E+00
        -11   -1    0    0    0    0  0.00000000000E+00  0.00000000000E+00  0.45593999997E+02  0.45594000000E+02  0.51100000000E-03 0.  1.
         11   -1    0    0    0    0 -0.00000000000E+00 -0.00000000000E+00 -0.45593999997E+02  0.45594000000E+02  0.51100000000E-03 0. -1.
    9900012    2    1    2    0    0  0.17235831638E+02  0.34858796125E+02 -0.11872560858E+02  0.50528840381E+02  0.29999940823E+02 0.  0.
         12    1    1    2    0    0 -0.17235831638E+02 -0.34858796125E+02  0.11872560858E+02  0.40659159619E+02  0.00000000000E+00 0. -1.
         11    1    3    3    0    0  0.90337758301E+01  0.33278117341E+02 -0.82958923645E+01  0.35466378867E+02  0.51100000000E-03 0. -1.
        -11    1    3    3    0    0  0.40384963651E+01  0.67567851796E+01 -0.98970859431E+00  0.79336701606E+01  0.51100000000E-03 0.  1.
         12    1    3    3    0    0  0.41635594430E+01 -0.51761063956E+01 -0.25869598994E+01  0.71287913544E+01  0.00000000000E+00 0. -1.
</event>
<event>
 7    1  0.2755991E-011  0.5052889E+02  0.7816164E-02  0.1300439E+00
        -11   -1    0    0    0    0  0.00000000000E+00  0.00000000000E+00  0.45593999997E+02  0.45594000000E+02  0.51100000000E-03 0.  1.
         11   -1    0    0    0    0 -0.00000000000E+00 -0.00000000000E+00 -0.45593999997E+02  0.45594000000E+02  0.51100000000E-03 0. -1.
    9900012    2    1    2    0    0 -0.25954782503E+02  0.18318156834E+02  0.25376326893E+02  0.50528885755E+02  0.30000078742E+02 0.  0.
         12    1    1    2    0    0  0.25954782503E+02 -0.18318156834E+02 -0.25376326893E+02  0.40659114245E+02  0.00000000000E+00 0. -1.
         11    1    3    3    0    0 -0.15334561226E+01  0.10991410789E+02  0.88158993966E+01  0.14173308761E+02  0.51100000000E-03 0.  1.
        -11    1    3    3    0    0 -0.23488815041E+01  0.70224499622E+01  0.11549497988E+02  0.13719437008E+02  0.51100000000E-03 0. -1.
         12    1    3    3    0    0 -0.22072444876E+02  0.30429608293E+00  0.50109295090E+01  0.22636139986E+02  0.00000000000E+00 0. -1.
</event>
<event>
 7    1  0.2755991E-011  0.5052886E+02  0.7816164E-02  0.1300439E+00
        -11   -1    0    0    0    0  0.00000000000E+00  0.00000000000E+00  0.45593999997E+02  0.45594000000E+02  0.51100000000E-03 0.  1.
         11   -1    0    0    0    0 -0.00000000000E+00 -0.00000000000E+00 -0.45593999997E+02  0.45594000000E+02  0.51100000000E-03 0. -1.
    9900012    2    1    2    0    0  0.18899844239E+02 -0.54203327088E+01  0.35589064649E+02  0.50528860296E+02  0.30000001355E+02 0.  0.
         12    1    1    2    0    0 -0.18899844239E+02  0.54203327088E+01 -0.35589064649E+02  0.40659139704E+02  0.00000000000E+00 0. -1.
         11    1    3    3    0    0  0.20979880556E+00 -0.71353028438E+01  0.19767835886E+01  0.74070396130E+01  0.51100000000E-03 0. -1.
        -11    1    3    3    0    0  0.10464563417E+02 -0.79863261927E+01  0.10900983833E+02  0.17091516678E+02  0.51100000000E-03 0.  1.
        -12    1    3    3    0    0  0.82254820158E+01  0.97012963276E+01  0.22711297227E+02  0.26030304004E+02  0.00000000000E+00 0.  1.
</event>
<event>
 7    1  0.2755991E-011  0.5052887E+02  0.7816164E-02  0.1300439E+00
        -11   -1    0    0    0    0  0.00000000000E+00  0.00000000000E+00  0.45593999997E+02  0.45594000000E+02  0.51100000000E-03 0.  1.
         11   -1    0    0    0    0 -0.00000000000E+00 -0.00000000000E+00 -0.45593999997E+02  0.45594000000E+02  0.51100000000E-03 0. -1.
    9900012    2    1    2    0    0  0.17617384729E+02  0.21475789403E+02  0.29691469403E+02  0.50528866580E+02  0.30000020456E+02 0.  0.
         12    1    1    2    0    0 -0.17617384729E+02 -0.21475789403E+02 -0.29691469403E+02  0.40659133420E+02  0.00000000000E+00 0. -1.
         11    1    3    3    0    0  0.93360747017E+00 -0.42768966802E+00 -0.10233080046E+00  0.10319947744E+01  0.51100000000E-03 0. -1.
        -11    1    3    3    0    0  0.17164245273E+02  0.25350426409E+02  0.32821986401E+02  0.44883607548E+02  0.51100000000E-03 0.  1.
         12    1    3    3    0    0 -0.48046801357E+00 -0.34469473375E+01 -0.30281861983E+01  0.46132642577E+01  0.00000000000E+00 0. -1.
</event>
<event>
 7    1  0.2755991E-011  0.5052885E+02  0.7816164E-02  0.1300439E+00
        -11   -1    0    0    0    0  0.00000000000E+00  0.00000000000E+00  0.45593999997E+02  0.45594000000E+02  0.51100000000E-03 0.  1.
         11   -1    0    0    0    0 -0.00000000000E+00 -0.00000000000E+00 -0.45593999997E+02  0.45594000000E+02  0.51100000000E-03 0. -1.
    9900012    2    1    2    0    0 -0.15995595143E+02  0.36769446237E+02 -0.67316379341E+01  0.50528853553E+02  0.29999980859E+02 0.  0.
         12    1    1    2    0    0  0.15995595143E+02 -0.36769446237E+02  0.67316379341E+01  0.40659146447E+02  0.00000000000E+00 0. -1.
         11    1    3    3    0    0 -0.13036633912E+02  0.60346773101E+01 -0.93626219123E+00  0.14396101596E+02  0.51100000000E-03 0. -1.
        -11    1    3    3    0    0 -0.75294806393E+01  0.72610328121E+01  0.26155041367E+01  0.10782232531E+02  0.51100000000E-03 0.  1.
         12    1    3    3    0    0  0.45705194089E+01  0.23473736115E+02 -0.84108798796E+01  0.25350519427E+02  0.00000000000E+00 0. -1.
</event>
<event>
 7    1  0.2755991E-011  0.5052887E+02  0.7816164E-02  0.1300439E+00
        -11   -1    0    0    0    0  0.00000000000E+00  0.00000000000E+00  0.45593999997E+02  0.45594000000E+02  0.51100000000E-03 0. -1.
         11   -1    0    0    0    0 -0.00000000000E+00 -0.00000000000E+00 -0.45593999997E+02  0.45594000000E+02  0.51100000000E-03 0.  1.
    9900012    2    1    2    0    0 -0.79344640245E+01  0.39800327196E+02 -0.24784650936E+01  0.50528873675E+02  0.30000042023E+02 0.  0.
         12    1    1    2    0    0  0.79344640245E+01 -0.39800327196E+02  0.24784650936E+01  0.40659126325E+02  0.00000000000E+00 0. -1.
         11    1    3    3    0    0 -0.20236744288E+01 -0.62588310100E+00 -0.71134580038E+00  0.22345023962E+01  0.51100000000E-03 0. -1.
        -11    1    3    3    0    0  0.45663602596E+01  0.35582838061E+02  0.25637568719E+01  0.35966134906E+02  0.51100000000E-03 0.  1.
         12    1    3    3    0    0 -0.10477149855E+02  0.48433722359E+01 -0.43308761650E+01  0.12328236373E+02  0.00000000000E+00 0. -1.
</event>
<event>
 7    1  0.2755991E-011  0.5052889E+02  0.7816164E-02  0.1300439E+00
        -11   -1    0    0    0    0  0.00000000000E+00  0.00000000000E+00  0.45593999997E+02  0.45594000000E+02  0.51100000000E-03 0.  1.
         11   -1    0    0    0    0 -0.00000000000E+00 -0.00000000000E+00 -0.45593999997E+02  0.45594000000E+02  0.51100000000E-03 0. -1.
    9900012    2    1    2    0    0 -0.26774291064E+02  0.96593641517E+01  0.29034421699E+02  0.50528885140E+02  0.30000076870E+02 0.  0.
         12    1    1    2    0    0  0.26774291064E+02 -0.96593641517E+01 -0.29034421699E+02  0.40659114860E+02  0.00000000000E+00 0. -1.
         11    1    3    3    0    0 -0.23655849357E+02  0.17903199180E+01  0.80980645603E+01  0.25067570765E+02  0.51100000000E-03 0.  1.
        -11    1    3    3    0    0  0.13490585902E+01 -0.24981011171E+01  0.68123201277E+01  0.73802556903E+01  0.51100000000E-03 0. -1.
        -12    1    3    3    0    0 -0.44675002979E+01  0.10367145351E+02  0.14124037011E+02  0.18081058684E+02  0.00000000000E+00 0.  1.
</event>
<event>
 7    1  0.2755991E-011  0.5052884E+02  0.7816164E-02  0.1300439E+00
        -11   -1    0    0    0    0  0.00000000000E+00  0.00000000000E+00  0.45593999997E+02  0.45594000000E+02  0.51100000000E-03 0.  1.
         11   -1    0    0    0    0 -0.00000000000E+00 -0.00000000000E+00 -0.45593999997E+02  0.45594000000E+02  0.51100000000E-03 0. -1.
    9900012    2    1    2    0    0 -0.10526296362E+02 -0.13474667236E+02  0.36888988303E+02  0.50528843217E+02  0.29999949444E+02 0.  0.
         12    1    1    2    0    0  0.10526296362E+02  0.13474667236E+02 -0.36888988303E+02  0.40659156783E+02  0.00000000000E+00 0. -1.
         11    1    3    3    0    0 -0.59965045440E+01  0.31385784380E+01  0.70286944373E+01  0.97576271251E+01  0.51100000000E-03 0. -1.
        -11    1    3    3    0    0 -0.80641212517E+01 -0.40617388249E+01  0.97834637987E+00  0.90821217644E+01  0.51100000000E-03 0.  1.
         12    1    3    3    0    0  0.35343294335E+01 -0.12551506849E+02  0.28881947486E+02  0.31689094328E+02  0.00000000000E+00 0. -1.
</event>
<event>
 7    1  0.2755991E-011  0.5052887E+02  0.7816164E-02  0.1300439E+00
        -11   -1    0    0    0    0  0.00000000000E+00  0.00000000000E+00  0.45593999997E+02  0.45594000000E+02  0.51100000000E-03 0.  1.
         11   -1    0    0    0    0 -0.00000000000E+00 -0.00000000000E+00 -0.45593999997E+02  0.45594000000E+02  0.51100000000E-03 0. -1.
    9900012    2    1    2    0    0  0.33214148017E+02  0.10437333988E+02  0.21001134559E+02  0.50528865454E+02  0.30000017033E+02 0.  0.
         12    1    1    2    0    0 -0.33214148017E+02 -0.10437333988E+02 -0.21001134559E+02  0.40659134546E+02  0.00000000000E+00 0. -1.
         11    1    3    3    0    0  0.21117750039E+02  0.10518698852E+02  0.15729457968E+02  0.28355215402E+02  0.51100000000E-03 0.  1.
        -11    1    3    3    0    0  0.70170376274E+01  0.71280775709E+01 -0.26192682420E+01  0.10339674720E+02  0.51100000000E-03 0. -1.
         12    1    3    3    0    0  0.50793603501E+01 -0.72094424355E+01  0.78909448338E+01  0.11833975332E+02  0.00000000000E+00 0. -1.
</event>
<event>
 7    1  0.2755991E-011  0.5052886E+02  0.7816164E-02  0.1300439E+00
        -11   -1    0    0    0    0  0.00000000000E+00  0.00000000000E+00  0.45593999997E+02  0.45594000000E+02  0.51100000000E-03 0. -1.
         11   -1    0    0    0    0 -0.00000000000E+00 -0.00000000000E+00 -0.45593999997E+02  0.45594000000E+02  0.51100000000E-03 0.  1.
    9900012    2    1    2    0    0 -0.50750053800E+01  0.36300538030E+02 -0.17597760362E+02  0.50528856985E+02  0.29999991293E+02 0.  0.
         12    1    1    2    0    0  0.50750053800E+01 -0.36300538030E+02  0.17597760362E+02  0.40659143015E+02  0.00000000000E+00 0. -1.
         11    1    3    3    0    0  0.51999006705E+01  0.37388851090E+01  0.31355167038E+01  0.71308971457E+01  0.51100000000E-03 0. -1.
        -11    1    3    3    0    0  0.29526466354E+01  0.25142769664E+01  0.10261826117E+01  0.40115784712E+01  0.51100000000E-03 0.  1.
        -12    1    3    3    0    0 -0.13227552686E+02  0.30047375955E+02 -0.21759459678E+02  0.39386381369E+02  0.00000000000E+00 0.  1.
</event>
<event>
 7    1  0.2755991E-011  0.5052886E+02  0.7816164E-02  0.1300439E+00
        -11   -1    0    0    0    0  0.00000000000E+00  0.00000000000E+00  0.45593999997E+02  0.45594000000E+02  0.51100000000E-03 0.  1.
         11   -1    0    0    0    0 -0.00000000000E+00 -0.00000000000E+00 -0.45593999997E+02  0.45594000000E+02  0.51100000000E-03 0. -1.
    9900012    2    1    2    0    0 -0.43652925229E+01  0.26914633622E+02  0.30161432470E+02  0.50528864612E+02  0.30000014475E+02 0.  0.
         12    1    1    2    0    0  0.43652925229E+01 -0.26914633622E+02 -0.30161432470E+02  0.40659135388E+02  0.00000000000E+00 0. -1.
         11    1    3    3    0    0 -0.52749713959E+01  0.67063592967E+01  0.14298137932E+02  0.16650445244E+02  0.51100000000E-03 0.  1.
        -11    1    3    3    0    0 -0.24861900945E+01  0.16305388127E+02  0.20922746981E+02  0.26642225220E+02  0.51100000000E-03 0. -1.
         12    1    3    3    0    0  0.33958689675E+01  0.39028861981E+01 -0.50594524433E+01  0.72361941479E+01  0.00000000000E+00 0. -1.
</event>
<event>
 7    1  0.2755991E-011  0.5052887E+02  0.7816164E-02  0.1300439E+00
        -11   -1    0    0    0    0  0.00000000000E+00  0.00000000000E+00  0.45593999997E+02  0.45594000000E+02  0.51100000000E-03 0.  1.
         11   -1    0    0    0    0 -0.00000000000E+00 -0.00000000000E+00 -0.45593999997E+02  0.45594000000E+02  0.51100000000E-03 0. -1.
    9900012    2    1    2    0    0  0.23960316417E+02 -0.18519694018E+02  0.27130962071E+02  0.50528869018E+02  0.30000027866E+02 0.  0.
         12    1    1    2    0    0 -0.23960316417E+02  0.18519694018E+02 -0.27130962071E+02  0.40659130982E+02  0.00000000000E+00 0. -1.
         11    1    3    3    0    0  0.18029196758E+02 -0.88734551948E+01  0.10525221998E+02  0.22684145150E+02  0.51100000000E-03 0. -1.
        -11    1    3    3    0    0  0.11341171287E+02 -0.35915365613E+01  0.15665998059E+02  0.19670912447E+02  0.51100000000E-03 0.  1.
         12    1    3    3    0    0 -0.54100516275E+01 -0.60547022618E+01  0.93974201366E+00  0.81738114208E+01  0.00000000000E+00 0. -1.
</event>
<event>
 7    1  0.2755991E-011  0.5052886E+02  0.7816164E-02  0.1300439E+00
        -11   -1    0    0    0    0  0.00000000000E+00  0.00000000000E+00  0.45593999997E+02  0.45594000000E+02  0.51100000000E-03 0. -1.
         11   -1    0    0    0    0 -0.00000000000E+00 -0.00000000000E+00 -0.45593999997E+02  0.45594000000E+02  0.51100000000E-03 0.  1.
    9900012    2    1    2    0    0  0.25453985266E+02 -0.17451451099E+02 -0.26470870115E+02  0.50528862331E+02  0.30000007540E+02 0.  0.
         12    1    1    2    0    0 -0.25453985266E+02  0.17451451099E+02  0.26470870115E+02  0.40659137669E+02  0.00000000000E+00 0. -1.
         11    1    3    3    0    0 -0.13930717840E+01  0.20493020696E+01  0.40251603965E+01  0.47267541132E+01  0.51100000000E-03 0. -1.
        -11    1    3    3    0    0  0.15156107367E+01 -0.42110784708E+01 -0.28346703200E+01  0.52976989228E+01  0.51100000000E-03 0.  1.
         12    1    3    3    0    0  0.25331446313E+02 -0.15289674698E+02 -0.27661360191E+02  0.40504409295E+02  0.00000000000E+00 0. -1.
</event>
<event>
 7    1  0.2755991E-011  0.5052886E+02  0.7816164E-02  0.1300439E+00
        -11   -1    0    0    0    0  0.00000000000E+00  0.00000000000E+00  0.45593999997E+02  0.45594000000E+02  0.51100000000E-03 0. -1.
         11   -1    0    0    0    0 -0.00000000000E+00 -0.00000000000E+00 -0.45593999997E+02  0.45594000000E+02  0.51100000000E-03 0.  1.
    9900012    2    1    2    0    0  0.13786010284E+02 -0.19476753713E+02 -0.32920622748E+02  0.50528863058E+02  0.30000009750E+02 0.  0.
         12    1    1    2    0    0 -0.13786010284E+02  0.19476753713E+02  0.32920622748E+02  0.40659136942E+02  0.00000000000E+00 0. -1.
         11    1    3    3    0    0  0.25755793610E+01  0.40091193034E+01 -0.74206737854E+01  0.88189027846E+01  0.51100000000E-03 0. -1.
        -11    1    3    3    0    0  0.98863173562E+01 -0.31944058927E+01 -0.16441229025E+02  0.19448843461E+02  0.51100000000E-03 0.  1.
         12    1    3    3    0    0  0.13241135672E+01 -0.20291467124E+02 -0.90587199380E+01  0.22261116812E+02  0.00000000000E+00 0. -1.
</event>
<event>
 7    1  0.2755991E-011  0.5052887E+02  0.7816164E-02  0.1300439E+00
        -11   -1    0    0    0    0  0.00000000000E+00  0.00000000000E+00  0.45593999997E+02  0.45594000000E+02  0.51100000000E-03 0. -1.
         11   -1    0    0    0    0 -0.00000000000E+00 -0.00000000000E+00 -0.45593999997E+02  0.45594000000E+02  0.51100000000E-03 0.  1.
    9900012    2    1    2    0    0  0.17983088577E+02  0.35203609414E+02 -0.95120411859E+01  0.50528874111E+02  0.30000043348E+02 0.  0.
         12    1    1    2    0    0 -0.17983088577E+02 -0.35203609414E+02  0.95120411859E+01  0.40659125889E+02  0.00000000000E+00 0. -1.
         11    1    3    3    0    0  0.34371938565E+01 -0.26425567295E+01 -0.65390802846E+00  0.43846326695E+01  0.51100000000E-03 0. -1.
        -11    1    3    3    0    0  0.93731761624E+01  0.31022264062E+01  0.17394019824E+00  0.98747402750E+01  0.51100000000E-03 0.  1.
        -12    1    3    3    0    0  0.51727185580E+01  0.34743939737E+02 -0.90320733557E+01  0.36269501166E+02  0.00000000000E+00 0.  1.
</event>
<event>
 7    1  0.2755991E-011  0.5052886E+02  0.7816164E-02  0.1300439E+00
        -11   -1    0    0    0    0  0.00000000000E+00  0.00000000000E+00  0.45593999997E+02  0.45594000000E+02  0.51100000000E-03 0. -1.
         11   -1    0    0    0    0 -0.00000000000E+00 -0.00000000000E+00 -0.45593999997E+02  0.45594000000E+02  0.51100000000E-03 0.  1.
    9900012    2    1    2    0    0  0.51690511416E+01  0.37719799332E+02 -0.14271073393E+02  0.50528857275E+02  0.29999992172E+02 0.  0.
         12    1    1    2    0    0 -0.51690511416E+01 -0.37719799332E+02  0.14271073393E+02  0.40659142725E+02  0.00000000000E+00 0. -1.
         11    1    3    3    0    0  0.23567075000E+01  0.81136867303E+00 -0.43635424470E+01  0.50252255981E+01  0.51100000000E-03 0. -1.
        -11    1    3    3    0    0  0.20962712606E+01  0.22223905558E+02 -0.18041307466E+02  0.28701656865E+02  0.51100000000E-03 0.  1.
         12    1    3    3    0    0  0.71607238096E+00  0.14684525101E+02  0.81337765197E+01  0.16801974812E+02  0.00000000000E+00 0. -1.
</event>
<event>
 7    1  0.2755991E-011  0.5052887E+02  0.7816164E-02  0.1300439E+00
        -11   -1    0    0    0    0  0.00000000000E+00  0.00000000000E+00  0.45593999997E+02  0.45594000000E+02  0.51100000000E-03 0.  1.
         11   -1    0    0    0    0 -0.00000000000E+00 -0.00000000000E+00 -0.45593999997E+02  0.45594000000E+02  0.51100000000E-03 0. -1.
    9900012    2    1    2    0    0 -0.32380279159E+02 -0.11434134038E+02  0.21770239558E+02  0.50528865356E+02  0.30000016735E+02 0.  0.
         12    1    1    2    0    0  0.32380279159E+02  0.11434134038E+02 -0.21770239558E+02  0.40659134644E+02  0.00000000000E+00 0. -1.
         11    1    3    3    0    0  0.32500014284E+01 -0.20138778765E+01  0.11572790349E+02  0.12188014199E+02  0.51100000000E-03 0. -1.
        -11    1    3    3    0    0 -0.28645734225E+01 -0.15710755447E+01  0.89088673865E+00  0.33864049820E+01  0.51100000000E-03 0.  1.
         12    1    3    3    0    0 -0.32765707165E+02 -0.78491806166E+01  0.93065624704E+01  0.34954446175E+02  0.00000000000E+00 0. -1.
</event>
<event>
 7    1  0.2755991E-011  0.5052886E+02  0.7816164E-02  0.1300439E+00
        -11   -1    0    0    0    0  0.00000000000E+00  0.00000000000E+00  0.45593999997E+02  0.45594000000E+02  0.51100000000E-03 0.  1.
         11   -1    0    0    0    0 -0.00000000000E+00 -0.00000000000E+00 -0.45593999997E+02  0.45594000000E+02  0.51100000000E-03 0. -1.
    9900012    2    1    2    0    0  0.98525314590E+01 -0.33597595637E+02  0.20671118639E+02  0.50528856446E+02  0.29999989654E+02 0.  0.
         12    1    1    2    0    0 -0.98525314590E+01  0.33597595637E+02 -0.20671118639E+02  0.40659143554E+02  0.00000000000E+00 0. -1.
         11    1    3    3    0    0  0.84901943285E+01 -0.37534302303E+01 -0.29381081134E+01  0.97367406136E+01  0.51100000000E-03 0. -1.
        -11    1    3    3    0    0  0.52395814226E+01 -0.43148300872E+01  0.18777904957E+01  0.70425186952E+01  0.51100000000E-03 0.  1.
         12    1    3    3    0    0 -0.38772442921E+01 -0.25529335319E+02  0.21731436257E+02  0.33749597137E+02  0.00000000000E+00 0. -1.
</event>
<event>
 7    1  0.2755991E-011  0.5052886E+02  0.7816164E-02  0.1300439E+00
        -11   -1    0    0    0    0  0.00000000000E+00  0.00000000000E+00  0.45593999997E+02  0.45594000000E+02  0.51100000000E-03 0.  1.
         11   -1    0    0    0    0 -0.00000000000E+00 -0.00000000000E+00 -0.45593999997E+02  0.45594000000E+02  0.51100000000E-03 0. -1.
    9900012    2    1    2    0    0  0.31716028227E+02 -0.75518504784E+01 -0.24294629696E+02  0.50528856819E+02  0.29999990786E+02 0.  0.
         12    1    1    2    0    0 -0.31716028227E+02  0.75518504784E+01  0.24294629696E+02  0.40659143181E+02  0.00000000000E+00 0. -1.
         11    1    3    3    0    0  0.82701195886E+01  0.19122280747E+01 -0.18668925575E+01  0.86911899244E+01  0.51100000000E-03 0. -1.
        -11    1    3    3    0    0  0.24018891627E+02 -0.98188372156E+01 -0.76611115903E+01  0.27055671315E+02  0.51100000000E-03 0.  1.
         12    1    3    3    0    0 -0.57298298805E+00  0.35475866256E+00 -0.14766625549E+02  0.14781995579E+02  0.00000000000E+00 0. -1.
</event>
<event>
 7    1  0.2755991E-011  0.5052886E+02  0.7816164E-02  0.1300439E+00
        -11   -1    0    0    0    0  0.00000000000E+00  0.00000000000E+00  0.45593999997E+02  0.45594000000E+02  0.51100000000E-03 0. -1.
         11   -1    0    0    0    0 -0.00000000000E+00 -0.00000000000E+00 -0.45593999997E+02  0.45594000000E+02  0.51100000000E-03 0.  1.
    9900012    2    1    2    0    0 -0.11164476064E+02 -0.37120027153E+02 -0.12272887304E+02  0.50528859522E+02  0.29999999004E+02 0.  0.
         12    1    1    2    0    0  0.11164476064E+02  0.37120027153E+02  0.12272887304E+02  0.40659140478E+02  0.00000000000E+00 0. -1.
         11    1    3    3    0    0  0.43102770001E+01 -0.15659684415E+02 -0.78607379615E+00  0.16261061345E+02  0.51100000000E-03 0. -1.
        -11    1    3    3    0    0 -0.37790978350E+01 -0.16477130995E+02  0.33406018925E+00  0.16908253095E+02  0.51100000000E-03 0.  1.
         12    1    3    3    0    0 -0.11695655229E+02 -0.49832117437E+01 -0.11820873697E+02  0.17359545082E+02  0.00000000000E+00 0. -1.
</event>
<event>
 7    1  0.2755991E-011  0.5052888E+02  0.7816164E-02  0.1300439E+00
        -11   -1    0    0    0    0  0.00000000000E+00  0.00000000000E+00  0.45593999997E+02  0.45594000000E+02  0.51100000000E-03 0.  1.
         11   -1    0    0    0    0 -0.00000000000E+00 -0.00000000000E+00 -0.45593999997E+02  0.45594000000E+02  0.51100000000E-03 0. -1.
    9900012    2    1    2    0    0  0.20126017894E+02  0.25788527890E+02  0.24146621191E+02  0.50528879474E+02  0.30000059650E+02 0.  0.
         12    1    1    2    0    0 -0.20126017894E+02 -0.25788527890E+02 -0.24146621191E+02  0.40659120526E+02  0.00000000000E+00 0. -1.
         11    1    3    3    0    0 -0.13311718545E+01  0.14259750228E+01 -0.32597789474E+01  0.37988922489E+01  0.51100000000E-03 0. -1.
        -11    1    3    3    0    0 -0.23848713586E+01 -0.13330036825E+01  0.13124031023E+01  0.30309919793E+01  0.51100000000E-03 0.  1.
        -12    1    3    3    0    0  0.23842061107E+02  0.25695556550E+02  0.26093997036E+02  0.43698995246E+02  0.00000000000E+00 0.  1.
</event>
<event>
 7    1  0.2822005E-011  0.5052886E+02  0.7816164E-02  0.1300439E+00
        -11   -1    0    0    0    0  0.00000000000E+00  0.00000000000E+00  0.45593999997E+02  0.45594000000E+02  0.51100000000E-03 0. -1.
         11   -1    0    0    0    0 -0.00000000000E+00 -0.00000000000E+00 -0.45593999997E+02  0.45594000000E+02  0.51100000000E-03 0.  1.
    9900012    2    1    2    0    0 -0.73580783397E+00  0.45755279975E+00 -0.40649902958E+02  0.50528863534E+02  0.30000011197E+02 0.  0.
         12    1    1    2    0    0  0.73580783397E+00 -0.45755279975E+00  0.40649902958E+02  0.40659136466E+02  0.00000000000E+00 0. -1.
         11    1    3    3    0    0  0.74937445068E+01  0.67539635246E+01 -0.11123231624E+02  0.15016607874E+02  0.51100000000E-03 0.  1.
        -11    1    3    3    0    0  0.40842947641E+00 -0.91752428192E+01 -0.81568366430E+01  0.12283561361E+02  0.51100000000E-03 0. -1.
        -12    1    3    3    0    0 -0.86379818172E+01  0.28788320943E+01 -0.21369834691E+02  0.23228694298E+02  0.00000000000E+00 0.  1.
</event>
<event>
 7    1  0.2755991E-011  0.5052886E+02  0.7816164E-02  0.1300439E+00
        -11   -1    0    0    0    0  0.00000000000E+00  0.00000000000E+00  0.45593999997E+02  0.45594000000E+02  0.51100000000E-03 0. -1.
         11   -1    0    0    0    0 -0.00000000000E+00 -0.00000000000E+00 -0.45593999997E+02  0.45594000000E+02  0.51100000000E-03 0.  1.
    9900012    2    1    2    0    0  0.31819958326E+01 -0.10579079953E+02 -0.39129579709E+02  0.50528855416E+02  0.29999986521E+02 0.  0.
         12    1    1    2    0    0 -0.31819958326E+01  0.10579079953E+02  0.39129579709E+02  0.40659144584E+02  0.00000000000E+00 0. -1.
         11    1    3    3    0    0  0.20122107054E+01 -0.15678218658E+02 -0.18785807377E+02  0.24551213641E+02  0.51100000000E-03 0. -1.
        -11    1    3    3    0    0 -0.16801376698E+01 -0.51224381380E+01 -0.52326597346E+01  0.75128532014E+01  0.51100000000E-03 0.  1.
         12    1    3    3    0    0  0.28499227970E+01  0.10221576843E+02 -0.15111112598E+02  0.18464788573E+02  0.00000000000E+00 0. -1.
</event>
<event>
 7    1  0.2755991E-011  0.5052886E+02  0.7816164E-02  0.1300439E+00
        -11   -1    0    0    0    0  0.00000000000E+00  0.00000000000E+00  0.45593999997E+02  0.45594000000E+02  0.51100000000E-03 0.  1.
         11   -1    0    0    0    0 -0.00000000000E+00 -0.00000000000E+00 -0.45593999997E+02  0.45594000000E+02  0.51100000000E-03 0. -1.
    9900012    2    1    2    0    0  0.10533509889E+02 -0.30818732661E+02  0.24339608646E+02  0.50528860038E+02  0.30000000571E+02 0.  0.
         12    1    1    2    0    0 -0.10533509889E+02  0.30818732661E+02 -0.24339608646E+02  0.40659139962E+02  0.00000000000E+00 0. -1.
         11    1    3    3    0    0  0.39687429436E+00 -0.68952661219E+01 -0.15850667758E+01  0.70862289719E+01  0.51100000000E-03 0. -1.
        -11    1    3    3    0    0  0.99651213206E+01 -0.24117334600E+02  0.10680316592E+02  0.28196074796E+02  0.51100000000E-03 0.  1.
         12    1    3    3    0    0  0.17151427359E+00  0.19386806009E+00  0.15244358830E+02  0.15246556270E+02  0.00000000000E+00 0. -1.
</event>
<event>
 7    1  0.2755991E-011  0.5052886E+02  0.7816164E-02  0.1300439E+00
        -11   -1    0    0    0    0  0.00000000000E+00  0.00000000000E+00  0.45593999997E+02  0.45594000000E+02  0.51100000000E-03 0.  1.
         11   -1    0    0    0    0 -0.00000000000E+00 -0.00000000000E+00 -0.45593999997E+02  0.45594000000E+02  0.51100000000E-03 0. -1.
    9900012    2    1    2    0    0 -0.16109382945E+01 -0.25429311347E+01  0.40547550141E+02  0.50528862732E+02  0.30000008760E+02 0.  0.
         12    1    1    2    0    0  0.16109382945E+01  0.25429311347E+01 -0.40547550141E+02  0.40659137268E+02  0.00000000000E+00 0. -1.
         11    1    3    3    0    0 -0.52672578154E+01 -0.67379404225E+01  0.13292063804E+00  0.85534504259E+01  0.51100000000E-03 0. -1.
        -11    1    3    3    0    0 -0.30694346806E+01  0.29795804125E+01  0.11667881560E+02  0.12427340385E+02  0.51100000000E-03 0.  1.
        -12    1    3    3    0    0  0.67257542015E+01  0.12154288753E+01  0.28746747943E+02  0.29548071921E+02  0.00000000000E+00 0.  1.
</event>
<event>
 7    1  0.2755991E-011  0.5052886E+02  0.7816164E-02  0.1300439E+00
        -11   -1    0    0    0    0  0.00000000000E+00  0.00000000000E+00  0.45593999997E+02  0.45594000000E+02  0.51100000000E-03 0.  1.
         11   -1    0    0    0    0 -0.00000000000E+00 -0.00000000000E+00 -0.45593999997E+02  0.45594000000E+02  0.51100000000E-03 0. -1.
    9900012    2    1    2    0    0 -0.11963500509E+02  0.18431926948E+02  0.34209710288E+02  0.50528861378E+02  0.30000004646E+02 0.  0.
         12    1    1    2    0    0  0.11963500509E+02 -0.18431926948E+02 -0.34209710288E+02  0.40659138622E+02  0.00000000000E+00 0. -1.
         11    1    3    3    0    0 -0.18924151215E+01  0.11542949218E+02  0.17703237633E+02  0.21218518671E+02  0.51100000000E-03 0. -1.
        -11    1    3    3    0    0 -0.15985884451E+01  0.13318617021E+02  0.10916844544E+02  0.17295043782E+02  0.51100000000E-03 0.  1.
         12    1    3    3    0    0 -0.84724969421E+01 -0.64296392909E+01  0.55896281116E+01  0.12015298926E+02  0.00000000000E+00 0. -1.
</event>
<event>
 7    1  0.3427860E-011  0.5052886E+02  0.7816164E-02  0.1300439E+00
        -11   -1    0    0    0    0  0.00000000000E+00  0.00000000000E+00  0.45593999997E+02  0.45594000000E+02  0.51100000000E-03 0. -1.
         11   -1    0    0    0    0 -0.00000000000E+00 -0.00000000000E+00 -0.45593999997E+02  0.45594000000E+02  0.51100000000E-03 0.  1.
    9900012    2    1    2    0    0  0.26534401445E+02 -0.20077195365E+02 -0.23366594759E+02  0.50528856079E+02  0.29999988536E+02 0.  0.
         12    1    1    2    0    0 -0.26534401445E+02  0.20077195365E+02  0.23366594759E+02  0.40659143921E+02  0.00000000000E+00 0. -1.
         11    1    3    3    0    0 -0.26834902953E+01 -0.59257430555E+01  0.19788979142E+01  0.67993814528E+01  0.51100000000E-03 0. -1.
        -11    1    3    3    0    0  0.12034065012E+02 -0.84558237048E+01 -0.30688800529E+01  0.15024569887E+02  0.51100000000E-03 0.  1.
        -12    1    3    3    0    0  0.17183826728E+02 -0.56956286051E+01 -0.22276612620E+02  0.28704904739E+02  0.00000000000E+00 0.  1.
</event>
<event>
 7    1  0.2755991E-011  0.5052886E+02  0.7816164E-02  0.1300439E+00
        -11   -1    0    0    0    0  0.00000000000E+00  0.00000000000E+00  0.45593999997E+02  0.45594000000E+02  0.51100000000E-03 0.  1.
         11   -1    0    0    0    0 -0.00000000000E+00 -0.00000000000E+00 -0.45593999997E+02  0.45594000000E+02  0.51100000000E-03 0. -1.
    9900012    2    1    2    0    0  0.14337064265E+02 -0.35675852329E+02  0.13222993562E+02  0.50528863144E+02  0.30000010013E+02 0.  0.
         12    1    1    2    0    0 -0.14337064265E+02  0.35675852329E+02 -0.13222993562E+02  0.40659136856E+02  0.00000000000E+00 0. -1.
         11    1    3    3    0    0  0.74712310388E+00 -0.74733183008E+00  0.20825427576E+01  0.23353120551E+01  0.51100000000E-03 0. -1.
        -11    1    3    3    0    0  0.18973937580E+02 -0.29890872149E+02  0.16517455140E+02  0.39067900759E+02  0.51100000000E-03 0.  1.
         12    1    3    3    0    0 -0.53839964190E+01 -0.50376483491E+01 -0.53770043352E+01  0.91256503302E+01  0.00000000000E+00 0. -1.
</event>
<event>
 7    1  0.2755991E-011  0.5052887E+02  0.7816164E-02  0.1300439E+00
        -11   -1    0    0    0    0  0.00000000000E+00  0.00000000000E+00  0.45593999997E+02  0.45594000000E+02  0.51100000000E-03 0.  1.
         11   -1    0    0    0    0 -0.00000000000E+00 -0.00000000000E+00 -0.45593999997E+02  0.45594000000E+02  0.51100000000E-03 0. -1.
    9900012    2    1    2    0    0 -0.12037079900E+02  0.34686428490E+02  0.17467843645E+02  0.50528866026E+02  0.30000018772E+02 0.  0.
         12    1    1    2    0    0  0.12037079900E+02 -0.34686428490E+02 -0.17467843645E+02  0.40659133974E+02  0.00000000000E+00 0. -1.
         11    1    3    3    0    0 -0.43166195747E+01  0.64637260579E+01  0.94093254681E+01  0.12204440386E+02  0.51100000000E-03 0. -1.
        -11    1    3    3    0    0 -0.10441477062E+02  0.19040945604E+02  0.15089707917E+02  0.26443928188E+02  0.51100000000E-03 0.  1.
         12    1    3    3    0    0  0.27210167360E+01  0.91817568286E+01 -0.70311897408E+01  0.11880497452E+02  0.00000000000E+00 0. -1.
</event>
<event>
 7    1  0.2755991E-011  0.5052886E+02  0.7816164E-02  0.1300439E+00
        -11   -1    0    0    0    0  0.00000000000E+00  0.00000000000E+00  0.45593999997E+02  0.45594000000E+02  0.51100000000E-03 0. -1.
         11   -1    0    0    0    0 -0.00000000000E+00 -0.00000000000E+00 -0.45593999997E+02  0.45594000000E+02  0.51100000000E-03 0.  1.
    9900012    2    1    2    0    0 -0.12978647776E+02 -0.89501394149E+01 -0.37478201810E+02  0.50528857061E+02  0.29999991521E+02 0.  0.
         12    1    1    2    0    0  0.12978647776E+02  0.89501394149E+01  0.37478201810E+02  0.40659142939E+02  0.00000000000E+00 0. -1.
         11    1    3    3    0    0 -0.12781443314E+02 -0.12674090152E+01 -0.12086153389E+02  0.17636516742E+02  0.51100000000E-03 0. -1.
        -11    1    3    3    0    0 -0.82919325115E+01 -0.90730088438E+01 -0.11970478295E+02  0.17157155508E+02  0.51100000000E-03 0.  1.
        -12    1    3    3    0    0  0.80947280494E+01  0.13902784440E+01 -0.13421570127E+02  0.15735184810E+02  0.00000000000E+00 0.  1.
</event>
<event>
 7    1  0.2755991E-011  0.5052886E+02  0.7816164E-02  0.1300439E+00
        -11   -1    0    0    0    0  0.00000000000E+00  0.00000000000E+00  0.45593999997E+02  0.45594000000E+02  0.51100000000E-03 0.  1.
         11   -1    0    0    0    0 -0.00000000000E+00 -0.00000000000E+00 -0.45593999997E+02  0.45594000000E+02  0.51100000000E-03 0. -1.
    9900012    2    1    2    0    0  0.20179515554E+02 -0.89489742843E+01  0.34144818811E+02  0.50528860309E+02  0.30000001397E+02 0.  0.
         12    1    1    2    0    0 -0.20179515554E+02  0.89489742843E+01 -0.34144818811E+02  0.40659139691E+02  0.00000000000E+00 0. -1.
         11    1    3    3    0    0  0.50414606413E+01  0.10734153746E+02  0.10562066300E+02  0.15880668337E+02  0.51100000000E-03 0.  1.
        -11    1    3    3    0    0  0.44889979013E+01 -0.79374024086E+01  0.57205705262E+01  0.10764682372E+02  0.51100000000E-03 0. -1.
        -12    1    3    3    0    0  0.10649057012E+02 -0.11745725621E+02  0.17862181985E+02  0.23883509601E+02  0.00000000000E+00 0.  1.
</event>
<event>
 7    1  0.2755991E-011  0.5052885E+02  0.7816164E-02  0.1300439E+00
        -11   -1    0    0    0    0  0.00000000000E+00  0.00000000000E+00  0.45593999997E+02  0.45594000000E+02  0.51100000000E-03 0.  1.
         11   -1    0    0    0    0 -0.00000000000E+00 -0.00000000000E+00 -0.45593999997E+02  0.45594000000E+02  0.51100000000E-03 0. -1.
    9900012    2    1    2    0    0  0.36065860536E+02  0.11034548386E+02  0.15187447766E+02  0.50528854363E+02  0.29999983321E+02 0.  0.
         12    1    1    2    0    0 -0.36065860536E+02 -0.11034548386E+02 -0.15187447766E+02  0.40659145637E+02  0.00000000000E+00 0. -1.
         11    1    3    3    0    0  0.10220003987E+02  0.91231228035E+01  0.11249885919E+02  0.17726809770E+02  0.51100000000E-03 0. -1.
        -11    1    3    3    0    0  0.16396956012E+02  0.10007216760E+02  0.61377182798E+01  0.20166212824E+02  0.51100000000E-03 0.  1.
         12    1    3    3    0    0  0.94489005383E+01 -0.80957911768E+01 -0.22001564326E+01  0.12635831769E+02  0.00000000000E+00 0. -1.
</event>
<event>
 7    1  0.2755991E-011  0.5052887E+02  0.7816164E-02  0.1300439E+00
        -11   -1    0    0    0    0  0.00000000000E+00  0.00000000000E+00  0.45593999997E+02  0.45594000000E+02  0.51100000000E-03 0.  1.
         11   -1    0    0    0    0 -0.00000000000E+00 -0.00000000000E+00 -0.45593999997E+02  0.45594000000E+02  0.51100000000E-03 0. -1.
    9900012    2    1    2    0    0  0.18409463863E+02  0.26256668094E+02  0.24996878797E+02  0.50528869061E+02  0.30000027998E+02 0.  0.
         12    1    1    2    0    0 -0.18409463863E+02 -0.26256668094E+02 -0.24996878797E+02  0.40659130939E+02  0.00000000000E+00 0. -1.
         11    1    3    3    0    0  0.10961168292E+02  0.97758204570E+01 -0.29749570076E+01  0.14985467807E+02  0.51100000000E-03 0. -1.
        -11    1    3    3    0    0 -0.14478812812E+01  0.16494530981E+01 -0.48076133984E+00  0.22468171831E+01  0.51100000000E-03 0.  1.
        -12    1    3    3    0    0  0.88961768523E+01  0.14831394539E+02  0.28452597145E+02  0.33296584071E+02  0.00000000000E+00 0.  1.
</event>
<event>
 7    1  0.2755991E-011  0.5052886E+02  0.7816164E-02  0.1300439E+00
        -11   -1    0    0    0    0  0.00000000000E+00  0.00000000000E+00  0.45593999997E+02  0.45594000000E+02  0.51100000000E-03 0.  1.
         11   -1    0    0    0    0 -0.00000000000E+00 -0.00000000000E+00 -0.45593999997E+02  0.45594000000E+02  0.51100000000E-03 0. -1.
    9900012    2    1    2    0    0  0.26483359150E+02 -0.26249505785E+02  0.16209906681E+02  0.50528856620E+02  0.29999990181E+02 0.  0.
         12    1    1    2    0    0 -0.26483359150E+02  0.26249505785E+02 -0.16209906681E+02  0.40659143380E+02  0.00000000000E+00 0. -1.
         11    1    3    3    0    0  0.24720032027E+01 -0.59680841518E+01  0.19885655322E+01  0.67589364114E+01  0.51100000000E-03 0. -1.
        -11    1    3    3    0    0  0.10497652880E+02 -0.80575280959E+01  0.20582330412E+02  0.24469507565E+02  0.51100000000E-03 0.  1.
         12    1    3    3    0    0  0.13513703067E+02 -0.12223893537E+02 -0.63609892631E+01  0.19300412643E+02  0.00000000000E+00 0. -1.
</event>
<event>
 7    1  0.2755991E-011  0.5052886E+02  0.7816164E-02  0.1300439E+00
        -11   -1    0    0    0    0  0.00000000000E+00  0.00000000000E+00  0.45593999997E+02  0.45594000000E+02  0.51100000000E-03 0.  1.
         11   -1    0    0    0    0 -0.00000000000E+00 -0.00000000000E+00 -0.45593999997E+02  0.45594000000E+02  0.51100000000E-03 0. -1.
    9900012    2    1    2    0    0  0.84807961340E+01  0.19401526045E+02  0.34710550832E+02  0.50528862589E+02  0.30000008325E+02 0.  0.
         12    1    1    2    0    0 -0.84807961340E+01 -0.19401526045E+02 -0.34710550832E+02  0.40659137411E+02  0.00000000000E+00 0. -1.
         11    1    3    3    0    0 -0.25933827173E+01 -0.22439849058E+01  0.13240910415E+02  0.13677821868E+02  0.51100000000E-03 0. -1.
        -11    1    3    3    0    0  0.62815639469E+01 -0.22033139273E-01  0.10157415602E+02  0.11942848197E+02  0.51100000000E-03 0.  1.
        -12    1    3    3    0    0  0.47926149043E+01  0.21667544090E+02  0.11312224815E+02  0.24908192523E+02  0.00000000000E+00 0.  1.
</event>
<event>
 7    1  0.2755991E-011  0.5052887E+02  0.7816164E-02  0.1300439E+00
        -11   -1    0    0    0    0  0.00000000000E+00  0.00000000000E+00  0.45593999997E+02  0.45594000000E+02  0.51100000000E-03 0.  1.
         11   -1    0    0    0    0 -0.00000000000E+00 -0.00000000000E+00 -0.45593999997E+02  0.45594000000E+02  0.51100000000E-03 0. -1.
    9900012    2    1    2    0    0 -0.20022429074E+02 -0.80485670388E+00  0.35378234768E+02  0.50528868730E+02  0.30000026990E+02 0.  0.
         12    1    1    2    0    0  0.20022429074E+02  0.80485670388E+00 -0.35378234768E+02  0.40659131270E+02  0.00000000000E+00 0. -1.
         11    1    3    3    0    0 -0.91086044970E+00  0.29014718952E+01  0.93714214150E+01  0.98524994553E+01  0.51100000000E-03 0.  1.
        -11    1    3    3    0    0  0.55595495105E+01  0.16655627598E+01  0.68776338029E+01  0.89991409065E+01  0.51100000000E-03 0. -1.
        -12    1    3    3    0    0 -0.24671118135E+02 -0.53718913589E+01  0.19129179550E+02  0.31677228368E+02  0.00000000000E+00 0.  1.
</event>
<event>
 7    1  0.2755991E-011  0.5052886E+02  0.7816164E-02  0.1300439E+00
        -11   -1    0    0    0    0  0.00000000000E+00  0.00000000000E+00  0.45593999997E+02  0.45594000000E+02  0.51100000000E-03 0.  1.
         11   -1    0    0    0    0 -0.00000000000E+00 -0.00000000000E+00 -0.45593999997E+02  0.45594000000E+02  0.51100000000E-03 0. -1.
    9900012    2    1    2    0    0  0.51139747818E+01  0.87934330679E+01  0.39366086032E+02  0.50528856715E+02  0.29999990470E+02 0.  0.
         12    1    1    2    0    0 -0.51139747818E+01 -0.87934330679E+01 -0.39366086032E+02  0.40659143285E+02  0.00000000000E+00 0. -1.
         11    1    3    3    0    0  0.19082044721E+01 -0.14268356876E+00 -0.42284920918E+00  0.19596950331E+01  0.51100000000E-03 0. -1.
        -11    1    3    3    0    0 -0.64389592661E-01 -0.88367341865E+01  0.76050250146E+01  0.11658834540E+02  0.51100000000E-03 0.  1.
        -12    1    3    3    0    0  0.32701599024E+01  0.17772850823E+02  0.32183910227E+02  0.36910327141E+02  0.00000000000E+00 0.  1.
</event>
<event>
 7    1  0.2755991E-011  0.5052886E+02  0.7816164E-02  0.1300439E+00
        -11   -1    0    0    0    0  0.00000000000E+00  0.00000000000E+00  0.45593999997E+02  0.45594000000E+02  0.51100000000E-03 0.  1.
         11   -1    0    0    0    0 -0.00000000000E+00 -0.00000000000E+00 -0.45593999997E+02  0.45594000000E+02  0.51100000000E-03 0. -1.
    9900012    2    1    2    0    0  0.36967589055E+02 -0.34555005550E+01  0.16571732265E+02  0.50528862836E+02  0.30000009077E+02 0.  0.
         12    1    1    2    0    0 -0.36967589055E+02  0.34555005550E+01 -0.16571732265E+02  0.40659137164E+02  0.00000000000E+00 0. -1.
         11    1    3    3    0    0 -0.92772984280E+00 -0.34350667150E+01 -0.35592593622E+00  0.35758984229E+01  0.51100000000E-03 0. -1.
        -11    1    3    3    0    0  0.73489299667E+01  0.92350250132E+01  0.58058887961E+01  0.13152976987E+02  0.51100000000E-03 0.  1.
        -12    1    3    3    0    0  0.30546388931E+02 -0.92554588532E+01  0.11121769405E+02  0.33799987426E+02  0.00000000000E+00 0.  1.
</event>
<event>
 7    1  0.2755991E-011  0.5052886E+02  0.7816164E-02  0.1300439E+00
        -11   -1    0    0    0    0  0.00000000000E+00  0.00000000000E+00  0.45593999997E+02  0.45594000000E+02  0.51100000000E-03 0.  1.
         11   -1    0    0    0    0 -0.00000000000E+00 -0.00000000000E+00 -0.45593999997E+02  0.45594000000E+02  0.51100000000E-03 0. -1.
    9900012    2    1    2    0    0 -0.36719055622E+02  0.26803330537E+01  0.17253757120E+02  0.50528863686E+02  0.30000011660E+02 0.  0.
         12    1    1    2    0    0  0.36719055622E+02 -0.26803330537E+01 -0.17253757120E+02  0.40659136314E+02  0.00000000000E+00 0. -1.
         11    1    3    3    0    0 -0.39441759463E+01  0.17630050877E+00  0.11594818328E+02  0.12248568001E+02  0.51100000000E-03 0. -1.
        -11    1    3    3    0    0 -0.12036540376E+02 -0.63625515117E+01  0.76872104596E+01  0.15635011061E+02  0.51100000000E-03 0.  1.
         12    1    3    3    0    0 -0.20738339300E+02  0.88665840567E+01 -0.20282716673E+01  0.22645284624E+02  0.00000000000E+00 0. -1.
</event>
<event>
 7    1  0.2755991E-011  0.5052891E+02  0.7816164E-02  0.1300439E+00
        -11   -1    0    0    0    0  0.00000000000E+00  0.00000000000E+00  0.45593999997E+02  0.45594000000E+02  0.51100000000E-03 0.  1.
         11   -1    0    0    0    0 -0.00000000000E+00 -0.00000000000E+00 -0.45593999997E+02  0.45594000000E+02  0.51100000000E-03 0. -1.
    9900012    2    1    2    0    0 -0.22322457066E+02  0.25271320545E+02  0.22720699981E+02  0.50528905824E+02  0.30000139743E+02 0.  0.
         12    1    1    2    0    0  0.22322457066E+02 -0.25271320545E+02 -0.22720699981E+02  0.40659094176E+02  0.00000000000E+00 0. -1.
         11    1    3    3    0    0 -0.71825019264E+01  0.20070077998E+02  0.84664762184E+01  0.22936381245E+02  0.51100000000E-03 0. -1.
        -11    1    3    3    0    0 -0.10345590368E+02  0.11595242597E+02  0.82297772693E+01  0.17584371616E+02  0.51100000000E-03 0.  1.
         12    1    3    3    0    0 -0.47943647715E+01 -0.63940000500E+01  0.60244464934E+01  0.10008152964E+02  0.00000000000E+00 0. -1.
</event>
<event>
 7    1  0.2755991E-011  0.5052886E+02  0.7816164E-02  0.1300439E+00
        -11   -1    0    0    0    0  0.00000000000E+00  0.00000000000E+00  0.45593999997E+02  0.45594000000E+02  0.51100000000E-03 0.  1.
         11   -1    0    0    0    0 -0.00000000000E+00 -0.00000000000E+00 -0.45593999997E+02  0.45594000000E+02  0.51100000000E-03 0. -1.
    9900012    2    1    2    0    0 -0.16256203433E+01  0.76733883254E+01  0.39895390562E+02  0.50528859355E+02  0.29999998496E+02 0.  0.
         12    1    1    2    0    0  0.16256203433E+01 -0.76733883254E+01 -0.39895390562E+02  0.40659140645E+02  0.00000000000E+00 0. -1.
         11    1    3    3    0    0 -0.73399650082E+01 -0.50067093846E+01  0.70501475897E+01  0.11342257557E+02  0.51100000000E-03 0. -1.
        -11    1    3    3    0    0  0.16576624951E+01  0.15940449332E+02  0.26624324840E+02  0.31075721123E+02  0.51100000000E-03 0.  1.
         12    1    3    3    0    0  0.40566821699E+01 -0.32603516223E+01  0.62209181319E+01  0.81108806755E+01  0.00000000000E+00 0. -1.
</event>
<event>
 7    1  0.2755991E-011  0.5052886E+02  0.7816164E-02  0.1300439E+00
        -11   -1    0    0    0    0  0.00000000000E+00  0.00000000000E+00  0.45593999997E+02  0.45594000000E+02  0.51100000000E-03 0.  1.
         11   -1    0    0    0    0 -0.00000000000E+00 -0.00000000000E+00 -0.45593999997E+02  0.45594000000E+02  0.51100000000E-03 0. -1.
    9900012    2    1    2    0    0 -0.24578584170E+02 -0.82782338958E+01  0.31313413503E+02  0.50528858083E+02  0.29999994628E+02 0.  0.
         12    1    1    2    0    0  0.24578584170E+02  0.82782338958E+01 -0.31313413503E+02  0.40659141917E+02  0.00000000000E+00 0. -1.
         11    1    3    3    0    0 -0.76124110315E+01 -0.17028153091E+01  0.16025251576E+02  0.17822936628E+02  0.51100000000E-03 0. -1.
        -11    1    3    3    0    0 -0.21270098703E+02 -0.35198462138E+01  0.16666895969E+02  0.27250538301E+02  0.51100000000E-03 0.  1.
         12    1    3    3    0    0  0.43039255648E+01 -0.30555723728E+01 -0.13787340420E+01  0.54553831534E+01  0.00000000000E+00 0. -1.
</event>
<event>
 7    1  0.2755991E-011  0.5052885E+02  0.7816164E-02  0.1300439E+00
        -11   -1    0    0    0    0  0.00000000000E+00  0.00000000000E+00  0.45593999997E+02  0.45594000000E+02  0.51100000000E-03 0. -1.
         11   -1    0    0    0    0 -0.00000000000E+00 -0.00000000000E+00 -0.45593999997E+02  0.45594000000E+02  0.51100000000E-03 0.  1.
    9900012    2    1    2    0    0  0.40646086108E+02 -0.63550821720E+00  0.81121893849E+00  0.50528852656E+02  0.29999978132E+02 0.  0.
         12    1    1    2    0    0 -0.40646086108E+02  0.63550821720E+00 -0.81121893849E+00  0.40659147344E+02  0.00000000000E+00 0. -1.
         11    1    3    3    0    0  0.17760162920E+02 -0.48529809837E+01 -0.29444098573E+01  0.18645223545E+02  0.51100000000E-03 0. -1.
        -11    1    3    3    0    0  0.24802203060E+02 -0.21004042797E+01  0.16156199479E+01  0.24943359895E+02  0.51100000000E-03 0.  1.
         12    1    3    3    0    0 -0.19162798720E+01  0.63178770462E+01  0.21400088479E+01  0.69402692158E+01  0.00000000000E+00 0. -1.
</event>
<event>
 7    1  0.2755991E-011  0.5052886E+02  0.7816164E-02  0.1300439E+00
        -11   -1    0    0    0    0  0.00000000000E+00  0.00000000000E+00  0.45593999997E+02  0.45594000000E+02  0.51100000000E-03 0.  1.
         11   -1    0    0    0    0 -0.00000000000E+00 -0.00000000000E+00 -0.45593999997E+02  0.45594000000E+02  0.51100000000E-03 0. -1.
    9900012    2    1    2    0    0  0.17914329122E+00 -0.38127501707E+02  0.14121872931E+02  0.50528858669E+02  0.29999996410E+02 0.  0.
         12    1    1    2    0    0 -0.17914329122E+00  0.38127501707E+02 -0.14121872931E+02  0.40659141331E+02  0.00000000000E+00 0. -1.
         11    1    3    3    0    0  0.24775552015E+01 -0.20921811696E+01  0.11784974826E+02  0.12222975650E+02  0.51100000000E-03 0. -1.
        -11    1    3    3    0    0  0.32667082811E+01 -0.68883429508E+01  0.39545602624E+01  0.85883175728E+01  0.51100000000E-03 0.  1.
         12    1    3    3    0    0 -0.55651201913E+01 -0.29146977586E+02 -0.16176621583E+01  0.29717565446E+02  0.00000000000E+00 0. -1.
</event>
<event>
 7    1  0.2755991E-011  0.5052886E+02  0.7816164E-02  0.1300439E+00
        -11   -1    0    0    0    0  0.00000000000E+00  0.00000000000E+00  0.45593999997E+02  0.45594000000E+02  0.51100000000E-03 0.  1.
         11   -1    0    0    0    0 -0.00000000000E+00 -0.00000000000E+00 -0.45593999997E+02  0.45594000000E+02  0.51100000000E-03 0. -1.
    9900012    2    1    2    0    0  0.40356988741E+02 -0.48729834087E+01 -0.85619359006E+00  0.50528861113E+02  0.30000003839E+02 0.  0.
         12    1    1    2    0    0 -0.40356988741E+02  0.48729834087E+01  0.85619359006E+00  0.40659138887E+02  0.00000000000E+00 0. -1.
         11    1    3    3    0    0  0.18054058195E+02 -0.40470972632E+01 -0.11920741795E+02  0.22009818235E+02  0.51100000000E-03 0. -1.
        -11    1    3    3    0    0  0.18736873897E+01 -0.41347583544E+01  0.54154917285E+01  0.70664334714E+01  0.51100000000E-03 0.  1.
        -12    1    3    3    0    0  0.20429243157E+02  0.33088722090E+01  0.56490564762E+01  0.21452609406E+02  0.00000000000E+00 0.  1.
</event>
<event>
 7    1  0.2755991E-011  0.5052884E+02  0.7816164E-02  0.1300439E+00
        -11   -1    0    0    0    0  0.00000000000E+00  0.00000000000E+00  0.45593999997E+02  0.45594000000E+02  0.51100000000E-03 0.  1.
         11   -1    0    0    0    0 -0.00000000000E+00 -0.00000000000E+00 -0.45593999997E+02  0.45594000000E+02  0.51100000000E-03 0. -1.
    9900012    2    1    2    0    0  0.38195018840E+02 -0.34979525726E+01  0.13493398637E+02  0.50528844289E+02  0.29999952700E+02 0.  0.
         12    1    1    2    0    0 -0.38195018840E+02  0.34979525726E+01 -0.13493398637E+02  0.40659155711E+02  0.00000000000E+00 0. -1.
         11    1    3    3    0    0  0.22897474367E+02  0.55240609700E+00 -0.69371314555E+01  0.23931637594E+02  0.51100000000E-03 0. -1.
        -11    1    3    3    0    0  0.20874487295E+01 -0.12238507750E+01  0.75627242031E+01  0.79404061956E+01  0.51100000000E-03 0.  1.
        -12    1    3    3    0    0  0.13210095744E+02 -0.28265078946E+01  0.12867805890E+02  0.18656800499E+02  0.00000000000E+00 0.  1.
</event>
<event>
 7    1  0.2755991E-011  0.5052886E+02  0.7816164E-02  0.1300439E+00
        -11   -1    0    0    0    0  0.00000000000E+00  0.00000000000E+00  0.45593999997E+02  0.45594000000E+02  0.51100000000E-03 0. -1.
         11   -1    0    0    0    0 -0.00000000000E+00 -0.00000000000E+00 -0.45593999997E+02  0.45594000000E+02  0.51100000000E-03 0.  1.
    9900012    2    1    2    0    0 -0.18647304646E+02  0.21527488984E+02 -0.29017426416E+02  0.50528858490E+02  0.29999995867E+02 0.  0.
         12    1    1    2    0    0  0.18647304646E+02 -0.21527488984E+02  0.29017426416E+02  0.40659141510E+02  0.00000000000E+00 0. -1.
         11    1    3    3    0    0 -0.47330643164E+01  0.11369733041E+02 -0.28302810785E+01  0.12636582548E+02  0.51100000000E-03 0. -1.
        -11    1    3    3    0    0 -0.19473999406E+02  0.93044575650E+01 -0.18911763453E+02  0.28696069080E+02  0.51100000000E-03 0.  1.
        -12    1    3    3    0    0  0.55597590764E+01  0.85329837867E+00 -0.72753818838E+01  0.91962068630E+01  0.00000000000E+00 0.  1.
</event>
<event>
 7    1  0.2755991E-011  0.5052889E+02  0.7816164E-02  0.1300439E+00
        -11   -1    0    0    0    0  0.00000000000E+00  0.00000000000E+00  0.45593999997E+02  0.45594000000E+02  0.51100000000E-03 0. -1.
         11   -1    0    0    0    0 -0.00000000000E+00 -0.00000000000E+00 -0.45593999997E+02  0.45594000000E+02  0.51100000000E-03 0.  1.
    9900012    2    1    2    0    0 -0.39092863690E+02 -0.75064203050E+01  0.82803877734E+01  0.50528890825E+02  0.30000094151E+02 0.  0.
         12    1    1    2    0    0  0.39092863690E+02  0.75064203050E+01 -0.82803877734E+01  0.40659109175E+02  0.00000000000E+00 0. -1.
         11    1    3    3    0    0  0.44736338441E+00  0.20301099434E+00  0.17407297614E+01  0.18087254697E+01  0.51100000000E-03 0. -1.
        -11    1    3    3    0    0  0.34890002719E+01  0.14767117686E+01 -0.13452265260E+01  0.40203774963E+01  0.51100000000E-03 0.  1.
         12    1    3    3    0    0 -0.43029227346E+02 -0.91861430680E+01  0.78848845380E+01  0.44699787859E+02  0.00000000000E+00 0. -1.
</event>
<event>
 7    1  0.2755991E-011  0.5052887E+02  0.7816164E-02  0.1300439E+00
        -11   -1    0    0    0    0  0.00000000000E+00  0.00000000000E+00  0.45593999997E+02  0.45594000000E+02  0.51100000000E-03 0.  1.
         11   -1    0    0    0    0 -0.00000000000E+00 -0.00000000000E+00 -0.45593999997E+02  0.45594000000E+02  0.51100000000E-03 0. -1.
    9900012    2    1    2    0    0  0.19612199412E+02 -0.28705835354E+02  0.21083207909E+02  0.50528868124E+02  0.30000025151E+02 0.  0.
         12    1    1    2    0    0 -0.19612199412E+02  0.28705835354E+02 -0.21083207909E+02  0.40659131876E+02  0.00000000000E+00 0. -1.
         11    1    3    3    0    0  0.10479990168E+02 -0.30308200496E+01  0.14086689396E+02  0.17817151357E+02  0.51100000000E-03 0. -1.
        -11    1    3    3    0    0  0.41383556837E+01 -0.94549146105E+01  0.11197103035E+02  0.15228148761E+02  0.51100000000E-03 0.  1.
         12    1    3    3    0    0  0.49938535603E+01 -0.16220100694E+02 -0.42005845214E+01  0.17483568006E+02  0.00000000000E+00 0. -1.
</event>
<event>
 7    1  0.2755991E-011  0.5052887E+02  0.7816164E-02  0.1300439E+00
        -11   -1    0    0    0    0  0.00000000000E+00  0.00000000000E+00  0.45593999997E+02  0.45594000000E+02  0.51100000000E-03 0.  1.
         11   -1    0    0    0    0 -0.00000000000E+00 -0.00000000000E+00 -0.45593999997E+02  0.45594000000E+02  0.51100000000E-03 0. -1.
    9900012    2    1    2    0    0  0.16370794614E+02 -0.35152808844E+02  0.12224636550E+02  0.50528872800E+02  0.30000039362E+02 0.  0.
         12    1    1    2    0    0 -0.16370794614E+02  0.35152808844E+02 -0.12224636550E+02  0.40659127200E+02  0.00000000000E+00 0. -1.
         11    1    3    3    0    0  0.80545140365E+01 -0.78029458484E+01  0.70530865517E+00  0.11236486143E+02  0.51100000000E-03 0. -1.
        -11    1    3    3    0    0  0.14848177979E+02 -0.24643095786E+02  0.41305639841E+01  0.29065651864E+02  0.51100000000E-03 0.  1.
        -12    1    3    3    0    0 -0.65318974015E+01 -0.27067672097E+01  0.73887639105E+01  0.10226734793E+02  0.00000000000E+00 0.  1.
</event>
<event>
 7    1  0.2755991E-011  0.5052886E+02  0.7816164E-02  0.1300439E+00
        -11   -1    0    0    0    0  0.00000000000E+00  0.00000000000E+00  0.45593999997E+02  0.45594000000E+02  0.51100000000E-03 0.  1.
         11   -1    0    0    0    0 -0.00000000000E+00 -0.00000000000E+00 -0.45593999997E+02  0.45594000000E+02  0.51100000000E-03 0. -1.
    9900012    2    1    2    0    0  0.28264992263E+02 -0.85447428141E+01  0.27950732781E+02  0.50528857358E+02  0.29999992426E+02 0.  0.
         12    1    1    2    0    0 -0.28264992263E+02  0.85447428141E+01 -0.27950732781E+02  0.40659142642E+02  0.00000000000E+00 0. -1.
         11    1    3    3    0    0  0.77045394151E+01 -0.10837713513E+02 -0.23428306540E+01  0.13502030126E+02  0.51100000000E-03 0. -1.
        -11    1    3    3    0    0  0.17105422747E+01  0.15585241626E+00  0.65783818765E+00  0.18392923072E+01  0.51100000000E-03 0.  1.
        -12    1    3    3    0    0  0.18849910573E+02  0.21371182829E+01  0.29635725247E+02  0.35187534925E+02  0.00000000000E+00 0.  1.
</event>
<event>
 7    1  0.2755991E-011  0.5052886E+02  0.7816164E-02  0.1300439E+00
        -11   -1    0    0    0    0  0.00000000000E+00  0.00000000000E+00  0.45593999997E+02  0.45594000000E+02  0.51100000000E-03 0. -1.
         11   -1    0    0    0    0 -0.00000000000E+00 -0.00000000000E+00 -0.45593999997E+02  0.45594000000E+02  0.51100000000E-03 0.  1.
    9900012    2    1    2    0    0  0.10427229472E+02 -0.34143898393E+02 -0.19458490696E+02  0.50528858690E+02  0.29999996475E+02 0.  0.
         12    1    1    2    0    0 -0.10427229472E+02  0.34143898393E+02  0.19458490696E+02  0.40659141310E+02  0.00000000000E+00 0. -1.
         11    1    3    3    0    0  0.57495951958E+01 -0.14322112468E+02 -0.14498136121E+02  0.21174907360E+02  0.51100000000E-03 0. -1.
        -11    1    3    3    0    0 -0.34768236284E+00 -0.55767899613E+01 -0.11583170638E+02  0.12860455341E+02  0.51100000000E-03 0.  1.
         12    1    3    3    0    0  0.50253166386E+01 -0.14244995964E+02  0.66228160635E+01  0.16493495989E+02  0.00000000000E+00 0. -1.
</event>
<event>
 7    1  0.2755991E-011  0.5052886E+02  0.7816164E-02  0.1300439E+00
        -11   -1    0    0    0    0  0.00000000000E+00  0.00000000000E+00  0.45593999997E+02  0.45594000000E+02  0.51100000000E-03 0.  1.
         11   -1    0    0    0    0 -0.00000000000E+00 -0.00000000000E+00 -0.45593999997E+02  0.45594000000E+02  0.51100000000E-03 0. -1.
    9900012    2    1    2    0    0 -0.40048218967E+02  0.27395692560E+01 -0.64653639529E+01  0.50528855725E+02  0.29999987462E+02 0.  0.
         12    1    1    2    0    0  0.40048218967E+02 -0.27395692560E+01  0.64653639529E+01  0.40659144275E+02  0.00000000000E+00 0. -1.
         11    1    3    3    0    0 -0.43933853639E+01 -0.56012381698E+01 -0.84001484830E+00  0.71680770920E+01  0.51100000000E-03 0. -1.
        -11    1    3    3    0    0 -0.13028293476E+02 -0.14609620793E+01  0.78299611596E+01  0.15270204096E+02  0.51100000000E-03 0.  1.
        -12    1    3    3    0    0 -0.22626540127E+02  0.98017695050E+01 -0.13455310264E+02  0.28090574537E+02  0.00000000000E+00 0.  1.
</event>
<event>
 7    1  0.2755991E-011  0.5052885E+02  0.7816164E-02  0.1300439E+00
        -11   -1    0    0    0    0  0.00000000000E+00  0.00000000000E+00  0.45593999997E+02  0.45594000000E+02  0.51100000000E-03 0.  1.
         11   -1    0    0    0    0 -0.00000000000E+00 -0.00000000000E+00 -0.45593999997E+02  0.45594000000E+02  0.51100000000E-03 0. -1.
    9900012    2    1    2    0    0  0.71165700017E+01  0.43561041145E+01  0.39793780000E+02  0.50528854186E+02  0.29999982783E+02 0.  0.
         12    1    1    2    0    0 -0.71165700017E+01 -0.43561041145E+01 -0.39793780000E+02  0.40659145814E+02  0.00000000000E+00 0. -1.
         11    1    3    3    0    0 -0.50872757371E+01 -0.35023140222E+01  0.13422134482E+01  0.63204521307E+01  0.51100000000E-03 0. -1.
        -11    1    3    3    0    0 -0.62831433355E+00 -0.31145242264E+01  0.13624745238E+01  0.34570763873E+01  0.51100000000E-03 0.  1.
         12    1    3    3    0    0  0.12832160072E+02  0.10972942363E+02  0.37089092028E+02  0.40751325668E+02  0.00000000000E+00 0. -1.
</event>
<event>
 7    1  0.2755991E-011  0.5052886E+02  0.7816164E-02  0.1300439E+00
        -11   -1    0    0    0    0  0.00000000000E+00  0.00000000000E+00  0.45593999997E+02  0.45594000000E+02  0.51100000000E-03 0.  1.
         11   -1    0    0    0    0 -0.00000000000E+00 -0.00000000000E+00 -0.45593999997E+02  0.45594000000E+02  0.51100000000E-03 0. -1.
    9900012    2    1    2    0    0  0.89834068148E+00  0.21556517496E+02  0.34462668812E+02  0.50528855836E+02  0.29999987798E+02 0.  0.
         12    1    1    2    0    0 -0.89834068148E+00 -0.21556517496E+02 -0.34462668812E+02  0.40659144164E+02  0.00000000000E+00 0. -1.
         11    1    3    3    0    0  0.44376625104E+01  0.12299430248E+02  0.12777363943E+02  0.18281954561E+02  0.51100000000E-03 0. -1.
        -11    1    3    3    0    0 -0.70474978632E+01  0.10639969911E+02  0.29010266654E+01  0.13087862385E+02  0.51100000000E-03 0.  1.
        -12    1    3    3    0    0  0.35081760343E+01 -0.13828826627E+01  0.18784278203E+02  0.19159038889E+02  0.00000000000E+00 0.  1.
</event>
<event>
 7    1  0.2755991E-011  0.5052885E+02  0.7816164E-02  0.1300439E+00
        -11   -1    0    0    0    0  0.00000000000E+00  0.00000000000E+00  0.45593999997E+02  0.45594000000E+02  0.51100000000E-03 0.  1.
         11   -1    0    0    0    0 -0.00000000000E+00 -0.00000000000E+00 -0.45593999997E+02  0.45594000000E+02  0.51100000000E-03 0. -1.
    9900012    2    1    2    0    0  0.99639098457E+01 -0.28991746012E+02  0.26708904701E+02  0.50528850641E+02  0.29999972009E+02 0.  0.
         12    1    1    2    0    0 -0.99639098457E+01  0.28991746012E+02 -0.26708904701E+02  0.40659149359E+02  0.00000000000E+00 0. -1.
         11    1    3    3    0    0  0.20816572522E+01 -0.27969234305E+01 -0.84429657207E+00  0.35873269372E+01  0.51100000000E-03 0. -1.
        -11    1    3    3    0    0  0.12248571298E+02 -0.28804666295E+02  0.17971081181E+02  0.36092880991E+02  0.51100000000E-03 0.  1.
         12    1    3    3    0    0 -0.43663187040E+01  0.26098437132E+01  0.95821200925E+01  0.10848642712E+02  0.00000000000E+00 0. -1.
</event>
<event>
 7    1  0.2755991E-011  0.5052889E+02  0.7816164E-02  0.1300439E+00
        -11   -1    0    0    0    0  0.00000000000E+00  0.00000000000E+00  0.45593999997E+02  0.45594000000E+02  0.51100000000E-03 0. -1.
         11   -1    0    0    0    0 -0.00000000000E+00 -0.00000000000E+00 -0.45593999997E+02  0.45594000000E+02  0.51100000000E-03 0.  1.
    9900012    2    1    2    0    0 -0.83833755257E+01  0.18895970327E+02 -0.35011781471E+02  0.50528886365E+02  0.30000080596E+02 0.  0.
         12    1    1    2    0    0  0.83833755257E+01 -0.18895970327E+02  0.35011781471E+02  0.40659113635E+02  0.00000000000E+00 0. -1.
         11    1    3    3    0    0 -0.12407044342E+02  0.19752786975E+01 -0.15734850990E+02  0.20135094020E+02  0.51100000000E-03 0. -1.
        -11    1    3    3    0    0 -0.20439343022E+01 -0.11706267105E+01  0.99220646962E+00  0.25558772010E+01  0.51100000000E-03 0.  1.
        -12    1    3    3    0    0  0.60676031188E+01  0.18091318340E+02 -0.20269136951E+02  0.27837915145E+02  0.00000000000E+00 0.  1.
</event>
<event>
 7    1  0.2755991E-011  0.5052886E+02  0.7816164E-02  0.1300439E+00
        -11   -1    0    0    0    0  0.00000000000E+00  0.00000000000E+00  0.45593999997E+02  0.45594000000E+02  0.51100000000E-03 0.  1.
         11   -1    0    0    0    0 -0.00000000000E+00 -0.00000000000E+00 -0.45593999997E+02  0.45594000000E+02  0.51100000000E-03 0. -1.
    9900012    2    1    2    0    0 -0.24203426728E+02  0.21398573537E+02  0.24687263682E+02  0.50528858311E+02  0.29999995322E+02 0.  0.
         12    1    1    2    0    0  0.24203426728E+02 -0.21398573537E+02 -0.24687263682E+02  0.40659141689E+02  0.00000000000E+00 0. -1.
         11    1    3    3    0    0 -0.22896313431E+02  0.21688973985E+02  0.19244073149E+02  0.36945731998E+02  0.51100000000E-03 0. -1.
        -11    1    3    3    0    0 -0.54516847686E+01 -0.40165276329E+01  0.21262697131E+01  0.70974914017E+01  0.51100000000E-03 0.  1.
        -12    1    3    3    0    0  0.41445714714E+01  0.37261271853E+01  0.33169208193E+01  0.64856349114E+01  0.00000000000E+00 0.  1.
</event>
<event>
 7    1  0.2755991E-011  0.5052885E+02  0.7816164E-02  0.1300439E+00
        -11   -1    0    0    0    0  0.00000000000E+00  0.00000000000E+00  0.45593999997E+02  0.45594000000E+02  0.51100000000E-03 0.  1.
         11   -1    0    0    0    0 -0.00000000000E+00 -0.00000000000E+00 -0.45593999997E+02  0.45594000000E+02  0.51100000000E-03 0. -1.
    9900012    2    1    2    0    0  0.71266417994E+01  0.26195511327E+02  0.30268339095E+02  0.50528853568E+02  0.29999980905E+02 0.  0.
         12    1    1    2    0    0 -0.71266417994E+01 -0.26195511327E+02 -0.30268339095E+02  0.40659146432E+02  0.00000000000E+00 0. -1.
         11    1    3    3    0    0 -0.14834173318E+01  0.23225218258E+02  0.11453199567E+02  0.25938139307E+02  0.51100000000E-03 0. -1.
        -11    1    3    3    0    0 -0.17745419920E+01 -0.32681105042E+01  0.44640310976E+01  0.58100877318E+01  0.51100000000E-03 0.  1.
        -12    1    3    3    0    0  0.10384601123E+02  0.62384035724E+01  0.14351108431E+02  0.18780626529E+02  0.00000000000E+00 0.  1.
</event>
<event>
 7    1  0.2755991E-011  0.5052887E+02  0.7816164E-02  0.1300439E+00
        -11   -1    0    0    0    0  0.00000000000E+00  0.00000000000E+00  0.45593999997E+02  0.45594000000E+02  0.51100000000E-03 0.  1.
         11   -1    0    0    0    0 -0.00000000000E+00 -0.00000000000E+00 -0.45593999997E+02  0.45594000000E+02  0.51100000000E-03 0. -1.
    9900012    2    1    2    0    0  0.38856245675E+01 -0.40144907726E+02  0.51432871643E+01  0.50528866986E+02  0.30000021690E+02 0.  0.
         12    1    1    2    0    0 -0.38856245675E+01  0.40144907726E+02 -0.51432871643E+01  0.40659133014E+02  0.00000000000E+00 0. -1.
         11    1    3    3    0    0 -0.62046930329E+01  0.19964570837E+00 -0.19305173425E+01  0.65011515528E+01  0.51100000000E-03 0. -1.
        -11    1    3    3    0    0 -0.21056534565E+01 -0.38097766804E+01 -0.14331770468E+01  0.45828126235E+01  0.51100000000E-03 0.  1.
         12    1    3    3    0    0  0.12195971057E+02 -0.36534776754E+02  0.85069815537E+01  0.39444902809E+02  0.00000000000E+00 0. -1.
</event>
<event>
 7    1  0.2755991E-011  0.5052886E+02  0.7816164E-02  0.1300439E+00
        -11   -1    0    0    0    0  0.00000000000E+00  0.00000000000E+00  0.45593999997E+02  0.45594000000E+02  0.51100000000E-03 0.  1.
         11   -1    0    0    0    0 -0.00000000000E+00 -0.00000000000E+00 -0.45593999997E+02  0.45594000000E+02  0.51100000000E-03 0. -1.
    9900012    2    1    2    0    0  0.21585297175E+02 -0.25801496824E+01  0.34359621622E+02  0.50528858045E+02  0.29999994514E+02 0.  0.
         12    1    1    2    0    0 -0.21585297175E+02  0.25801496824E+01 -0.34359621622E+02  0.40659141955E+02  0.00000000000E+00 0. -1.
         11    1    3    3    0    0  0.32335969005E+01  0.35434106986E+00 -0.19065678474E+01  0.37705049697E+01  0.51100000000E-03 0. -1.
        -11    1    3    3    0    0  0.21733966337E+00  0.65236845950E+01  0.19550361200E+01  0.68137995065E+01  0.51100000000E-03 0.  1.
        -12    1    3    3    0    0  0.18134360611E+02 -0.94581753472E+01  0.34311153349E+02  0.39944553569E+02  0.00000000000E+00 0.  1.
</event>
<event>
 7    1  0.2755991E-011  0.5052884E+02  0.7816164E-02  0.1300439E+00
        -11   -1    0    0    0    0  0.00000000000E+00  0.00000000000E+00  0.45593999997E+02  0.45594000000E+02  0.51100000000E-03 0. -1.
         11   -1    0    0    0    0 -0.00000000000E+00 -0.00000000000E+00 -0.45593999997E+02  0.45594000000E+02  0.51100000000E-03 0.  1.
    9900012    2    1    2    0    0  0.35807205843E+01  0.37903953893E+02 -0.14270114544E+02  0.50528838060E+02  0.29999933766E+02 0.  0.
         12    1    1    2    0    0 -0.35807205843E+01 -0.37903953893E+02  0.14270114544E+02  0.40659161940E+02  0.00000000000E+00 0. -1.
         11    1    3    3    0    0  0.61699136824E+01  0.62878519096E+01 -0.27655270727E+01  0.92332581863E+01  0.51100000000E-03 0. -1.
        -11    1    3    3    0    0  0.64299653462E+01  0.27496417800E+02 -0.13308713897E+02  0.31217291875E+02  0.51100000000E-03 0.  1.
         12    1    3    3    0    0 -0.90191584442E+01  0.41196841833E+01  0.18041264260E+01  0.10078287998E+02  0.00000000000E+00 0. -1.
</event>
<event>
 7    1  0.2755991E-011  0.5052881E+02  0.7816164E-02  0.1300439E+00
        -11   -1    0    0    0    0  0.00000000000E+00  0.00000000000E+00  0.45593999997E+02  0.45594000000E+02  0.51100000000E-03 0.  1.
         11   -1    0    0    0    0 -0.00000000000E+00 -0.00000000000E+00 -0.45593999997E+02  0.45594000000E+02  0.51100000000E-03 0. -1.
    9900012    2    1    2    0    0  0.36087047349E+02  0.17659075827E+02  0.62491466933E+01  0.50528809405E+02  0.29999846667E+02 0.  0.
         12    1    1    2    0    0 -0.36087047349E+02 -0.17659075827E+02 -0.62491466933E+01  0.40659190595E+02  0.00000000000E+00 0. -1.
         11    1    3    3    0    0 -0.48152124119E+01 -0.23976679383E+00 -0.10302568967E+01  0.49300292313E+01  0.51100000000E-03 0. -1.
        -11    1    3    3    0    0  0.13338563513E+02  0.32594159495E+01  0.34236492369E+01  0.14151411353E+02  0.51100000000E-03 0.  1.
        -12    1    3    3    0    0  0.27563696248E+02  0.14639426672E+02  0.38557543532E+01  0.31447368821E+02  0.00000000000E+00 0.  1.
</event>
<event>
 7    1  0.2755991E-011  0.5052886E+02  0.7816164E-02  0.1300439E+00
        -11   -1    0    0    0    0  0.00000000000E+00  0.00000000000E+00  0.45593999997E+02  0.45594000000E+02  0.51100000000E-03 0.  1.
         11   -1    0    0    0    0 -0.00000000000E+00 -0.00000000000E+00 -0.45593999997E+02  0.45594000000E+02  0.51100000000E-03 0. -1.
    9900012    2    1    2    0    0  0.37288542106E+02  0.16179727854E+02 -0.97304873663E+00  0.50528858474E+02  0.29999995817E+02 0.  0.
         12    1    1    2    0    0 -0.37288542106E+02 -0.16179727854E+02  0.97304873663E+00  0.40659141526E+02  0.00000000000E+00 0. -1.
         11    1    3    3    0    0  0.85746853877E+01  0.69426865834E+01  0.10138458187E+01  0.11079440875E+02  0.51100000000E-03 0. -1.
        -11    1    3    3    0    0  0.19713704758E+02  0.11530493650E+02  0.94501706080E+01  0.24716151882E+02  0.51100000000E-03 0.  1.
         12    1    3    3    0    0  0.90001519604E+01 -0.22934523796E+01 -0.11437065163E+02  0.14733265717E+02  0.00000000000E+00 0. -1.
</event>
<event>
 7    1  0.2755991E-011  0.5052887E+02  0.7816164E-02  0.1300439E+00
        -11   -1    0    0    0    0  0.00000000000E+00  0.00000000000E+00  0.45593999997E+02  0.45594000000E+02  0.51100000000E-03 0.  1.
         11   -1    0    0    0    0 -0.00000000000E+00 -0.00000000000E+00 -0.45593999997E+02  0.45594000000E+02  0.51100000000E-03 0. -1.
    9900012    2    1    2    0    0 -0.15810055157E+02  0.13025658037E+02  0.35121781018E+02  0.50528866791E+02  0.30000021099E+02 0.  0.
         12    1    1    2    0    0  0.15810055157E+02 -0.13025658037E+02 -0.35121781018E+02  0.40659133209E+02  0.00000000000E+00 0. -1.
         11    1    3    3    0    0 -0.11120576372E+02  0.11695399478E+02  0.27987900950E+02  0.32307463342E+02  0.51100000000E-03 0.  1.
        -11    1    3    3    0    0 -0.55418145680E+01  0.73375029643E+01  0.78781628790E+01  0.12108513908E+02  0.51100000000E-03 0. -1.
         12    1    3    3    0    0  0.85233578207E+00 -0.60072444058E+01 -0.74428281042E+00  0.61128895408E+01  0.00000000000E+00 0. -1.
</event>
<event>
 7    1  0.2755991E-011  0.5052887E+02  0.7816164E-02  0.1300439E+00
        -11   -1    0    0    0    0  0.00000000000E+00  0.00000000000E+00  0.45593999997E+02  0.45594000000E+02  0.51100000000E-03 0.  1.
         11   -1    0    0    0    0 -0.00000000000E+00 -0.00000000000E+00 -0.45593999997E+02  0.45594000000E+02  0.51100000000E-03 0. -1.
    9900012    2    1    2    0    0  0.28412896366E+02  0.11570232229E+02  0.26683364904E+02  0.50528869213E+02  0.30000028460E+02 0.  0.
         12    1    1    2    0    0 -0.28412896366E+02 -0.11570232229E+02 -0.26683364904E+02  0.40659130787E+02  0.00000000000E+00 0. -1.
         11    1    3    3    0    0  0.42520951786E+01 -0.45638943987E+01  0.88576984899E+01  0.10833663660E+02  0.51100000000E-03 0. -1.
        -11    1    3    3    0    0  0.16195545005E+01 -0.29349803795E+01 -0.22087664043E+01  0.40144384287E+01  0.51100000000E-03 0.  1.
        -12    1    3    3    0    0  0.22541246687E+02  0.19069107007E+02  0.20034432819E+02  0.35680767125E+02  0.00000000000E+00 0.  1.
</event>
<event>
 7    1  0.2755991E-011  0.5052885E+02  0.7816164E-02  0.1300439E+00
        -11   -1    0    0    0    0  0.00000000000E+00  0.00000000000E+00  0.45593999997E+02  0.45594000000E+02  0.51100000000E-03 0.  1.
         11   -1    0    0    0    0 -0.00000000000E+00 -0.00000000000E+00 -0.45593999997E+02  0.45594000000E+02  0.51100000000E-03 0. -1.
    9900012    2    1    2    0    0 -0.43002278489E+00  0.58923602151E+01  0.40227623227E+02  0.50528849751E+02  0.29999969302E+02 0.  0.
         12    1    1    2    0    0  0.43002278489E+00 -0.58923602151E+01 -0.40227623227E+02  0.40659150249E+02  0.00000000000E+00 0. -1.
         11    1    3    3    0    0 -0.84850420425E+01  0.44804630439E+01  0.97223418331E+01  0.13659956754E+02  0.51100000000E-03 0. -1.
        -11    1    3    3    0    0 -0.32732651394E+01 -0.42991482596E+01  0.21693687610E+01  0.58226369897E+01  0.51100000000E-03 0.  1.
         12    1    3    3    0    0  0.11328284397E+02  0.57110454308E+01  0.28335912633E+02  0.31046256007E+02  0.00000000000E+00 0. -1.
</event>
<event>
 7    1  0.2755991E-011  0.5052884E+02  0.7816164E-02  0.1300439E+00
        -11   -1    0    0    0    0  0.00000000000E+00  0.00000000000E+00  0.45593999997E+02  0.45594000000E+02  0.51100000000E-03 0.  1.
         11   -1    0    0    0    0 -0.00000000000E+00 -0.00000000000E+00 -0.45593999997E+02  0.45594000000E+02  0.51100000000E-03 0. -1.
    9900012    2    1    2    0    0 -0.10553732207E+02  0.35634713633E+02  0.16490993129E+02  0.50528844407E+02  0.29999953059E+02 0.  0.
         12    1    1    2    0    0  0.10553732207E+02 -0.35634713633E+02 -0.16490993129E+02  0.40659155593E+02  0.00000000000E+00 0. -1.
         11    1    3    3    0    0 -0.52471180902E+01 -0.13310125813E+01  0.28774171590E+01  0.61305279146E+01  0.51100000000E-03 0. -1.
        -11    1    3    3    0    0  0.18901553798E+01  0.21285772912E+01  0.78646934560E+01  0.83640260678E+01  0.51100000000E-03 0.  1.
         12    1    3    3    0    0 -0.71967694965E+01  0.34837148923E+02  0.57488825138E+01  0.36034290425E+02  0.00000000000E+00 0. -1.
</event>
<event>
 7    1  0.2755991E-011  0.5052887E+02  0.7816164E-02  0.1300439E+00
        -11   -1    0    0    0    0  0.00000000000E+00  0.00000000000E+00  0.45593999997E+02  0.45594000000E+02  0.51100000000E-03 0.  1.
         11   -1    0    0    0    0 -0.00000000000E+00 -0.00000000000E+00 -0.45593999997E+02  0.45594000000E+02  0.51100000000E-03 0. -1.
    9900012    2    1    2    0    0  0.51953223855E-01 -0.39389672228E+02  0.10080483399E+02  0.50528866672E+02  0.30000020737E+02 0.  0.
         12    1    1    2    0    0 -0.51953223855E-01  0.39389672228E+02 -0.10080483399E+02  0.40659133328E+02  0.00000000000E+00 0. -1.
         11    1    3    3    0    0  0.63053799845E+01 -0.10991356200E+02 -0.18324385573E+01  0.12803341720E+02  0.51100000000E-03 0. -1.
        -11    1    3    3    0    0  0.35855184281E+00 -0.29365062217E+01 -0.54532594429E+01  0.62040041124E+01  0.51100000000E-03 0.  1.
        -12    1    3    3    0    0 -0.66119786035E+01 -0.25461809807E+02  0.17366181399E+02  0.31521520840E+02  0.00000000000E+00 0.  1.
</event>
<event>
 7    1  0.2755991E-011  0.5052885E+02  0.7816164E-02  0.1300439E+00
        -11   -1    0    0    0    0  0.00000000000E+00  0.00000000000E+00  0.45593999997E+02  0.45594000000E+02  0.51100000000E-03 0.  1.
         11   -1    0    0    0    0 -0.00000000000E+00 -0.00000000000E+00 -0.45593999997E+02  0.45594000000E+02  0.51100000000E-03 0. -1.
    9900012    2    1    2    0    0  0.26080494255E+01  0.29001225598E+01  0.40471639605E+02  0.50528852874E+02  0.29999978797E+02 0.  0.
         12    1    1    2    0    0 -0.26080494255E+01 -0.29001225598E+01 -0.40471639605E+02  0.40659147126E+02  0.00000000000E+00 0. -1.
         11    1    3    3    0    0  0.19231578897E+01  0.53723901583E+01  0.97058284178E+00  0.57881900103E+01  0.51100000000E-03 0. -1.
        -11    1    3    3    0    0 -0.56857945954E+01 -0.70772291771E+00  0.11752868646E+01  0.58489684034E+01  0.51100000000E-03 0.  1.
         12    1    3    3    0    0  0.63706861312E+01 -0.17645446807E+01  0.38325769899E+02  0.38891694461E+02  0.00000000000E+00 0. -1.
</event>
<event>
 7    1  0.2755991E-011  0.5052894E+02  0.7816164E-02  0.1300439E+00
        -11   -1    0    0    0    0  0.00000000000E+00  0.00000000000E+00  0.45593999997E+02  0.45594000000E+02  0.51100000000E-03 0. -1.
         11   -1    0    0    0    0 -0.00000000000E+00 -0.00000000000E+00 -0.45593999997E+02  0.45594000000E+02  0.51100000000E-03 0.  1.
    9900012    2    1    2    0    0 -0.38545008771E+02 -0.28990782391E+01 -0.12610989861E+02  0.50528936790E+02  0.30000233866E+02 0.  0.
         12    1    1    2    0    0  0.38545008771E+02  0.28990782391E+01  0.12610989861E+02  0.40659063210E+02  0.00000000000E+00 0. -1.
         11    1    3    3    0    0  0.27338514422E+01  0.11007191251E+01 -0.33960180716E+01  0.44964947797E+01  0.51100000000E-03 0. -1.
        -11    1    3    3    0    0 -0.16983785857E+02 -0.32363554822E+01  0.48404471757E+01  0.17954189148E+02  0.51100000000E-03 0.  1.
         12    1    3    3    0    0 -0.24295074357E+02 -0.76344188198E+00 -0.14055418966E+02  0.28078252862E+02  0.00000000000E+00 0. -1.
</event>
<event>
 7    1  0.2755991E-011  0.5052886E+02  0.7816164E-02  0.1300439E+00
        -11   -1    0    0    0    0  0.00000000000E+00  0.00000000000E+00  0.45593999997E+02  0.45594000000E+02  0.51100000000E-03 0. -1.
         11   -1    0    0    0    0 -0.00000000000E+00 -0.00000000000E+00 -0.45593999997E+02  0.45594000000E+02  0.51100000000E-03 0.  1.
    9900012    2    1    2    0    0  0.29053203217E+02 -0.10769476516E+02 -0.26326707370E+02  0.50528858807E+02  0.29999996831E+02 0.  0.
         12    1    1    2    0    0 -0.29053203217E+02  0.10769476516E+02  0.26326707370E+02  0.40659141193E+02  0.00000000000E+00 0. -1.
         11    1    3    3    0    0  0.10130680803E+02 -0.11980641221E+02 -0.15719406794E+02  0.22209597200E+02  0.51100000000E-03 0. -1.
        -11    1    3    3    0    0  0.15731977684E+02  0.50277063466E+01 -0.14519525507E+02  0.21990670162E+02  0.51100000000E-03 0.  1.
         12    1    3    3    0    0  0.31905447292E+01 -0.38165416415E+01  0.39122249306E+01  0.63285914450E+01  0.00000000000E+00 0. -1.
</event>
<event>
 7    1  0.2755991E-011  0.5052883E+02  0.7816164E-02  0.1300439E+00
        -11   -1    0    0    0    0  0.00000000000E+00  0.00000000000E+00  0.45593999997E+02  0.45594000000E+02  0.51100000000E-03 0.  1.
         11   -1    0    0    0    0 -0.00000000000E+00 -0.00000000000E+00 -0.45593999997E+02  0.45594000000E+02  0.51100000000E-03 0. -1.
    9900012    2    1    2    0    0 -0.19746636648E+01  0.87058838371E+01  0.39667066522E+02  0.50528832812E+02  0.29999917815E+02 0.  0.
         12    1    1    2    0    0  0.19746636648E+01 -0.87058838371E+01 -0.39667066522E+02  0.40659167188E+02  0.00000000000E+00 0. -1.
         11    1    3    3    0    0 -0.48188462775E+01  0.68664487967E+00  0.16439071512E+02  0.17144556952E+02  0.51100000000E-03 0. -1.
        -11    1    3    3    0    0 -0.31355515068E+01 -0.69742866829E+01  0.94922503828E+01  0.12189141708E+02  0.51100000000E-03 0.  1.
         12    1    3    3    0    0  0.59797341194E+01  0.14993525640E+02  0.13735744627E+02  0.21195134152E+02  0.00000000000E+00 0. -1.
</event>
<event>
 7    1  0.2755991E-011  0.5052884E+02  0.7816164E-02  0.1300439E+00
        -11   -1    0    0    0    0  0.00000000000E+00  0.00000000000E+00  0.45593999997E+02  0.45594000000E+02  0.51100000000E-03 0. -1.
         11   -1    0    0    0    0 -0.00000000000E+00 -0.00000000000E+00 -0.45593999997E+02  0.45594000000E+02  0.51100000000E-03 0.  1.
    9900012    2    1    2    0    0  0.87221051996E+01  0.37936985032E+02 -0.11742107400E+02  0.50528843115E+02  0.29999949133E+02 0.  0.
         12    1    1    2    0    0 -0.87221051996E+01 -0.37936985032E+02  0.11742107400E+02  0.40659156885E+02  0.00000000000E+00 0. -1.
         11    1    3    3    0    0  0.54950537794E+01  0.18050142215E+02  0.71391144530E+01  0.20173502558E+02  0.51100000000E-03 0. -1.
        -11    1    3    3    0    0  0.40922901131E+00  0.10233185358E+02 -0.16064819230E+01  0.10366597098E+02  0.51100000000E-03 0.  1.
         12    1    3    3    0    0  0.28178224089E+01  0.96536574578E+01 -0.17274739929E+02  0.19988743459E+02  0.00000000000E+00 0. -1.
</event>
<event>
 7    1  0.2755991E-011  0.5052887E+02  0.7816164E-02  0.1300439E+00
        -11   -1    0    0    0    0  0.00000000000E+00  0.00000000000E+00  0.45593999997E+02  0.45594000000E+02  0.51100000000E-03 0.  1.
         11   -1    0    0    0    0 -0.00000000000E+00 -0.00000000000E+00 -0.45593999997E+02  0.45594000000E+02  0.51100000000E-03 0. -1.
    9900012    2    1    2    0    0  0.11097667966E+02  0.67229160478E+00  0.39109520551E+02  0.50528870545E+02  0.30000032510E+02 0.  0.
         12    1    1    2    0    0 -0.11097667966E+02 -0.67229160478E+00 -0.39109520551E+02  0.40659129455E+02  0.00000000000E+00 0. -1.
         11    1    3    3    0    0  0.12674261577E+02 -0.21315343833E+01  0.15299602999E+02  0.19981446333E+02  0.51100000000E-03 0. -1.
        -11    1    3    3    0    0  0.54690568295E+01 -0.40626817795E+01  0.17701077234E+02  0.18966921240E+02  0.51100000000E-03 0.  1.
         12    1    3    3    0    0 -0.70456504410E+01  0.68665077676E+01  0.61088403183E+01  0.11580502972E+02  0.00000000000E+00 0. -1.
</event>
<event>
 7    1  0.2755991E-011  0.5052885E+02  0.7816164E-02  0.1300439E+00
        -11   -1    0    0    0    0  0.00000000000E+00  0.00000000000E+00  0.45593999997E+02  0.45594000000E+02  0.51100000000E-03 0.  1.
         11   -1    0    0    0    0 -0.00000000000E+00 -0.00000000000E+00 -0.45593999997E+02  0.45594000000E+02  0.51100000000E-03 0. -1.
    9900012    2    1    2    0    0 -0.85621429364E+00 -0.17748297966E+02  0.36570904195E+02  0.50528853215E+02  0.29999979832E+02 0.  0.
         12    1    1    2    0    0  0.85621429364E+00  0.17748297966E+02 -0.36570904195E+02  0.40659146785E+02  0.00000000000E+00 0. -1.
         11    1    3    3    0    0  0.68562948723E+01 -0.32080280089E+01  0.84004296724E+01  0.11307848691E+02  0.51100000000E-03 0. -1.
        -11    1    3    3    0    0  0.33161512328E+01 -0.15792677409E+02  0.15482234213E+02  0.22363029652E+02  0.51100000000E-03 0.  1.
        -12    1    3    3    0    0 -0.11028660399E+02  0.12524074511E+01  0.12688240310E+02  0.16857974872E+02  0.00000000000E+00 0.  1.
</event>
<event>
 7    1  0.2755991E-011  0.5052886E+02  0.7816164E-02  0.1300439E+00
        -11   -1    0    0    0    0  0.00000000000E+00  0.00000000000E+00  0.45593999997E+02  0.45594000000E+02  0.51100000000E-03 0. -1.
         11   -1    0    0    0    0 -0.00000000000E+00 -0.00000000000E+00 -0.45593999997E+02  0.45594000000E+02  0.51100000000E-03 0.  1.
    9900012    2    1    2    0    0 -0.39694650947E+02 -0.75208419173E+01  0.45757248550E+01  0.50528860377E+02  0.30000001602E+02 0.  0.
         12    1    1    2    0    0  0.39694650947E+02  0.75208419173E+01 -0.45757248550E+01  0.40659139623E+02  0.00000000000E+00 0. -1.
         11    1    3    3    0    0  0.10385799754E+01  0.55789496221E-01 -0.69263212249E+00  0.12496000766E+01  0.51100000000E-03 0. -1.
        -11    1    3    3    0    0 -0.14076503948E+02  0.98107198439E+01  0.13106958171E+01  0.17208024612E+02  0.51100000000E-03 0.  1.
         12    1    3    3    0    0 -0.26656726975E+02 -0.17387351257E+02  0.39576611604E+01  0.32071235689E+02  0.00000000000E+00 0. -1.
</event>
<event>
 7    1  0.2755991E-011  0.5052885E+02  0.7816164E-02  0.1300439E+00
        -11   -1    0    0    0    0  0.00000000000E+00  0.00000000000E+00  0.45593999997E+02  0.45594000000E+02  0.51100000000E-03 0.  1.
         11   -1    0    0    0    0 -0.00000000000E+00 -0.00000000000E+00 -0.45593999997E+02  0.45594000000E+02  0.51100000000E-03 0. -1.
    9900012    2    1    2    0    0  0.38790811915E+02 -0.12159636458E+02  0.76336515245E+00  0.50528848827E+02  0.29999966493E+02 0.  0.
         12    1    1    2    0    0 -0.38790811915E+02  0.12159636458E+02 -0.76336515245E+00  0.40659151173E+02  0.00000000000E+00 0. -1.
         11    1    3    3    0    0  0.48468795482E+01 -0.59447005956E+01 -0.73909641269E+01  0.10651669236E+02  0.51100000000E-03 0. -1.
        -11    1    3    3    0    0  0.12609405452E+01  0.36596624697E+01 -0.18630446470E+01  0.42958161121E+01  0.51100000000E-03 0.  1.
        -12    1    3    3    0    0  0.32682991821E+02 -0.98745983322E+01  0.10017373926E+02  0.35581363478E+02  0.00000000000E+00 0.  1.
</event>
<event>
 7    1  0.2755991E-011  0.5052886E+02  0.7816164E-02  0.1300439E+00
        -11   -1    0    0    0    0  0.00000000000E+00  0.00000000000E+00  0.45593999997E+02  0.45594000000E+02  0.51100000000E-03 0.  1.
         11   -1    0    0    0    0 -0.00000000000E+00 -0.00000000000E+00 -0.45593999997E+02  0.45594000000E+02  0.51100000000E-03 0. -1.
    9900012    2    1    2    0    0  0.47097955377E+01  0.48443403856E+01  0.40093837335E+02  0.50528860806E+02  0.30000002906E+02 0.  0.
         12    1    1    2    0    0 -0.47097955377E+01 -0.48443403856E+01 -0.40093837335E+02  0.40659139194E+02  0.00000000000E+00 0. -1.
         11    1    3    3    0    0 -0.50869253712E+01  0.28072214742E+00 -0.21983265615E+01  0.55487164811E+01  0.51100000000E-03 0. -1.
        -11    1    3    3    0    0 -0.78204452722E+00 -0.22597019468E+01  0.38781154294E+01  0.45560537832E+01  0.51100000000E-03 0.  1.
        -12    1    3    3    0    0  0.10578765436E+02  0.68233201849E+01  0.38414048467E+02  0.40424090542E+02  0.00000000000E+00 0.  1.
</event>
<event>
 7    1  0.2755991E-011  0.5052882E+02  0.7816164E-02  0.1300439E+00
        -11   -1    0    0    0    0  0.00000000000E+00  0.00000000000E+00  0.45593999997E+02  0.45594000000E+02  0.51100000000E-03 0. -1.
         11   -1    0    0    0    0 -0.00000000000E+00 -0.00000000000E+00 -0.45593999997E+02  0.45594000000E+02  0.51100000000E-03 0.  1.
    9900012    2    1    2    0    0  0.94827655943E+01  0.45900537542E+00 -0.39535237541E+02  0.50528824692E+02  0.29999893135E+02 0.  0.
         12    1    1    2    0    0 -0.94827655943E+01 -0.45900537542E+00  0.39535237541E+02  0.40659175308E+02  0.00000000000E+00 0. -1.
         11    1    3    3    0    0 -0.45399494736E+01  0.85369655464E+01 -0.10909266029E+02  0.14577482894E+02  0.51100000000E-03 0. -1.
        -11    1    3    3    0    0  0.66856699202E+01  0.11984505887E+00 -0.22255638222E+02  0.23238459029E+02  0.51100000000E-03 0.  1.
        -12    1    3    3    0    0  0.73370451476E+01 -0.81978052298E+01 -0.63703332902E+01  0.12712882770E+02  0.00000000000E+00 0.  1.
</event>
<event>
 7    1  0.2755991E-011  0.5052886E+02  0.7816164E-02  0.1300439E+00
        -11   -1    0    0    0    0  0.00000000000E+00  0.00000000000E+00  0.45593999997E+02  0.45594000000E+02  0.51100000000E-03 0.  1.
         11   -1    0    0    0    0 -0.00000000000E+00 -0.00000000000E+00 -0.45593999997E+02  0.45594000000E+02  0.51100000000E-03 0. -1.
    9900012    2    1    2    0    0  0.32505301060E+02 -0.20071083018E+02 -0.13918437146E+02  0.50528857570E+02  0.29999993071E+02 0.  0.
         12    1    1    2    0    0 -0.32505301060E+02  0.20071083018E+02  0.13918437146E+02  0.40659142430E+02  0.00000000000E+00 0. -1.
         11    1    3    3    0    0  0.70645411510E+01 -0.88789254729E+01  0.61541290608E+01  0.12907996126E+02  0.51100000000E-03 0. -1.
        -11    1    3    3    0    0  0.13756492040E+01 -0.39345450356E+01  0.15675802903E+01  0.44531296407E+01  0.51100000000E-03 0.  1.
        -12    1    3    3    0    0  0.24065110705E+02 -0.72576125097E+01 -0.21640146497E+02  0.33167731804E+02  0.00000000000E+00 0.  1.
</event>
<event>
 7    1  0.2755991E-011  0.5052885E+02  0.7816164E-02  0.1300439E+00
        -11   -1    0    0    0    0  0.00000000000E+00  0.00000000000E+00  0.45593999997E+02  0.45594000000E+02  0.51100000000E-03 0. -1.
         11   -1    0    0    0    0 -0.00000000000E+00 -0.00000000000E+00 -0.45593999997E+02  0.45594000000E+02  0.51100000000E-03 0.  1.
    9900012    2    1    2    0    0 -0.36737464238E+02 -0.12755125101E+01 -0.17375220022E+02  0.50528849965E+02  0.29999969952E+02 0.  0.
         12    1    1    2    0    0  0.36737464238E+02  0.12755125101E+01  0.17375220022E+02  0.40659150035E+02  0.00000000000E+00 0. -1.
         11    1    3    3    0    0 -0.54595786561E+01  0.72443162752E+01 -0.68052917721E+01  0.11340154927E+02  0.51100000000E-03 0.  1.
        -11    1    3    3    0    0 -0.13669557055E+00 -0.63593468043E+01 -0.31727039057E+01  0.71081662749E+01  0.51100000000E-03 0. -1.
        -12    1    3    3    0    0 -0.31141190011E+02 -0.21604819810E+01 -0.73972243442E+01  0.32080528763E+02  0.00000000000E+00 0.  1.
</event>
<event>
 7    1  0.2755991E-011  0.5052886E+02  0.7816164E-02  0.1300439E+00
        -11   -1    0    0    0    0  0.00000000000E+00  0.00000000000E+00  0.45593999997E+02  0.45594000000E+02  0.51100000000E-03 0.  1.
         11   -1    0    0    0    0 -0.00000000000E+00 -0.00000000000E+00 -0.45593999997E+02  0.45594000000E+02  0.51100000000E-03 0. -1.
    9900012    2    1    2    0    0 -0.27870883762E+02 -0.29600569589E+02  0.43113743608E+00  0.50528858824E+02  0.29999996881E+02 0.  0.
         12    1    1    2    0    0  0.27870883762E+02  0.29600569589E+02 -0.43113743608E+00  0.40659141176E+02  0.00000000000E+00 0. -1.
         11    1    3    3    0    0 -0.11213665693E+02  0.18200628811E+01  0.42585991223E+01  0.12132377917E+02  0.51100000000E-03 0. -1.
        -11    1    3    3    0    0 -0.15439573980E+02 -0.15073152562E+02 -0.64691461842E-01  0.21577408512E+02  0.51100000000E-03 0.  1.
         12    1    3    3    0    0 -0.12176440891E+01 -0.16347479908E+02 -0.37627702243E+01  0.16819072395E+02  0.00000000000E+00 0. -1.
</event>
<event>
 7    1  0.2755991E-011  0.5052886E+02  0.7816164E-02  0.1300439E+00
        -11   -1    0    0    0    0  0.00000000000E+00  0.00000000000E+00  0.45593999997E+02  0.45594000000E+02  0.51100000000E-03 0. -1.
         11   -1    0    0    0    0 -0.00000000000E+00 -0.00000000000E+00 -0.45593999997E+02  0.45594000000E+02  0.51100000000E-03 0.  1.
    9900012    2    1    2    0    0 -0.84858241515E+01 -0.31573412033E+02  0.24171805853E+02  0.50528858873E+02  0.29999997031E+02 0.  0.
         12    1    1    2    0    0  0.84858241515E+01  0.31573412033E+02 -0.24171805853E+02  0.40659141127E+02  0.00000000000E+00 0. -1.
         11    1    3    3    0    0 -0.30618045873E+01  0.19756075536E+01 -0.67548996750E+00  0.37059357110E+01  0.51100000000E-03 0. -1.
        -11    1    3    3    0    0 -0.80542816379E+01 -0.23042632870E+02  0.60814038765E+01  0.25155871197E+02  0.51100000000E-03 0.  1.
         12    1    3    3    0    0  0.26302620737E+01 -0.10506386717E+02  0.18765891944E+02  0.21667051966E+02  0.00000000000E+00 0. -1.
</event>
<event>
 7    1  0.2755991E-011  0.5052885E+02  0.7816164E-02  0.1300439E+00
        -11   -1    0    0    0    0  0.00000000000E+00  0.00000000000E+00  0.45593999997E+02  0.45594000000E+02  0.51100000000E-03 0.  1.
         11   -1    0    0    0    0 -0.00000000000E+00 -0.00000000000E+00 -0.45593999997E+02  0.45594000000E+02  0.51100000000E-03 0. -1.
    9900012    2    1    2    0    0  0.23986818031E+02  0.97367643080E+01  0.31352740593E+02  0.50528851446E+02  0.29999974455E+02 0.  0.
         12    1    1    2    0    0 -0.23986818031E+02 -0.97367643080E+01 -0.31352740593E+02  0.40659148554E+02  0.00000000000E+00 0. -1.
         11    1    3    3    0    0  0.68902440035E+01 -0.43012270033E+01  0.14277569977E+02  0.16426351417E+02  0.51100000000E-03 0. -1.
        -11    1    3    3    0    0  0.45177080890E+01  0.10906157860E+02  0.17527029947E+02  0.21131747318E+02  0.51100000000E-03 0.  1.
         12    1    3    3    0    0  0.12578865938E+02  0.31318334510E+01 -0.45185933069E+00  0.12970752712E+02  0.00000000000E+00 0. -1.
</event>
<event>
 7    1  0.2755991E-011  0.5052886E+02  0.7816164E-02  0.1300439E+00
        -11   -1    0    0    0    0  0.00000000000E+00  0.00000000000E+00  0.45593999997E+02  0.45594000000E+02  0.51100000000E-03 0.  1.
         11   -1    0    0    0    0 -0.00000000000E+00 -0.00000000000E+00 -0.45593999997E+02  0.45594000000E+02  0.51100000000E-03 0. -1.
    9900012    2    1    2    0    0  0.17037241420E+02 -0.36594457925E+02  0.48727279275E+01  0.50528862976E+02  0.30000009503E+02 0.  0.
         12    1    1    2    0    0 -0.17037241420E+02  0.36594457925E+02 -0.48727279275E+01  0.40659137024E+02  0.00000000000E+00 0. -1.
         11    1    3    3    0    0  0.29427353837E+01 -0.57912201356E+01 -0.30745630764E+01  0.71868533149E+01  0.51100000000E-03 0. -1.
        -11    1    3    3    0    0  0.19059196224E+02 -0.10983390072E+02  0.21441841823E+01  0.22101704556E+02  0.51100000000E-03 0.  1.
        -12    1    3    3    0    0 -0.49646901878E+01 -0.19819847717E+02  0.58031068215E+01  0.21240305106E+02  0.00000000000E+00 0.  1.
</event>
<event>
 7    1  0.2755991E-011  0.5052886E+02  0.7816164E-02  0.1300439E+00
        -11   -1    0    0    0    0  0.00000000000E+00  0.00000000000E+00  0.45593999997E+02  0.45594000000E+02  0.51100000000E-03 0.  1.
         11   -1    0    0    0    0 -0.00000000000E+00 -0.00000000000E+00 -0.45593999997E+02  0.45594000000E+02  0.51100000000E-03 0. -1.
    9900012    2    1    2    0    0 -0.28336532371E+02  0.19876205263E+02  0.21334073151E+02  0.50528864745E+02  0.30000014880E+02 0.  0.
         12    1    1    2    0    0  0.28336532371E+02 -0.19876205263E+02 -0.21334073151E+02  0.40659135255E+02  0.00000000000E+00 0. -1.
         11    1    3    3    0    0  0.92890018593E+00  0.11674254066E+02  0.70051682353E+00  0.11732083687E+02  0.51100000000E-03 0. -1.
        -11    1    3    3    0    0 -0.16841170109E+01  0.39258696079E+01  0.57571501638E+01  0.71689246442E+01  0.51100000000E-03 0.  1.
        -12    1    3    3    0    0 -0.27581315546E+02  0.42760815887E+01  0.14876406163E+02  0.31627856414E+02  0.00000000000E+00 0.  1.
</event>
<event>
 7    1  0.2755991E-011  0.5052886E+02  0.7816164E-02  0.1300439E+00
        -11   -1    0    0    0    0  0.00000000000E+00  0.00000000000E+00  0.45593999997E+02  0.45594000000E+02  0.51100000000E-03 0.  1.
         11   -1    0    0    0    0 -0.00000000000E+00 -0.00000000000E+00 -0.45593999997E+02  0.45594000000E+02  0.51100000000E-03 0. -1.
    9900012    2    1    2    0    0  0.12667866193E+02 -0.38511793503E+02  0.30875524832E+01  0.50528855235E+02  0.29999985972E+02 0.  0.
         12    1    1    2    0    0 -0.12667866193E+02  0.38511793503E+02 -0.30875524832E+01  0.40659144765E+02  0.00000000000E+00 0. -1.
         11    1    3    3    0    0  0.41262991147E+01 -0.14527395021E+01  0.57549535151E+01  0.72288509921E+01  0.51100000000E-03 0. -1.
        -11    1    3    3    0    0  0.57997028458E+01 -0.15398447357E+02  0.87769776665E+01  0.18648969712E+02  0.51100000000E-03 0.  1.
         12    1    3    3    0    0  0.27418642326E+01 -0.21660606644E+02 -0.11444378698E+02  0.24651034531E+02  0.00000000000E+00 0. -1.
</event>
<event>
 7    1  0.2755991E-011  0.5052882E+02  0.7816164E-02  0.1300439E+00
        -11   -1    0    0    0    0  0.00000000000E+00  0.00000000000E+00  0.45593999997E+02  0.45594000000E+02  0.51100000000E-03 0.  1.
         11   -1    0    0    0    0 -0.00000000000E+00 -0.00000000000E+00 -0.45593999997E+02  0.45594000000E+02  0.51100000000E-03 0. -1.
    9900012    2    1    2    0    0 -0.57635463664E+01  0.12893346142E+02  0.38127578773E+02  0.50528817709E+02  0.29999871909E+02 0.  0.
         12    1    1    2    0    0  0.57635463664E+01 -0.12893346142E+02 -0.38127578773E+02  0.40659182291E+02  0.00000000000E+00 0. -1.
         11    1    3    3    0    0  0.10277980725E+02  0.46690457499E+01  0.10529894260E+02  0.15437472247E+02  0.51100000000E-03 0. -1.
        -11    1    3    3    0    0  0.16551187534E+00  0.24870132117E+01  0.10694563111E+02  0.10981179777E+02  0.51100000000E-03 0.  1.
         12    1    3    3    0    0 -0.16207038966E+02  0.57372871808E+01  0.16903121402E+02  0.24110165686E+02  0.00000000000E+00 0. -1.
</event>
<event>
 7    1  0.2755991E-011  0.5052886E+02  0.7816164E-02  0.1300439E+00
        -11   -1    0    0    0    0  0.00000000000E+00  0.00000000000E+00  0.45593999997E+02  0.45594000000E+02  0.51100000000E-03 0.  1.
         11   -1    0    0    0    0 -0.00000000000E+00 -0.00000000000E+00 -0.45593999997E+02  0.45594000000E+02  0.51100000000E-03 0. -1.
    9900012    2    1    2    0    0  0.21596170762E+02 -0.85689647315E-01  0.34449438935E+02  0.50528858627E+02  0.29999996281E+02 0.  0.
         12    1    1    2    0    0 -0.21596170762E+02  0.85689647315E-01 -0.34449438935E+02  0.40659141373E+02  0.00000000000E+00 0. -1.
         11    1    3    3    0    0  0.11410563102E+02 -0.11611819933E+02  0.69485808967E+01  0.17700793462E+02  0.51100000000E-03 0.  1.
        -11    1    3    3    0    0 -0.10705638749E+01  0.16192249638E+01  0.79804851370E+01  0.82131686806E+01  0.51100000000E-03 0. -1.
        -12    1    3    3    0    0  0.11256171535E+02  0.99069053221E+01  0.19520372901E+02  0.24614896484E+02  0.00000000000E+00 0.  1.
</event>
<event>
 7    1  0.2755991E-011  0.5052885E+02  0.7816164E-02  0.1300439E+00
        -11   -1    0    0    0    0  0.00000000000E+00  0.00000000000E+00  0.45593999997E+02  0.45594000000E+02  0.51100000000E-03 0.  1.
         11   -1    0    0    0    0 -0.00000000000E+00 -0.00000000000E+00 -0.45593999997E+02  0.45594000000E+02  0.51100000000E-03 0. -1.
    9900012    2    1    2    0    0  0.47148807913E+01  0.24442415801E+02  0.32148172839E+02  0.50528845951E+02  0.29999957753E+02 0.  0.
         12    1    1    2    0    0 -0.47148807913E+01 -0.24442415801E+02 -0.32148172839E+02  0.40659154049E+02  0.00000000000E+00 0. -1.
         11    1    3    3    0    0  0.98370405444E+01  0.22435301413E+02  0.25456514579E+02  0.35329085057E+02  0.51100000000E-03 0. -1.
        -11    1    3    3    0    0 -0.43591811555E+01  0.71022698026E+01  0.52525253421E+01  0.98505694975E+01  0.51100000000E-03 0.  1.
         12    1    3    3    0    0 -0.76297859758E+00 -0.50951554147E+01  0.14391329179E+01  0.53491913965E+01  0.00000000000E+00 0. -1.
</event>
<event>
 7    1  0.2755991E-011  0.5052885E+02  0.7816164E-02  0.1300439E+00
        -11   -1    0    0    0    0  0.00000000000E+00  0.00000000000E+00  0.45593999997E+02  0.45594000000E+02  0.51100000000E-03 0.  1.
         11   -1    0    0    0    0 -0.00000000000E+00 -0.00000000000E+00 -0.45593999997E+02  0.45594000000E+02  0.51100000000E-03 0. -1.
    9900012    2    1    2    0    0 -0.27789822008E+02  0.15568383877E+02 -0.25268902273E+02  0.50528853356E+02  0.29999980260E+02 0.  0.
         12    1    1    2    0    0  0.27789822008E+02 -0.15568383877E+02  0.25268902273E+02  0.40659146644E+02  0.00000000000E+00 0. -1.
         11    1    3    3    0    0 -0.16817703941E+02  0.92810587173E+01 -0.15766697258E+02  0.24850793940E+02  0.51100000000E-03 0. -1.
        -11    1    3    3    0    0 -0.16023813683E+02  0.29913454097E+01 -0.10739743867E+02  0.19520575065E+02  0.51100000000E-03 0.  1.
         12    1    3    3    0    0  0.50516956162E+01  0.32959797500E+01  0.12375388521E+01  0.61574843501E+01  0.00000000000E+00 0. -1.
</event>
<event>
 7    1  0.2755991E-011  0.5052886E+02  0.7816164E-02  0.1300439E+00
        -11   -1    0    0    0    0  0.00000000000E+00  0.00000000000E+00  0.45593999997E+02  0.45594000000E+02  0.51100000000E-03 0. -1.
         11   -1    0    0    0    0 -0.00000000000E+00 -0.00000000000E+00 -0.45593999997E+02  0.45594000000E+02  0.51100000000E-03 0.  1.
    9900012    2    1    2    0    0  0.18615416162E+02 -0.36487225804E+01 -0.35962738836E+02  0.50528862283E+02  0.30000007395E+02 0.  0.
         12    1    1    2    0    0 -0.18615416162E+02  0.36487225804E+01  0.35962738836E+02  0.40659137717E+02  0.00000000000E+00 0. -1.
         11    1    3    3    0    0  0.74104939589E+01  0.36368872315E+01 -0.14311581104E+02  0.16521613825E+02  0.51100000000E-03 0. -1.
        -11    1    3    3    0    0  0.16527176256E+02 -0.34273861851E+01 -0.21626552105E+02  0.27433597782E+02  0.51100000000E-03 0.  1.
         12    1    3    3    0    0 -0.53222540532E+01 -0.38582236268E+01 -0.24605626852E-01  0.65736506751E+01  0.00000000000E+00 0. -1.
</event>
<event>
 7    1  0.2755991E-011  0.5052886E+02  0.7816164E-02  0.1300439E+00
        -11   -1    0    0    0    0  0.00000000000E+00  0.00000000000E+00  0.45593999997E+02  0.45594000000E+02  0.51100000000E-03 0. -1.
         11   -1    0    0    0    0 -0.00000000000E+00 -0.00000000000E+00 -0.45593999997E+02  0.45594000000E+02  0.51100000000E-03 0.  1.
    9900012    2    1    2    0    0  0.31159060154E+02  0.22282497584E+02 -0.13629696660E+02  0.50528863765E+02  0.30000011901E+02 0.  0.
         12    1    1    2    0    0 -0.31159060154E+02 -0.22282497584E+02  0.13629696660E+02  0.40659136235E+02  0.00000000000E+00 0. -1.
         11    1    3    3    0    0  0.23099723194E+01  0.26789703877E+01  0.83396978981E+00  0.36343307948E+01  0.51100000000E-03 0. -1.
        -11    1    3    3    0    0  0.28894076716E+02  0.59679230631E+01 -0.41430009776E+01  0.29793425992E+02  0.51100000000E-03 0.  1.
        -12    1    3    3    0    0 -0.44988881422E-01  0.13635604134E+02 -0.10320665473E+02  0.17101106978E+02  0.00000000000E+00 0.  1.
</event>
<event>
 7    1  0.2755991E-011  0.5052884E+02  0.7816164E-02  0.1300439E+00
        -11   -1    0    0    0    0  0.00000000000E+00  0.00000000000E+00  0.45593999997E+02  0.45594000000E+02  0.51100000000E-03 0. -1.
         11   -1    0    0    0    0 -0.00000000000E+00 -0.00000000000E+00 -0.45593999997E+02  0.45594000000E+02  0.51100000000E-03 0.  1.
    9900012    2    1    2    0    0  0.26791888298E+02 -0.30543629589E+02  0.15647560472E+01  0.50528842993E+02  0.29999948761E+02 0.  0.
         12    1    1    2    0    0 -0.26791888298E+02  0.30543629589E+02 -0.15647560472E+01  0.40659157007E+02  0.00000000000E+00 0. -1.
         11    1    3    3    0    0 -0.57517190263E+00 -0.63728494008E+01 -0.17466932599E+01  0.66328704049E+01  0.51100000000E-03 0. -1.
        -11    1    3    3    0    0  0.11458961847E+02 -0.24631029729E+02  0.58260662661E+01  0.27783780890E+02  0.51100000000E-03 0.  1.
         12    1    3    3    0    0  0.15908098353E+02  0.46024954141E+00 -0.25146169590E+01  0.16112191698E+02  0.00000000000E+00 0. -1.
</event>
<event>
 7    1  0.2755991E-011  0.5052887E+02  0.7816164E-02  0.1300439E+00
        -11   -1    0    0    0    0  0.00000000000E+00  0.00000000000E+00  0.45593999997E+02  0.45594000000E+02  0.51100000000E-03 0.  1.
         11   -1    0    0    0    0 -0.00000000000E+00 -0.00000000000E+00 -0.45593999997E+02  0.45594000000E+02  0.51100000000E-03 0. -1.
    9900012    2    1    2    0    0 -0.16107903397E+02 -0.31330000441E+02  0.20301028169E+02  0.50528865427E+02  0.30000016953E+02 0.  0.
         12    1    1    2    0    0  0.16107903397E+02  0.31330000441E+02 -0.20301028169E+02  0.40659134573E+02  0.00000000000E+00 0. -1.
         11    1    3    3    0    0 -0.39020424088E+01  0.52270278059E+00  0.13261089886E+00  0.39391292271E+01  0.51100000000E-03 0. -1.
        -11    1    3    3    0    0 -0.80065026832E+01  0.16088523794E+01  0.52850077901E+01  0.97274764866E+01  0.51100000000E-03 0.  1.
        -12    1    3    3    0    0 -0.41993583047E+01 -0.33461555601E+02  0.14883409480E+02  0.36862259713E+02  0.00000000000E+00 0.  1.
</event>
<event>
 7    1  0.2755991E-011  0.5052884E+02  0.7816164E-02  0.1300439E+00
        -11   -1    0    0    0    0  0.00000000000E+00  0.00000000000E+00  0.45593999997E+02  0.45594000000E+02  0.51100000000E-03 0.  1.
         11   -1    0    0    0    0 -0.00000000000E+00 -0.00000000000E+00 -0.45593999997E+02  0.45594000000E+02  0.51100000000E-03 0. -1.
    9900012    2    1    2    0    0  0.26478539801E+02  0.22973620234E+02  0.20597737283E+02  0.50528842633E+02  0.29999947666E+02 0.  0.
         12    1    1    2    0    0 -0.26478539801E+02 -0.22973620234E+02 -0.20597737283E+02  0.40659157367E+02  0.00000000000E+00 0. -1.
         11    1    3    3    0    0  0.10299181939E+01  0.67172610989E+01 -0.27938937484E+01  0.73476643020E+01  0.51100000000E-03 0. -1.
        -11    1    3    3    0    0  0.56205270778E+01  0.15886539367E+00 -0.30687791425E+01  0.64056981300E+01  0.51100000000E-03 0.  1.
        -12    1    3    3    0    0  0.19828094529E+02  0.16097493741E+02  0.26460410174E+02  0.36775480201E+02  0.00000000000E+00 0.  1.
</event>
<event>
 7    1  0.2755991E-011  0.5052886E+02  0.7816164E-02  0.1300439E+00
        -11   -1    0    0    0    0  0.00000000000E+00  0.00000000000E+00  0.45593999997E+02  0.45594000000E+02  0.51100000000E-03 0. -1.
         11   -1    0    0    0    0 -0.00000000000E+00 -0.00000000000E+00 -0.45593999997E+02  0.45594000000E+02  0.51100000000E-03 0.  1.
    9900012    2    1    2    0    0  0.18468004543E+02  0.33768739778E+02 -0.13106139036E+02  0.50528857628E+02  0.29999993247E+02 0.  0.
         12    1    1    2    0    0 -0.18468004543E+02 -0.33768739778E+02  0.13106139036E+02  0.40659142372E+02  0.00000000000E+00 0. -1.
         11    1    3    3    0    0  0.13623329037E+02  0.32183991749E+01 -0.13111563505E+02  0.19179840591E+02  0.51100000000E-03 0. -1.
        -11    1    3    3    0    0  0.17079456044E+01  0.89103016138E+01 -0.23060101937E+01  0.93609954765E+01  0.51100000000E-03 0.  1.
         12    1    3    3    0    0  0.31367299014E+01  0.21640038989E+02  0.23114346637E+01  0.21988021560E+02  0.00000000000E+00 0. -1.
</event>
<event>
 7    1  0.2755991E-011  0.5052886E+02  0.7816164E-02  0.1300439E+00
        -11   -1    0    0    0    0  0.00000000000E+00  0.00000000000E+00  0.45593999997E+02  0.45594000000E+02  0.51100000000E-03 0.  1.
         11   -1    0    0    0    0 -0.00000000000E+00 -0.00000000000E+00 -0.45593999997E+02  0.45594000000E+02  0.51100000000E-03 0. -1.
    9900012    2    1    2    0    0 -0.29901135197E+02  0.19054395187E+02 -0.19900191378E+02  0.50528862295E+02  0.30000007431E+02 0.  0.
         12    1    1    2    0    0  0.29901135197E+02 -0.19054395187E+02  0.19900191378E+02  0.40659137705E+02  0.00000000000E+00 0. -1.
         11    1    3    3    0    0  0.28151202436E+01 -0.45190214960E+01 -0.45343649728E+01  0.69933484994E+01  0.51100000000E-03 0. -1.
        -11    1    3    3    0    0 -0.20900554165E+02  0.12974037704E+02 -0.11719306333E+02  0.27248870801E+02  0.51100000000E-03 0.  1.
        -12    1    3    3    0    0 -0.11815701277E+02  0.10599378979E+02 -0.36465200721E+01  0.16286642994E+02  0.00000000000E+00 0.  1.
</event>
<event>
 7    1  0.2755991E-011  0.5052886E+02  0.7816164E-02  0.1300439E+00
        -11   -1    0    0    0    0  0.00000000000E+00  0.00000000000E+00  0.45593999997E+02  0.45594000000E+02  0.51100000000E-03 0.  1.
         11   -1    0    0    0    0 -0.00000000000E+00 -0.00000000000E+00 -0.45593999997E+02  0.45594000000E+02  0.51100000000E-03 0. -1.
    9900012    2    1    2    0    0  0.20325868457E+02 -0.33093765673E+02 -0.12034432408E+02  0.50528858121E+02  0.29999994744E+02 0.  0.
         12    1    1    2    0    0 -0.20325868457E+02  0.33093765673E+02  0.12034432408E+02  0.40659141879E+02  0.00000000000E+00 0. -1.
         11    1    3    3    0    0 -0.44199046998E+01 -0.52777097014E+01 -0.10045746612E+02  0.12178128037E+02  0.51100000000E-03 0. -1.
        -11    1    3    3    0    0  0.35793500223E+01 -0.48021816484E+01 -0.36937335752E+01  0.70367864222E+01  0.51100000000E-03 0.  1.
        -12    1    3    3    0    0  0.21166423134E+02 -0.23013874324E+02  0.17050477786E+01  0.31313943661E+02  0.00000000000E+00 0.  1.
</event>
<event>
 7    1  0.2755991E-011  0.5052885E+02  0.7816164E-02  0.1300439E+00
        -11   -1    0    0    0    0  0.00000000000E+00  0.00000000000E+00  0.45593999997E+02  0.45594000000E+02  0.51100000000E-03 0.  1.
         11   -1    0    0    0    0 -0.00000000000E+00 -0.00000000000E+00 -0.45593999997E+02  0.45594000000E+02  0.51100000000E-03 0. -1.
    9900012    2    1    2    0    0  0.15109416385E+02  0.26240354814E+02  0.27135132818E+02  0.50528854445E+02  0.29999983570E+02 0.  0.
         12    1    1    2    0    0 -0.15109416385E+02 -0.26240354814E+02 -0.27135132818E+02  0.40659145555E+02  0.00000000000E+00 0. -1.
         11    1    3    3    0    0  0.64651651610E+01  0.10002942441E+02  0.35014675945E+00  0.11915528568E+02  0.51100000000E-03 0. -1.
        -11    1    3    3    0    0  0.62191213050E+01  0.16592976525E+02  0.76147131287E+01  0.19286995517E+02  0.51100000000E-03 0.  1.
        -12    1    3    3    0    0  0.24251299189E+01 -0.35556415185E+00  0.19170272930E+02  0.19326330360E+02  0.00000000000E+00 0.  1.
</event>
<event>
 7    1  0.2755991E-011  0.5052886E+02  0.7816164E-02  0.1300439E+00
        -11   -1    0    0    0    0  0.00000000000E+00  0.00000000000E+00  0.45593999997E+02  0.45594000000E+02  0.51100000000E-03 0.  1.
         11   -1    0    0    0    0 -0.00000000000E+00 -0.00000000000E+00 -0.45593999997E+02  0.45594000000E+02  0.51100000000E-03 0. -1.
    9900012    2    1    2    0    0 -0.37285169540E+02  0.16159396840E+02 -0.13623142082E+01  0.50528857438E+02  0.29999992668E+02 0.  0.
         12    1    1    2    0    0  0.37285169540E+02 -0.16159396840E+02  0.13623142082E+01  0.40659142562E+02  0.00000000000E+00 0. -1.
         11    1    3    3    0    0 -0.21666454000E+01  0.11897403337E+01 -0.78272528940E+01  0.82082715889E+01  0.51100000000E-03 0. -1.
        -11    1    3    3    0    0 -0.11837479733E+02  0.19779143436E+01 -0.53735857399E+01  0.13149657621E+02  0.51100000000E-03 0.  1.
         12    1    3    3    0    0 -0.23281044407E+02  0.12991742163E+02  0.11838524426E+02  0.29170928228E+02  0.00000000000E+00 0. -1.
</event>
<event>
 7    1  0.2755991E-011  0.5052886E+02  0.7816164E-02  0.1300439E+00
        -11   -1    0    0    0    0  0.00000000000E+00  0.00000000000E+00  0.45593999997E+02  0.45594000000E+02  0.51100000000E-03 0.  1.
         11   -1    0    0    0    0 -0.00000000000E+00 -0.00000000000E+00 -0.45593999997E+02  0.45594000000E+02  0.51100000000E-03 0. -1.
    9900012    2    1    2    0    0 -0.20180508326E+02 -0.17374847210E+02  0.30725032448E+02  0.50528857721E+02  0.29999993530E+02 0.  0.
         12    1    1    2    0    0  0.20180508326E+02  0.17374847210E+02 -0.30725032448E+02  0.40659142279E+02  0.00000000000E+00 0. -1.
         11    1    3    3    0    0 -0.84522475948E+01  0.12785967827E+01  0.21857289471E+02  0.23469478103E+02  0.51100000000E-03 0. -1.
        -11    1    3    3    0    0 -0.69145366703E+01 -0.32400740764E+01  0.77395936849E+01  0.10872451796E+02  0.51100000000E-03 0.  1.
         12    1    3    3    0    0 -0.48137240613E+01 -0.15413369916E+02  0.11281492923E+01  0.16186927823E+02  0.00000000000E+00 0. -1.
</event>
<event>
 7    1  0.2755991E-011  0.5052886E+02  0.7816164E-02  0.1300439E+00
        -11   -1    0    0    0    0  0.00000000000E+00  0.00000000000E+00  0.45593999997E+02  0.45594000000E+02  0.51100000000E-03 0.  1.
         11   -1    0    0    0    0 -0.00000000000E+00 -0.00000000000E+00 -0.45593999997E+02  0.45594000000E+02  0.51100000000E-03 0. -1.
    9900012    2    1    2    0    0 -0.22651422909E+02  0.79564809758E+01  0.32814216351E+02  0.50528863953E+02  0.30000012472E+02 0.  0.
         12    1    1    2    0    0  0.22651422909E+02 -0.79564809758E+01 -0.32814216351E+02  0.40659136047E+02  0.00000000000E+00 0. -1.
         11    1    3    3    0    0 -0.15849685364E+02  0.26011927658E+01  0.27261266517E+02  0.31641039527E+02  0.51100000000E-03 0. -1.
        -11    1    3    3    0    0 -0.96125838465E+01  0.20561957951E+01  0.90171384095E+01  0.13339358857E+02  0.51100000000E-03 0.  1.
         12    1    3    3    0    0  0.28108463017E+01  0.32990924150E+01 -0.34641885751E+01  0.55484655697E+01  0.00000000000E+00 0. -1.
</event>
<event>
 7    1  0.3705581E-011  0.5052888E+02  0.7816164E-02  0.1300439E+00
        -11   -1    0    0    0    0  0.00000000000E+00  0.00000000000E+00  0.45593999997E+02  0.45594000000E+02  0.51100000000E-03 0. -1.
         11   -1    0    0    0    0 -0.00000000000E+00 -0.00000000000E+00 -0.45593999997E+02  0.45594000000E+02  0.51100000000E-03 0.  1.
    9900012    2    1    2    0    0 -0.23946135885E+02 -0.11795634683E+02 -0.30669354946E+02  0.50528883504E+02  0.30000071900E+02 0.  0.
         12    1    1    2    0    0  0.23946135885E+02  0.11795634683E+02  0.30669354946E+02  0.40659116496E+02  0.00000000000E+00 0. -1.
         11    1    3    3    0    0 -0.11065926057E+01 -0.97855749688E+01 -0.30652054892E+01  0.10313947334E+02  0.51100000000E-03 0. -1.
        -11    1    3    3    0    0 -0.17020083917E+02 -0.86750087111E+01 -0.23965986683E+02  0.30648124749E+02  0.51100000000E-03 0.  1.
         12    1    3    3    0    0 -0.58194593616E+01  0.66649489965E+01 -0.36381627738E+01  0.95668114206E+01  0.00000000000E+00 0. -1.
</event>
<event>
 7    1  0.2755991E-011  0.5052886E+02  0.7816164E-02  0.1300439E+00
        -11   -1    0    0    0    0  0.00000000000E+00  0.00000000000E+00  0.45593999997E+02  0.45594000000E+02  0.51100000000E-03 0. -1.
         11   -1    0    0    0    0 -0.00000000000E+00 -0.00000000000E+00 -0.45593999997E+02  0.45594000000E+02  0.51100000000E-03 0.  1.
    9900012    2    1    2    0    0  0.36931258947E+02  0.16916367291E+01 -0.16922952334E+02  0.50528857880E+02  0.29999994013E+02 0.  0.
         12    1    1    2    0    0 -0.36931258947E+02 -0.16916367291E+01  0.16922952334E+02  0.40659142120E+02  0.00000000000E+00 0. -1.
         11    1    3    3    0    0  0.14187582815E+02  0.52085021242E+00 -0.32640850335E+01  0.14567533849E+02  0.51100000000E-03 0. -1.
        -11    1    3    3    0    0  0.27825382789E+02  0.18126576084E+01 -0.13101898363E+02  0.30809047307E+02  0.51100000000E-03 0.  1.
        -12    1    3    3    0    0 -0.50817066573E+01 -0.64187109170E+00 -0.55696893729E+00  0.51522767245E+01  0.00000000000E+00 0.  1.
</event>
<event>
 7    1  0.2755991E-011  0.5052886E+02  0.7816164E-02  0.1300439E+00
        -11   -1    0    0    0    0  0.00000000000E+00  0.00000000000E+00  0.45593999997E+02  0.45594000000E+02  0.51100000000E-03 0. -1.
         11   -1    0    0    0    0 -0.00000000000E+00 -0.00000000000E+00 -0.45593999997E+02  0.45594000000E+02  0.51100000000E-03 0.  1.
    9900012    2    1    2    0    0 -0.38294972832E+02 -0.41357374381E+00 -0.13656116332E+02  0.50528862027E+02  0.30000006617E+02 0.  0.
         12    1    1    2    0    0  0.38294972832E+02  0.41357374381E+00  0.13656116332E+02  0.40659137973E+02  0.00000000000E+00 0. -1.
         11    1    3    3    0    0 -0.18368948323E+01  0.21363406540E+00 -0.10228185134E+02  0.10394017199E+02  0.51100000000E-03 0. -1.
        -11    1    3    3    0    0 -0.27449042849E+01 -0.30415652011E+01  0.37810173582E+01  0.55750973920E+01  0.51100000000E-03 0.  1.
        -12    1    3    3    0    0 -0.33713173715E+02  0.24143573919E+01 -0.72089485556E+01  0.34559747436E+02  0.00000000000E+00 0.  1.
</event>
<event>
 7    1  0.2755991E-011  0.5052886E+02  0.7816164E-02  0.1300439E+00
        -11   -1    0    0    0    0  0.00000000000E+00  0.00000000000E+00  0.45593999997E+02  0.45594000000E+02  0.51100000000E-03 0. -1.
         11   -1    0    0    0    0 -0.00000000000E+00 -0.00000000000E+00 -0.45593999997E+02  0.45594000000E+02  0.51100000000E-03 0.  1.
    9900012    2    1    2    0    0  0.17841030368E+02 -0.92405673123E+01 -0.35347917048E+02  0.50528859718E+02  0.29999999598E+02 0.  0.
         12    1    1    2    0    0 -0.17841030368E+02  0.92405673123E+01  0.35347917048E+02  0.40659140282E+02  0.00000000000E+00 0. -1.
         11    1    3    3    0    0 -0.22825565668E+00 -0.37365584622E+01 -0.79452978741E+01  0.87830363972E+01  0.51100000000E-03 0. -1.
        -11    1    3    3    0    0 -0.98077701260E+00  0.74928693453E+01 -0.28906125867E+01  0.80907759802E+01  0.51100000000E-03 0.  1.
        -12    1    3    3    0    0  0.19050063037E+02 -0.12996878195E+02 -0.24512006587E+02  0.33655047340E+02  0.00000000000E+00 0.  1.
</event>
<event>
 7    1  0.2755991E-011  0.5052887E+02  0.7816164E-02  0.1300439E+00
        -11   -1    0    0    0    0  0.00000000000E+00  0.00000000000E+00  0.45593999997E+02  0.45594000000E+02  0.51100000000E-03 0.  1.
         11   -1    0    0    0    0 -0.00000000000E+00 -0.00000000000E+00 -0.45593999997E+02  0.45594000000E+02  0.51100000000E-03 0. -1.
    9900012    2    1    2    0    0 -0.36995939683E+02  0.10158356953E+02  0.13463771176E+02  0.50528869373E+02  0.30000028948E+02 0.  0.
         12    1    1    2    0    0  0.36995939683E+02 -0.10158356953E+02 -0.13463771176E+02  0.40659130627E+02  0.00000000000E+00 0. -1.
         11    1    3    3    0    0 -0.57377025095E+01  0.28342235158E+01 -0.27753513334E+01  0.69754303316E+01  0.51100000000E-03 0. -1.
        -11    1    3    3    0    0 -0.25951615594E+02  0.14767044062E+02  0.72357426068E+01  0.30723084376E+02  0.51100000000E-03 0.  1.
         12    1    3    3    0    0 -0.53066215797E+01 -0.74429106252E+01  0.90033799031E+01  0.12830354666E+02  0.00000000000E+00 0. -1.
</event>
<event>
 7    1  0.2755991E-011  0.5052886E+02  0.7816164E-02  0.1300439E+00
        -11   -1    0    0    0    0  0.00000000000E+00  0.00000000000E+00  0.45593999997E+02  0.45594000000E+02  0.51100000000E-03 0.  1.
         11   -1    0    0    0    0 -0.00000000000E+00 -0.00000000000E+00 -0.45593999997E+02  0.45594000000E+02  0.51100000000E-03 0. -1.
    9900012    2    1    2    0    0  0.35611908057E+01  0.33937829419E+02  0.22106717022E+02  0.50528864703E+02  0.30000014751E+02 0.  0.
         12    1    1    2    0    0 -0.35611908057E+01 -0.33937829419E+02 -0.22106717022E+02  0.40659135297E+02  0.00000000000E+00 0. -1.
         11    1    3    3    0    0  0.21441502301E+01  0.83346798399E+01  0.34622744899E+01  0.92764008725E+01  0.51100000000E-03 0.  1.
        -11    1    3    3    0    0 -0.79010753254E+01 -0.10816830018E+01  0.12721564386E+01  0.80756059636E+01  0.51100000000E-03 0. -1.
         12    1    3    3    0    0  0.93181159011E+01  0.26684832581E+02  0.17372286093E+02  0.33176857867E+02  0.00000000000E+00 0. -1.
</event>
<event>
 7    1  0.2755991E-011  0.5052886E+02  0.7816164E-02  0.1300439E+00
        -11   -1    0    0    0    0  0.00000000000E+00  0.00000000000E+00  0.45593999997E+02  0.45594000000E+02  0.51100000000E-03 0.  1.
         11   -1    0    0    0    0 -0.00000000000E+00 -0.00000000000E+00 -0.45593999997E+02  0.45594000000E+02  0.51100000000E-03 0. -1.
    9900012    2    1    2    0    0 -0.17565885272E+02  0.36182647090E+02 -0.59515778762E+01  0.50528861359E+02  0.30000004586E+02 0.  0.
         12    1    1    2    0    0  0.17565885272E+02 -0.36182647090E+02  0.59515778762E+01  0.40659138641E+02  0.00000000000E+00 0. -1.
         11    1    3    3    0    0 -0.94048085975E+01  0.13063845417E+02  0.82922829299E+01  0.18107358678E+02  0.51100000000E-03 0.  1.
        -11    1    3    3    0    0 -0.81972051165E+01  0.59990825758E+01 -0.10760078018E-01  0.10157917085E+02  0.51100000000E-03 0. -1.
         12    1    3    3    0    0  0.36128442085E-01  0.17119719098E+02 -0.14233100728E+02  0.22263585596E+02  0.00000000000E+00 0. -1.
</event>
<event>
 7    1  0.2755991E-011  0.5052886E+02  0.7816164E-02  0.1300439E+00
        -11   -1    0    0    0    0  0.00000000000E+00  0.00000000000E+00  0.45593999997E+02  0.45594000000E+02  0.51100000000E-03 0. -1.
         11   -1    0    0    0    0 -0.00000000000E+00 -0.00000000000E+00 -0.45593999997E+02  0.45594000000E+02  0.51100000000E-03 0.  1.
    9900012    2    1    2    0    0  0.11780810669E+02 -0.38566748430E+02 -0.51946042492E+01  0.50528862062E+02  0.30000006725E+02 0.  0.
         12    1    1    2    0    0 -0.11780810669E+02  0.38566748430E+02  0.51946042492E+01  0.40659137938E+02  0.00000000000E+00 0. -1.
         11    1    3    3    0    0  0.50236984752E+01 -0.70760469616E+01  0.71112990763E+01  0.11219561568E+02  0.51100000000E-03 0. -1.
        -11    1    3    3    0    0  0.53191397753E+01 -0.27221151338E+02 -0.17021322795E+01  0.27788155438E+02  0.51100000000E-03 0.  1.
         12    1    3    3    0    0  0.14379724190E+01 -0.42695501311E+01 -0.10603771046E+02  0.11521145056E+02  0.00000000000E+00 0. -1.
</event>
<event>
 7    1  0.2755991E-011  0.5052887E+02  0.7816164E-02  0.1300439E+00
        -11   -1    0    0    0    0  0.00000000000E+00  0.00000000000E+00  0.45593999997E+02  0.45594000000E+02  0.51100000000E-03 0.  1.
         11   -1    0    0    0    0 -0.00000000000E+00 -0.00000000000E+00 -0.45593999997E+02  0.45594000000E+02  0.51100000000E-03 0. -1.
    9900012    2    1    2    0    0  0.11833412209E+02  0.28805605089E+02  0.26141397510E+02  0.50528865814E+02  0.30000018127E+02 0.  0.
         12    1    1    2    0    0 -0.11833412209E+02 -0.28805605089E+02 -0.26141397510E+02  0.40659134186E+02  0.00000000000E+00 0. -1.
         11    1    3    3    0    0  0.59205081173E+01  0.19956420889E+02 -0.12304761436E+01  0.20852463233E+02  0.51100000000E-03 0. -1.
        -11    1    3    3    0    0 -0.10670632469E+00  0.20810463965E+00 -0.10063163624E+00  0.25459923037E+00  0.51100000000E-03 0.  1.
        -12    1    3    3    0    0  0.60196104169E+01  0.86410795599E+01  0.27472505289E+02  0.29421803351E+02  0.00000000000E+00 0.  1.
</event>
<event>
 7    1  0.2755991E-011  0.5052887E+02  0.7816164E-02  0.1300439E+00
        -11   -1    0    0    0    0  0.00000000000E+00  0.00000000000E+00  0.45593999997E+02  0.45594000000E+02  0.51100000000E-03 0. -1.
         11   -1    0    0    0    0 -0.00000000000E+00 -0.00000000000E+00 -0.45593999997E+02  0.45594000000E+02  0.51100000000E-03 0.  1.
    9900012    2    1    2    0    0 -0.24140355346E+02 -0.16665989256E+02 -0.28154088324E+02  0.50528872569E+02  0.30000038662E+02 0.  0.
         12    1    1    2    0    0  0.24140355346E+02  0.16665989256E+02  0.28154088324E+02  0.40659127431E+02  0.00000000000E+00 0. -1.
         11    1    3    3    0    0 -0.11372096217E+02 -0.17476172244E+02 -0.44220937538E+01  0.21314222531E+02  0.51100000000E-03 0. -1.
        -11    1    3    3    0    0  0.13424085909E+00  0.32225773273E+01 -0.19081889752E+01  0.37475606286E+01  0.51100000000E-03 0.  1.
        -12    1    3    3    0    0 -0.12902499988E+02 -0.24123943389E+01 -0.21823805595E+02  0.25467089410E+02  0.00000000000E+00 0.  1.
</event>
<event>
 7    1  0.2755991E-011  0.5052886E+02  0.7816164E-02  0.1300439E+00
        -11   -1    0    0    0    0  0.00000000000E+00  0.00000000000E+00  0.45593999997E+02  0.45594000000E+02  0.51100000000E-03 0.  1.
         11   -1    0    0    0    0 -0.00000000000E+00 -0.00000000000E+00 -0.45593999997E+02  0.45594000000E+02  0.51100000000E-03 0. -1.
    9900012    2    1    2    0    0  0.11959139422E+02 -0.15985418450E+02  0.35420491088E+02  0.50528858252E+02  0.29999995144E+02 0.  0.
         12    1    1    2    0    0 -0.11959139422E+02  0.15985418450E+02 -0.35420491088E+02  0.40659141748E+02  0.00000000000E+00 0. -1.
         11    1    3    3    0    0  0.44005501226E+01 -0.14204498809E+02  0.29478438796E+02  0.33016828769E+02  0.51100000000E-03 0. -1.
        -11    1    3    3    0    0 -0.13159945884E+01 -0.36318998836E+00  0.81451962165E+01  0.82588116816E+01  0.51100000000E-03 0.  1.
         12    1    3    3    0    0  0.88745838876E+01 -0.14177296524E+01 -0.22031439248E+01  0.92532178024E+01  0.00000000000E+00 0. -1.
</event>
<event>
 7    1  0.2755991E-011  0.5052885E+02  0.7816164E-02  0.1300439E+00
        -11   -1    0    0    0    0  0.00000000000E+00  0.00000000000E+00  0.45593999997E+02  0.45594000000E+02  0.51100000000E-03 0.  1.
         11   -1    0    0    0    0 -0.00000000000E+00 -0.00000000000E+00 -0.45593999997E+02  0.45594000000E+02  0.51100000000E-03 0. -1.
    9900012    2    1    2    0    0  0.15949466383E+02 -0.27316276816E+02  0.25546070543E+02  0.50528853709E+02  0.29999981332E+02 0.  0.
         12    1    1    2    0    0 -0.15949466383E+02  0.27316276816E+02 -0.25546070543E+02  0.40659146291E+02  0.00000000000E+00 0. -1.
         11    1    3    3    0    0  0.11699399743E+01  0.21956822038E+01  0.67367688640E+01  0.71814925240E+01  0.51100000000E-03 0. -1.
        -11    1    3    3    0    0  0.12204561495E+02 -0.59602848180E+01  0.13328633813E+02  0.19029681973E+02  0.51100000000E-03 0.  1.
        -12    1    3    3    0    0  0.25749649134E+01 -0.23551674201E+02  0.54806678660E+01  0.24317679212E+02  0.00000000000E+00 0.  1.
</event>
<event>
 7    1  0.2755991E-011  0.5052886E+02  0.7816164E-02  0.1300439E+00
        -11   -1    0    0    0    0  0.00000000000E+00  0.00000000000E+00  0.45593999997E+02  0.45594000000E+02  0.51100000000E-03 0. -1.
         11   -1    0    0    0    0 -0.00000000000E+00 -0.00000000000E+00 -0.45593999997E+02  0.45594000000E+02  0.51100000000E-03 0.  1.
    9900012    2    1    2    0    0 -0.22624839862E+02 -0.25457266244E+02  0.22208329756E+02  0.50528859651E+02  0.29999999394E+02 0.  0.
         12    1    1    2    0    0  0.22624839862E+02  0.25457266244E+02 -0.22208329756E+02  0.40659140349E+02  0.00000000000E+00 0. -1.
         11    1    3    3    0    0 -0.20454099249E+01  0.36262222824E+01  0.11703549001E+02  0.12422006653E+02  0.51100000000E-03 0. -1.
        -11    1    3    3    0    0 -0.65595508598E+01 -0.11570934946E+02  0.80317335316E+01  0.15537792211E+02  0.51100000000E-03 0.  1.
        -12    1    3    3    0    0 -0.14019879077E+02 -0.17512553580E+02  0.24730472240E+01  0.22569060787E+02  0.00000000000E+00 0.  1.
</event>
<event>
 7    1  0.2755991E-011  0.5052887E+02  0.7816164E-02  0.1300439E+00
        -11   -1    0    0    0    0  0.00000000000E+00  0.00000000000E+00  0.45593999997E+02  0.45594000000E+02  0.51100000000E-03 0.  1.
         11   -1    0    0    0    0 -0.00000000000E+00 -0.00000000000E+00 -0.45593999997E+02  0.45594000000E+02  0.51100000000E-03 0. -1.
    9900012    2    1    2    0    0  0.16164829774E+02  0.14872485998E+02  0.34215094437E+02  0.50528865126E+02  0.30000016037E+02 0.  0.
         12    1    1    2    0    0 -0.16164829774E+02 -0.14872485998E+02 -0.34215094437E+02  0.40659134874E+02  0.00000000000E+00 0. -1.
         11    1    3    3    0    0  0.32237710354E+01  0.66586609093E+01 -0.96909601032E+00  0.74612071498E+01  0.51100000000E-03 0. -1.
        -11    1    3    3    0    0 -0.45555978788E+01 -0.15236774807E+01  0.72978470636E+01  0.87369123334E+01  0.51100000000E-03 0.  1.
         12    1    3    3    0    0  0.17496656617E+02  0.97375025690E+01  0.27886343384E+02  0.34330745643E+02  0.00000000000E+00 0. -1.
</event>
<event>
 7    1  0.2755991E-011  0.5052884E+02  0.7816164E-02  0.1300439E+00
        -11   -1    0    0    0    0  0.00000000000E+00  0.00000000000E+00  0.45593999997E+02  0.45594000000E+02  0.51100000000E-03 0. -1.
         11   -1    0    0    0    0 -0.00000000000E+00 -0.00000000000E+00 -0.45593999997E+02  0.45594000000E+02  0.51100000000E-03 0.  1.
    9900012    2    1    2    0    0  0.14027617705E+01 -0.26832918080E+02 -0.30515469606E+02  0.50528842132E+02  0.29999946144E+02 0.  0.
         12    1    1    2    0    0 -0.14027617705E+01  0.26832918080E+02  0.30515469606E+02  0.40659157868E+02  0.00000000000E+00 0. -1.
         11    1    3    3    0    0 -0.33241104168E+01  0.16921559121E+01 -0.12521478106E+02  0.13065240752E+02  0.51100000000E-03 0. -1.
        -11    1    3    3    0    0  0.11655649839E+01  0.18962103368E+01 -0.13777345348E+01  0.26176913650E+01  0.51100000000E-03 0.  1.
         12    1    3    3    0    0  0.35613072034E+01 -0.30421284329E+02 -0.16616256966E+02  0.34845910015E+02  0.00000000000E+00 0. -1.
</event>
<event>
 7    1  0.2755991E-011  0.5052885E+02  0.7816164E-02  0.1300439E+00
        -11   -1    0    0    0    0  0.00000000000E+00  0.00000000000E+00  0.45593999997E+02  0.45594000000E+02  0.51100000000E-03 0. -1.
         11   -1    0    0    0    0 -0.00000000000E+00 -0.00000000000E+00 -0.45593999997E+02  0.45594000000E+02  0.51100000000E-03 0.  1.
    9900012    2    1    2    0    0 -0.20998288033E+02  0.11385981112E+02 -0.32902852844E+02  0.50528851073E+02  0.29999973321E+02 0.  0.
         12    1    1    2    0    0  0.20998288033E+02 -0.11385981112E+02  0.32902852844E+02  0.40659148927E+02  0.00000000000E+00 0. -1.
         11    1    3    3    0    0 -0.12744240816E+02 -0.22673347285E+01 -0.12091632274E+02  0.17713386239E+02  0.51100000000E-03 0. -1.
        -11    1    3    3    0    0 -0.29382698144E+01  0.46412863157E+01 -0.21633684369E+02  0.22320198651E+02  0.51100000000E-03 0.  1.
        -12    1    3    3    0    0 -0.53157774027E+01  0.90120295245E+01  0.82246379918E+00  0.10495266183E+02  0.00000000000E+00 0.  1.
</event>
<event>
 7    1  0.2755991E-011  0.5052886E+02  0.7816164E-02  0.1300439E+00
        -11   -1    0    0    0    0  0.00000000000E+00  0.00000000000E+00  0.45593999997E+02  0.45594000000E+02  0.51100000000E-03 0. -1.
         11   -1    0    0    0    0 -0.00000000000E+00 -0.00000000000E+00 -0.45593999997E+02  0.45594000000E+02  0.51100000000E-03 0.  1.
    9900012    2    1    2    0    0  0.20682012962E+02 -0.82453516985E+01 -0.34021081155E+02  0.50528862678E+02  0.30000008595E+02 0.  0.
         12    1    1    2    0    0 -0.20682012962E+02  0.82453516985E+01  0.34021081155E+02  0.40659137322E+02  0.00000000000E+00 0. -1.
         11    1    3    3    0    0  0.85065699926E+01  0.27373968052E+01 -0.75865410156E+01  0.11722230127E+02  0.51100000000E-03 0. -1.
        -11    1    3    3    0    0  0.16667770348E+02 -0.38536496000E+00 -0.13185571948E+02  0.21256114000E+02  0.51100000000E-03 0.  1.
         12    1    3    3    0    0 -0.44923273782E+01 -0.10597383544E+02 -0.13248968192E+02  0.17550518550E+02  0.00000000000E+00 0. -1.
</event>
<event>
 7    1  0.2755991E-011  0.5052887E+02  0.7816164E-02  0.1300439E+00
        -11   -1    0    0    0    0  0.00000000000E+00  0.00000000000E+00  0.45593999997E+02  0.45594000000E+02  0.51100000000E-03 0.  1.
         11   -1    0    0    0    0 -0.00000000000E+00 -0.00000000000E+00 -0.45593999997E+02  0.45594000000E+02  0.51100000000E-03 0. -1.
    9900012    2    1    2    0    0  0.32187761235E+02  0.24388288505E+02 -0.47248971104E+01  0.50528865206E+02  0.30000016280E+02 0.  0.
         12    1    1    2    0    0 -0.32187761235E+02 -0.24388288505E+02  0.47248971104E+01  0.40659134794E+02  0.00000000000E+00 0. -1.
         11    1    3    3    0    0  0.42512907095E+01  0.35341787454E+00 -0.47476257077E+01  0.63826583029E+01  0.51100000000E-03 0. -1.
        -11    1    3    3    0    0  0.31624015972E+02  0.16344499252E+02 -0.49840268923E+00  0.35601537151E+02  0.51100000000E-03 0.  1.
         12    1    3    3    0    0 -0.36875454468E+01  0.76903713778E+01  0.52113128654E+00  0.85446697518E+01  0.00000000000E+00 0. -1.
</event>
<event>
 7    1  0.2755991E-011  0.5052888E+02  0.7816164E-02  0.1300439E+00
        -11   -1    0    0    0    0  0.00000000000E+00  0.00000000000E+00  0.45593999997E+02  0.45594000000E+02  0.51100000000E-03 0.  1.
         11   -1    0    0    0    0 -0.00000000000E+00 -0.00000000000E+00 -0.45593999997E+02  0.45594000000E+02  0.51100000000E-03 0. -1.
    9900012    2    1    2    0    0  0.20204431672E+01  0.31367703913E+02  0.25790483298E+02  0.50528879644E+02  0.30000060167E+02 0.  0.
         12    1    1    2    0    0 -0.20204431672E+01 -0.31367703913E+02 -0.25790483298E+02  0.40659120356E+02  0.00000000000E+00 0. -1.
         11    1    3    3    0    0  0.49948747484E+01  0.67986565494E+01  0.13097600605E+02  0.15579398143E+02  0.51100000000E-03 0. -1.
        -11    1    3    3    0    0  0.30280229717E+01  0.17652282033E+02  0.17120986285E+02  0.24777008611E+02  0.51100000000E-03 0.  1.
        -12    1    3    3    0    0 -0.60024545529E+01  0.69167653306E+01 -0.44281035913E+01  0.10172472891E+02  0.00000000000E+00 0.  1.
</event>
<event>
 7    1  0.2755991E-011  0.5052887E+02  0.7816164E-02  0.1300439E+00
        -11   -1    0    0    0    0  0.00000000000E+00  0.00000000000E+00  0.45593999997E+02  0.45594000000E+02  0.51100000000E-03 0.  1.
         11   -1    0    0    0    0 -0.00000000000E+00 -0.00000000000E+00 -0.45593999997E+02  0.45594000000E+02  0.51100000000E-03 0. -1.
    9900012    2    1    2    0    0  0.31812195036E+02  0.71711276666E+01  0.24284240346E+02  0.50528866288E+02  0.30000019569E+02 0.  0.
         12    1    1    2    0    0 -0.31812195036E+02 -0.71711276666E+01 -0.24284240346E+02  0.40659133712E+02  0.00000000000E+00 0. -1.
         11    1    3    3    0    0  0.26330119884E+02  0.25434186907E+01  0.10211175808E+02  0.28355110710E+02  0.51100000000E-03 0. -1.
        -11    1    3    3    0    0  0.60378372228E+01  0.59990248035E+01  0.16934086114E+02  0.18952758366E+02  0.51100000000E-03 0.  1.
         12    1    3    3    0    0 -0.55576207043E+00 -0.13713158275E+01 -0.28610215760E+01  0.32209972114E+01  0.00000000000E+00 0. -1.
</event>
<event>
 7    1  0.2755991E-011  0.5052886E+02  0.7816164E-02  0.1300439E+00
        -11   -1    0    0    0    0  0.00000000000E+00  0.00000000000E+00  0.45593999997E+02  0.45594000000E+02  0.51100000000E-03 0.  1.
         11   -1    0    0    0    0 -0.00000000000E+00 -0.00000000000E+00 -0.45593999997E+02  0.45594000000E+02  0.51100000000E-03 0. -1.
    9900012    2    1    2    0    0 -0.35607644948E+02  0.13850479910E+02  0.13907748553E+02  0.50528860286E+02  0.30000001325E+02 0.  0.
         12    1    1    2    0    0  0.35607644948E+02 -0.13850479910E+02 -0.13907748553E+02  0.40659139714E+02  0.00000000000E+00 0. -1.
         11    1    3    3    0    0  0.25780779731E+00 -0.15491192823E+01 -0.21311348676E+01  0.26472573536E+01  0.51100000000E-03 0. -1.
        -11    1    3    3    0    0 -0.16876209198E+02 -0.25485778392E+01 -0.28977488492E+00  0.17070022134E+02  0.51100000000E-03 0.  1.
         12    1    3    3    0    0 -0.18989243547E+02  0.17948177032E+02  0.16328658305E+02  0.30811580799E+02  0.00000000000E+00 0. -1.
</event>
<event>
 7    1  0.2755991E-011  0.5052886E+02  0.7816164E-02  0.1300439E+00
        -11   -1    0    0    0    0  0.00000000000E+00  0.00000000000E+00  0.45593999997E+02  0.45594000000E+02  0.51100000000E-03 0.  1.
         11   -1    0    0    0    0 -0.00000000000E+00 -0.00000000000E+00 -0.45593999997E+02  0.45594000000E+02  0.51100000000E-03 0. -1.
    9900012    2    1    2    0    0  0.25777892726E+02  0.22174465313E+02  0.22292585797E+02  0.50528855312E+02  0.29999986205E+02 0.  0.
         12    1    1    2    0    0 -0.25777892726E+02 -0.22174465313E+02 -0.22292585797E+02  0.40659144688E+02  0.00000000000E+00 0. -1.
         11    1    3    3    0    0 -0.41432694692E+00  0.35744093834E+00  0.52720307283E+00  0.75985142263E+00  0.51100000000E-03 0. -1.
        -11    1    3    3    0    0 -0.51891747484E+01  0.99222416220E+01  0.54787395667E+01  0.12465753121E+02  0.51100000000E-03 0.  1.
         12    1    3    3    0    0  0.31381394421E+02  0.11894782752E+02  0.16286643157E+02  0.37303250768E+02  0.00000000000E+00 0. -1.
</event>
<event>
 7    1  0.2755991E-011  0.5052882E+02  0.7816164E-02  0.1300439E+00
        -11   -1    0    0    0    0  0.00000000000E+00  0.00000000000E+00  0.45593999997E+02  0.45594000000E+02  0.51100000000E-03 0. -1.
         11   -1    0    0    0    0 -0.00000000000E+00 -0.00000000000E+00 -0.45593999997E+02  0.45594000000E+02  0.51100000000E-03 0.  1.
    9900012    2    1    2    0    0 -0.19414009200E+02 -0.21689647882E+02 -0.28387039330E+02  0.50528824156E+02  0.29999891503E+02 0.  0.
         12    1    1    2    0    0  0.19414009200E+02  0.21689647882E+02  0.28387039330E+02  0.40659175844E+02  0.00000000000E+00 0. -1.
         11    1    3    3    0    0 -0.20213121162E+02 -0.58614484858E+01 -0.22530559806E+02  0.30831039083E+02  0.51100000000E-03 0. -1.
        -11    1    3    3    0    0 -0.18466382020E+01 -0.13019949414E+02 -0.58246374640E+00  0.13163146268E+02  0.51100000000E-03 0.  1.
        -12    1    3    3    0    0  0.26457501648E+01 -0.28082499819E+01 -0.52740157773E+01  0.65346388052E+01  0.00000000000E+00 0.  1.
</event>
<event>
 7    1  0.2755991E-011  0.5052885E+02  0.7816164E-02  0.1300439E+00
        -11   -1    0    0    0    0  0.00000000000E+00  0.00000000000E+00  0.45593999997E+02  0.45594000000E+02  0.51100000000E-03 0. -1.
         11   -1    0    0    0    0 -0.00000000000E+00 -0.00000000000E+00 -0.45593999997E+02  0.45594000000E+02  0.51100000000E-03 0.  1.
    9900012    2    1    2    0    0  0.37794966177E+02 -0.98708817422E+01  0.11281515872E+02  0.50528851275E+02  0.29999973936E+02 0.  0.
         12    1    1    2    0    0 -0.37794966177E+02  0.98708817422E+01 -0.11281515872E+02  0.40659148725E+02  0.00000000000E+00 0. -1.
         11    1    3    3    0    0  0.21720304693E+02  0.16736893538E+01  0.13614036360E+02  0.25688808036E+02  0.51100000000E-03 0. -1.
        -11    1    3    3    0    0  0.14223115153E+02 -0.28011033920E+01  0.24525577224E+01  0.14702320379E+02  0.51100000000E-03 0.  1.
         12    1    3    3    0    0  0.18515463298E+01 -0.87434677040E+01 -0.47850782109E+01  0.10137722860E+02  0.00000000000E+00 0. -1.
</event>
<event>
 7    1  0.2755991E-011  0.5052879E+02  0.7816164E-02  0.1300439E+00
        -11   -1    0    0    0    0  0.00000000000E+00  0.00000000000E+00  0.45593999997E+02  0.45594000000E+02  0.51100000000E-03 0.  1.
         11   -1    0    0    0    0 -0.00000000000E+00 -0.00000000000E+00 -0.45593999997E+02  0.45594000000E+02  0.51100000000E-03 0. -1.
    9900012    2    1    2    0    0  0.36944978803E+02 -0.16337852860E+02 -0.46167193764E+01  0.50528794491E+02  0.29999801333E+02 0.  0.
         12    1    1    2    0    0 -0.36944978803E+02  0.16337852860E+02  0.46167193764E+01  0.40659205509E+02  0.00000000000E+00 0. -1.
         11    1    3    3    0    0  0.26172785230E+01 -0.51889036995E+01  0.42044369493E+01  0.71730160178E+01  0.51100000000E-03 0. -1.
        -11    1    3    3    0    0  0.48293301665E+01  0.34223709525E+01 -0.86170561010E+01  0.10454124014E+02  0.51100000000E-03 0.  1.
        -12    1    3    3    0    0  0.29498370114E+02 -0.14571320113E+02 -0.20410022479E+00  0.32901654459E+02  0.00000000000E+00 0.  1.
</event>
<event>
 7    1  0.2755991E-011  0.5052886E+02  0.7816164E-02  0.1300439E+00
        -11   -1    0    0    0    0  0.00000000000E+00  0.00000000000E+00  0.45593999997E+02  0.45594000000E+02  0.51100000000E-03 0. -1.
         11   -1    0    0    0    0 -0.00000000000E+00 -0.00000000000E+00 -0.45593999997E+02  0.45594000000E+02  0.51100000000E-03 0.  1.
    9900012    2    1    2    0    0 -0.61184085791E+01  0.32336159692E+02 -0.23876843118E+02  0.50528858537E+02  0.29999996010E+02 0.  0.
         12    1    1    2    0    0  0.61184085791E+01 -0.32336159692E+02  0.23876843118E+02  0.40659141463E+02  0.00000000000E+00 0. -1.
         11    1    3    3    0    0 -0.23859176666E+01 -0.34072557896E+01 -0.27304285649E+01  0.49756643312E+01  0.51100000000E-03 0. -1.
        -11    1    3    3    0    0  0.10699021499E+00 -0.20932434009E+01 -0.22892990820E+01  0.31038694221E+01  0.51100000000E-03 0.  1.
        -12    1    3    3    0    0 -0.38394811275E+01  0.37836658883E+02 -0.18857115471E+02  0.42449324784E+02  0.00000000000E+00 0.  1.
</event>
<event>
 7    1  0.2755991E-011  0.5052885E+02  0.7816164E-02  0.1300439E+00
        -11   -1    0    0    0    0  0.00000000000E+00  0.00000000000E+00  0.45593999997E+02  0.45594000000E+02  0.51100000000E-03 0. -1.
         11   -1    0    0    0    0 -0.00000000000E+00 -0.00000000000E+00 -0.45593999997E+02  0.45594000000E+02  0.51100000000E-03 0.  1.
    9900012    2    1    2    0    0 -0.52657775162E+01  0.38013365647E+02 -0.13432131733E+02  0.50528849202E+02  0.29999967636E+02 0.  0.
         12    1    1    2    0    0  0.52657775162E+01 -0.38013365647E+02  0.13432131733E+02  0.40659150798E+02  0.00000000000E+00 0. -1.
         11    1    3    3    0    0  0.38805901352E+01 -0.24015492878E+00  0.19353766190E+01  0.43430792194E+01  0.51100000000E-03 0. -1.
        -11    1    3    3    0    0  0.57322221405E+01  0.10976345738E+02 -0.29816153144E+01  0.12736897840E+02  0.51100000000E-03 0.  1.
        -12    1    3    3    0    0 -0.14878589792E+02  0.27277174838E+02 -0.12385893038E+02  0.33448872143E+02  0.00000000000E+00 0.  1.
</event>
<event>
 7    1  0.2755991E-011  0.5052885E+02  0.7816164E-02  0.1300439E+00
        -11   -1    0    0    0    0  0.00000000000E+00  0.00000000000E+00  0.45593999997E+02  0.45594000000E+02  0.51100000000E-03 0. -1.
         11   -1    0    0    0    0 -0.00000000000E+00 -0.00000000000E+00 -0.45593999997E+02  0.45594000000E+02  0.51100000000E-03 0.  1.
    9900012    2    1    2    0    0 -0.89671725350E+01 -0.38537356460E+02 -0.93609867379E+01  0.50528854670E+02  0.29999984256E+02 0.  0.
         12    1    1    2    0    0  0.89671725350E+01  0.38537356460E+02  0.93609867379E+01  0.40659145330E+02  0.00000000000E+00 0. -1.
         11    1    3    3    0    0  0.34110704146E+01 -0.14478374661E+01  0.28181553918E+01  0.46554951160E+01  0.51100000000E-03 0. -1.
        -11    1    3    3    0    0  0.67883414631E-01 -0.23919757467E+02  0.21303617026E+00  0.23920802455E+02  0.51100000000E-03 0.  1.
        -12    1    3    3    0    0 -0.12446126364E+02 -0.13169761527E+02 -0.12392178300E+02  0.21952557099E+02  0.00000000000E+00 0.  1.
</event>
<event>
 7    1  0.2755991E-011  0.5052884E+02  0.7816164E-02  0.1300439E+00
        -11   -1    0    0    0    0  0.00000000000E+00  0.00000000000E+00  0.45593999997E+02  0.45594000000E+02  0.51100000000E-03 0. -1.
         11   -1    0    0    0    0 -0.00000000000E+00 -0.00000000000E+00 -0.45593999997E+02  0.45594000000E+02  0.51100000000E-03 0.  1.
    9900012    2    1    2    0    0 -0.17493654465E+02 -0.12531786584E+02 -0.34497729108E+02  0.50528844387E+02  0.29999953000E+02 0.  0.
         12    1    1    2    0    0  0.17493654465E+02  0.12531786584E+02  0.34497729108E+02  0.40659155613E+02  0.00000000000E+00 0. -1.
         11    1    3    3    0    0 -0.10983288840E+02 -0.10676494676E+02 -0.28179528128E+02  0.32073446620E+02  0.51100000000E-03 0. -1.
        -11    1    3    3    0    0 -0.87494544886E+00  0.11153620052E+01 -0.10654988567E+02  0.10748876386E+02  0.51100000000E-03 0.  1.
         12    1    3    3    0    0 -0.56354201756E+01 -0.29706539138E+01  0.43367875867E+01  0.77065213815E+01  0.00000000000E+00 0. -1.
</event>
<event>
 7    1  0.2755991E-011  0.5052886E+02  0.7816164E-02  0.1300439E+00
        -11   -1    0    0    0    0  0.00000000000E+00  0.00000000000E+00  0.45593999997E+02  0.45594000000E+02  0.51100000000E-03 0.  1.
         11   -1    0    0    0    0 -0.00000000000E+00 -0.00000000000E+00 -0.45593999997E+02  0.45594000000E+02  0.51100000000E-03 0. -1.
    9900012    2    1    2    0    0 -0.42015770467E+01 -0.18898761371E+02  0.35754005460E+02  0.50528864035E+02  0.30000012721E+02 0.  0.
         12    1    1    2    0    0  0.42015770467E+01  0.18898761371E+02 -0.35754005460E+02  0.40659135965E+02  0.00000000000E+00 0. -1.
         11    1    3    3    0    0 -0.36453571083E+01 -0.71705341751E+01 -0.20202082149E+01  0.82937585144E+01  0.51100000000E-03 0. -1.
        -11    1    3    3    0    0 -0.70428306243E+01 -0.94139089292E+01  0.20395026241E+02  0.23541033116E+02  0.51100000000E-03 0.  1.
         12    1    3    3    0    0  0.64866106859E+01 -0.23143182662E+01  0.17379187433E+02  0.18694072405E+02  0.00000000000E+00 0. -1.
</event>
<event>
 7    1  0.2755991E-011  0.5052885E+02  0.7816164E-02  0.1300439E+00
        -11   -1    0    0    0    0  0.00000000000E+00  0.00000000000E+00  0.45593999997E+02  0.45594000000E+02  0.51100000000E-03 0. -1.
         11   -1    0    0    0    0 -0.00000000000E+00 -0.00000000000E+00 -0.45593999997E+02  0.45594000000E+02  0.51100000000E-03 0.  1.
    9900012    2    1    2    0    0 -0.25288377316E+02 -0.10956808406E+02 -0.29893351195E+02  0.50528854370E+02  0.29999983343E+02 0.  0.
         12    1    1    2    0    0  0.25288377316E+02  0.10956808406E+02  0.29893351195E+02  0.40659145630E+02  0.00000000000E+00 0. -1.
         11    1    3    3    0    0 -0.23742700613E+01 -0.92799662578E+00  0.22548825166E+01  0.34033559153E+01  0.51100000000E-03 0. -1.
        -11    1    3    3    0    0 -0.10532891023E+02 -0.41095384470E+01  0.89921173471E+00  0.11341899381E+02  0.51100000000E-03 0.  1.
        -12    1    3    3    0    0 -0.12381216231E+02 -0.59192733333E+01 -0.33047445446E+02  0.35783599074E+02  0.00000000000E+00 0.  1.
</event>
<event>
 7    1  0.2755991E-011  0.5052884E+02  0.7816164E-02  0.1300439E+00
        -11   -1    0    0    0    0  0.00000000000E+00  0.00000000000E+00  0.45593999997E+02  0.45594000000E+02  0.51100000000E-03 0.  1.
         11   -1    0    0    0    0 -0.00000000000E+00 -0.00000000000E+00 -0.45593999997E+02  0.45594000000E+02  0.51100000000E-03 0. -1.
    9900012    2    1    2    0    0  0.55579691942E+01  0.22962613126E+02  0.33090700356E+02  0.50528842689E+02  0.29999947839E+02 0.  0.
         12    1    1    2    0    0 -0.55579691942E+01 -0.22962613126E+02 -0.33090700356E+02  0.40659157311E+02  0.00000000000E+00 0. -1.
         11    1    3    3    0    0  0.11059678228E+02  0.16591513701E+02  0.20690140667E+02  0.28734591183E+02  0.51100000000E-03 0. -1.
        -11    1    3    3    0    0  0.54270522074E+01  0.39768954061E+01  0.43770272289E+01  0.80266406645E+01  0.51100000000E-03 0.  1.
        -12    1    3    3    0    0 -0.10928761241E+02  0.23942040195E+01  0.80235324602E+01  0.13767610842E+02  0.00000000000E+00 0.  1.
</event>
<event>
 7    1  0.2755991E-011  0.5052884E+02  0.7816164E-02  0.1300439E+00
        -11   -1    0    0    0    0  0.00000000000E+00  0.00000000000E+00  0.45593999997E+02  0.45594000000E+02  0.51100000000E-03 0. -1.
         11   -1    0    0    0    0 -0.00000000000E+00 -0.00000000000E+00 -0.45593999997E+02  0.45594000000E+02  0.51100000000E-03 0.  1.
    9900012    2    1    2    0    0 -0.47657757501E+01  0.20783911448E+02 -0.34619120831E+02  0.50528842106E+02  0.29999946064E+02 0.  0.
         12    1    1    2    0    0  0.47657757501E+01 -0.20783911448E+02  0.34619120831E+02  0.40659157894E+02  0.00000000000E+00 0. -1.
         11    1    3    3    0    0 -0.37392912877E+01  0.11093782671E+01  0.12726654061E+01  0.41027669896E+01  0.51100000000E-03 0. -1.
        -11    1    3    3    0    0  0.99920051242E+01  0.54643664479E+01 -0.15578560322E+02  0.19297435297E+02  0.51100000000E-03 0.  1.
        -12    1    3    3    0    0 -0.11018489587E+02  0.14210166733E+02 -0.20313225915E+02  0.27128639819E+02  0.00000000000E+00 0.  1.
</event>
<event>
 7    1  0.2755991E-011  0.5052887E+02  0.7816164E-02  0.1300439E+00
        -11   -1    0    0    0    0  0.00000000000E+00  0.00000000000E+00  0.45593999997E+02  0.45594000000E+02  0.51100000000E-03 0.  1.
         11   -1    0    0    0    0 -0.00000000000E+00 -0.00000000000E+00 -0.45593999997E+02  0.45594000000E+02  0.51100000000E-03 0. -1.
    9900012    2    1    2    0    0  0.30118400782E+02  0.25254488806E+02 -0.10404693648E+02  0.50528869163E+02  0.30000028307E+02 0.  0.
         12    1    1    2    0    0 -0.30118400782E+02 -0.25254488806E+02  0.10404693648E+02  0.40659130837E+02  0.00000000000E+00 0. -1.
         11    1    3    3    0    0  0.12119859170E+01  0.48291007651E+00 -0.34315123608E+01  0.36711564048E+01  0.51100000000E-03 0. -1.
        -11    1    3    3    0    0 -0.43762315782E+01  0.58282511245E+00  0.18356458965E+01  0.47812847705E+01  0.51100000000E-03 0.  1.
        -12    1    3    3    0    0  0.33282646444E+02  0.24188753617E+02 -0.88088271841E+01  0.42076427987E+02  0.00000000000E+00 0.  1.
</event>
<event>
 7    1  0.2755991E-011  0.5052887E+02  0.7816164E-02  0.1300439E+00
        -11   -1    0    0    0    0  0.00000000000E+00  0.00000000000E+00  0.45593999997E+02  0.45594000000E+02  0.51100000000E-03 0.  1.
         11   -1    0    0    0    0 -0.00000000000E+00 -0.00000000000E+00 -0.45593999997E+02  0.45594000000E+02  0.51100000000E-03 0. -1.
    9900012    2    1    2    0    0  0.15243266163E+02 -0.37203094155E+02  0.60611170756E+01  0.50528874109E+02  0.30000043341E+02 0.  0.
         12    1    1    2    0    0 -0.15243266163E+02  0.37203094155E+02 -0.60611170756E+01  0.40659125891E+02  0.00000000000E+00 0. -1.
         11    1    3    3    0    0  0.73934320815E+01 -0.32555673655E+02 -0.29889775567E+01  0.33518184798E+02  0.51100000000E-03 0. -1.
        -11    1    3    3    0    0  0.83606446676E+01 -0.44837217906E+01  0.16964839677E+01  0.96375411007E+01  0.51100000000E-03 0.  1.
        -12    1    3    3    0    0 -0.51081058615E+00 -0.16369870999E+00  0.73536106646E+01  0.73731482102E+01  0.00000000000E+00 0.  1.
</event>
<event>
 7    1  0.2755991E-011  0.5052887E+02  0.7816164E-02  0.1300439E+00
        -11   -1    0    0    0    0  0.00000000000E+00  0.00000000000E+00  0.45593999997E+02  0.45594000000E+02  0.51100000000E-03 0.  1.
         11   -1    0    0    0    0 -0.00000000000E+00 -0.00000000000E+00 -0.45593999997E+02  0.45594000000E+02  0.51100000000E-03 0. -1.
    9900012    2    1    2    0    0 -0.51196751508E+01  0.25960252151E+00  0.40334680404E+02  0.50528869286E+02  0.30000028682E+02 0.  0.
         12    1    1    2    0    0  0.51196751508E+01 -0.25960252151E+00 -0.40334680404E+02  0.40659130714E+02  0.00000000000E+00 0. -1.
         11    1    3    3    0    0  0.21166732053E+01 -0.46676904448E+00  0.67505457636E+01  0.70899962741E+01  0.51100000000E-03 0. -1.
        -11    1    3    3    0    0  0.89073208592E+01 -0.52198147463E+01  0.11748896166E+02  0.15640440923E+02  0.51100000000E-03 0.  1.
        -12    1    3    3    0    0 -0.16143669215E+02  0.59461863123E+01  0.21835238474E+02  0.27798432089E+02  0.00000000000E+00 0.  1.
</event>
<event>
 7    1  0.2755991E-011  0.5052886E+02  0.7816164E-02  0.1300439E+00
        -11   -1    0    0    0    0  0.00000000000E+00  0.00000000000E+00  0.45593999997E+02  0.45594000000E+02  0.51100000000E-03 0.  1.
         11   -1    0    0    0    0 -0.00000000000E+00 -0.00000000000E+00 -0.45593999997E+02  0.45594000000E+02  0.51100000000E-03 0. -1.
    9900012    2    1    2    0    0  0.88955481784E+01  0.25145247473E+02  0.30687962868E+02  0.50528864337E+02  0.30000013640E+02 0.  0.
         12    1    1    2    0    0 -0.88955481784E+01 -0.25145247473E+02 -0.30687962868E+02  0.40659135663E+02  0.00000000000E+00 0. -1.
         11    1    3    3    0    0  0.11426653076E+02  0.86927201653E+01  0.48590229746E+00  0.14365510283E+02  0.51100000000E-03 0. -1.
        -11    1    3    3    0    0 -0.30538806593E+01 -0.23680525455E+00  0.63181713007E+01  0.70215064378E+01  0.51100000000E-03 0.  1.
        -12    1    3    3    0    0  0.52277576183E+00  0.16689332562E+02  0.23883889269E+02  0.29141847616E+02  0.00000000000E+00 0.  1.
</event>
<event>
 7    1  0.2755991E-011  0.5052885E+02  0.7816164E-02  0.1300439E+00
        -11   -1    0    0    0    0  0.00000000000E+00  0.00000000000E+00  0.45593999997E+02  0.45594000000E+02  0.51100000000E-03 0. -1.
         11   -1    0    0    0    0 -0.00000000000E+00 -0.00000000000E+00 -0.45593999997E+02  0.45594000000E+02  0.51100000000E-03 0.  1.
    9900012    2    1    2    0    0 -0.12780419601E+02  0.37745911682E+02  0.80667983371E+01  0.50528853314E+02  0.29999980132E+02 0.  0.
         12    1    1    2    0    0  0.12780419601E+02 -0.37745911682E+02 -0.80667983371E+01  0.40659146686E+02  0.00000000000E+00 0. -1.
         11    1    3    3    0    0 -0.87572210663E+01  0.13769903146E+02  0.79372417434E+01  0.18146596381E+02  0.51100000000E-03 0. -1.
        -11    1    3    3    0    0 -0.11686091158E+02  0.21167289870E+02  0.81051932382E+00  0.24192474632E+02  0.51100000000E-03 0.  1.
         12    1    3    3    0    0  0.76628926230E+01  0.28087186659E+01 -0.68096273006E+00  0.81897823009E+01  0.00000000000E+00 0. -1.
</event>
<event>
 7    1  0.2755991E-011  0.5052887E+02  0.7816164E-02  0.1300439E+00
        -11   -1    0    0    0    0  0.00000000000E+00  0.00000000000E+00  0.45593999997E+02  0.45594000000E+02  0.51100000000E-03 0.  1.
         11   -1    0    0    0    0 -0.00000000000E+00 -0.00000000000E+00 -0.45593999997E+02  0.45594000000E+02  0.51100000000E-03 0. -1.
    9900012    2    1    2    0    0  0.27721859956E+02 -0.50298767633E+01  0.29314910141E+02  0.50528866509E+02  0.30000020241E+02 0.  0.
         12    1    1    2    0    0 -0.27721859956E+02  0.50298767633E+01 -0.29314910141E+02  0.40659133491E+02  0.00000000000E+00 0. -1.
         11    1    3    3    0    0 -0.18551571729E+01 -0.42257773296E+01  0.45608142519E+01  0.64884381077E+01  0.51100000000E-03 0. -1.
        -11    1    3    3    0    0  0.12259067839E+02  0.34235444291E-01  0.23684655875E+02  0.26669248968E+02  0.51100000000E-03 0.  1.
        -12    1    3    3    0    0  0.17317949290E+02 -0.83833487800E+00  0.10694400144E+01  0.17371179434E+02  0.00000000000E+00 0.  1.
</event>
<event>
 7    1  0.2755991E-011  0.5052887E+02  0.7816164E-02  0.1300439E+00
        -11   -1    0    0    0    0  0.00000000000E+00  0.00000000000E+00  0.45593999997E+02  0.45594000000E+02  0.51100000000E-03 0. -1.
         11   -1    0    0    0    0 -0.00000000000E+00 -0.00000000000E+00 -0.45593999997E+02  0.45594000000E+02  0.51100000000E-03 0.  1.
    9900012    2    1    2    0    0 -0.25858284695E+02  0.13743944646E+02 -0.28206697309E+02  0.50528872183E+02  0.30000037487E+02 0.  0.
         12    1    1    2    0    0  0.25858284695E+02 -0.13743944646E+02  0.28206697309E+02  0.40659127817E+02  0.00000000000E+00 0. -1.
         11    1    3    3    0    0  0.15515297519E+01  0.70370629175E+01 -0.59110232090E+01  0.93202840469E+01  0.51100000000E-03 0. -1.
        -11    1    3    3    0    0 -0.79818405264E+01  0.12029039768E+02 -0.10661822372E+02  0.17946644045E+02  0.51100000000E-03 0.  1.
        -12    1    3    3    0    0 -0.19427973921E+02 -0.53221580399E+01 -0.11633851727E+02  0.23261944091E+02  0.00000000000E+00 0.  1.
</event>
<event>
 7    1  0.2755991E-011  0.5052887E+02  0.7816164E-02  0.1300439E+00
        -11   -1    0    0    0    0  0.00000000000E+00  0.00000000000E+00  0.45593999997E+02  0.45594000000E+02  0.51100000000E-03 0.  1.
         11   -1    0    0    0    0 -0.00000000000E+00 -0.00000000000E+00 -0.45593999997E+02  0.45594000000E+02  0.51100000000E-03 0. -1.
    9900012    2    1    2    0    0 -0.16941308728E+02  0.36958475035E+02  0.47734797744E+00  0.50528872127E+02  0.30000037317E+02 0.  0.
         12    1    1    2    0    0  0.16941308728E+02 -0.36958475035E+02 -0.47734797744E+00  0.40659127873E+02  0.00000000000E+00 0. -1.
         11    1    3    3    0    0 -0.12216498353E+02  0.29230019734E+02 -0.45172519876E+01  0.32000663297E+02  0.51100000000E-03 0. -1.
        -11    1    3    3    0    0 -0.38561902312E+01  0.12437727231E+02  0.31570042061E+01  0.13399027487E+02  0.51100000000E-03 0.  1.
        -12    1    3    3    0    0 -0.86862014370E+00 -0.47092719308E+01  0.18375957590E+01  0.51291813426E+01  0.00000000000E+00 0.  1.
</event>
<event>
 7    1  0.2755991E-011  0.5052886E+02  0.7816164E-02  0.1300439E+00
        -11   -1    0    0    0    0  0.00000000000E+00  0.00000000000E+00  0.45593999997E+02  0.45594000000E+02  0.51100000000E-03 0.  1.
         11   -1    0    0    0    0 -0.00000000000E+00 -0.00000000000E+00 -0.45593999997E+02  0.45594000000E+02  0.51100000000E-03 0. -1.
    9900012    2    1    2    0    0 -0.35172986687E+02  0.13265295207E+02  0.15493823650E+02  0.50528860552E+02  0.30000002133E+02 0.  0.
         12    1    1    2    0    0  0.35172986687E+02 -0.13265295207E+02 -0.15493823650E+02  0.40659139448E+02  0.00000000000E+00 0. -1.
         11    1    3    3    0    0 -0.29422645126E+01  0.13754612933E+01 -0.32332333996E+01  0.45828607560E+01  0.51100000000E-03 0. -1.
        -11    1    3    3    0    0  0.36514620489E+01  0.33751052170E+01  0.33172079690E+01  0.59773220836E+01  0.51100000000E-03 0.  1.
        -12    1    3    3    0    0 -0.35882184223E+02  0.85147286964E+01  0.15409849080E+02  0.39968677712E+02  0.00000000000E+00 0.  1.
</event>
<event>
 7    1  0.2755991E-011  0.5052887E+02  0.7816164E-02  0.1300439E+00
        -11   -1    0    0    0    0  0.00000000000E+00  0.00000000000E+00  0.45593999997E+02  0.45594000000E+02  0.51100000000E-03 0. -1.
         11   -1    0    0    0    0 -0.00000000000E+00 -0.00000000000E+00 -0.45593999997E+02  0.45594000000E+02  0.51100000000E-03 0.  1.
    9900012    2    1    2    0    0  0.12731356202E+02  0.36352798936E+02 -0.13021196975E+02  0.50528868285E+02  0.30000025638E+02 0.  0.
         12    1    1    2    0    0 -0.12731356202E+02 -0.36352798936E+02  0.13021196975E+02  0.40659131715E+02  0.00000000000E+00 0. -1.
         11    1    3    3    0    0  0.12277338794E+01  0.12742120222E+02 -0.10406322470E+02  0.16497287833E+02  0.51100000000E-03 0. -1.
        -11    1    3    3    0    0 -0.55598393536E+01  0.61344945246E+01  0.32802540835E+01  0.89052739331E+01  0.51100000000E-03 0.  1.
         12    1    3    3    0    0  0.17063461676E+02  0.17476184189E+02 -0.58951285884E+01  0.25126306518E+02  0.00000000000E+00 0. -1.
</event>
<event>
 7    1  0.2755991E-011  0.5052887E+02  0.7816164E-02  0.1300439E+00
        -11   -1    0    0    0    0  0.00000000000E+00  0.00000000000E+00  0.45593999997E+02  0.45594000000E+02  0.51100000000E-03 0.  1.
         11   -1    0    0    0    0 -0.00000000000E+00 -0.00000000000E+00 -0.45593999997E+02  0.45594000000E+02  0.51100000000E-03 0. -1.
    9900012    2    1    2    0    0 -0.95282810634E+01 -0.37690948749E+02  0.11906671657E+02  0.50528873256E+02  0.30000040748E+02 0.  0.
         12    1    1    2    0    0  0.95282810634E+01  0.37690948749E+02 -0.11906671657E+02  0.40659126744E+02  0.00000000000E+00 0. -1.
         11    1    3    3    0    0  0.40669566206E+01 -0.27611281567E+01 -0.12048025866E+01  0.50611771739E+01  0.51100000000E-03 0. -1.
        -11    1    3    3    0    0 -0.21376854263E+01  0.27596568088E+01  0.34493970593E+01  0.49075192326E+01  0.51100000000E-03 0.  1.
        -12    1    3    3    0    0 -0.11457552258E+02 -0.37689477401E+02  0.96620771846E+01  0.40560176849E+02  0.00000000000E+00 0.  1.
</event>
<event>
 7    1  0.2755991E-011  0.5052886E+02  0.7816164E-02  0.1300439E+00
        -11   -1    0    0    0    0  0.00000000000E+00  0.00000000000E+00  0.45593999997E+02  0.45594000000E+02  0.51100000000E-03 0. -1.
         11   -1    0    0    0    0 -0.00000000000E+00 -0.00000000000E+00 -0.45593999997E+02  0.45594000000E+02  0.51100000000E-03 0.  1.
    9900012    2    1    2    0    0  0.34733032035E+02 -0.23195387278E+01 -0.21009569044E+02  0.50528858768E+02  0.29999996713E+02 0.  0.
         12    1    1    2    0    0 -0.34733032035E+02  0.23195387278E+01  0.21009569044E+02  0.40659141232E+02  0.00000000000E+00 0. -1.
         11    1    3    3    0    0  0.13169581664E+02 -0.73388776286E+01  0.19343040342E+01  0.15199951921E+02  0.51100000000E-03 0. -1.
        -11    1    3    3    0    0  0.11625258232E+02  0.10662843241E+01 -0.20445118702E+01  0.11851734905E+02  0.51100000000E-03 0.  1.
         12    1    3    3    0    0  0.99381921393E+01  0.39530545767E+01 -0.20899361208E+02  0.23477171942E+02  0.00000000000E+00 0. -1.
</event>
<event>
 7    1  0.2755991E-011  0.5052888E+02  0.7816164E-02  0.1300439E+00
        -11   -1    0    0    0    0  0.00000000000E+00  0.00000000000E+00  0.45593999997E+02  0.45594000000E+02  0.51100000000E-03 0.  1.
         11   -1    0    0    0    0 -0.00000000000E+00 -0.00000000000E+00 -0.45593999997E+02  0.45594000000E+02  0.51100000000E-03 0. -1.
    9900012    2    1    2    0    0 -0.33261033496E+01  0.13464664019E+02  0.38220469008E+02  0.50528875663E+02  0.30000048066E+02 0.  0.
         12    1    1    2    0    0  0.33261033496E+01 -0.13464664019E+02 -0.38220469008E+02  0.40659124337E+02  0.00000000000E+00 0. -1.
         11    1    3    3    0    0 -0.57057913036E+01  0.50522938095E+01 -0.30403357177E+01  0.82052037558E+01  0.51100000000E-03 0. -1.
        -11    1    3    3    0    0  0.77483229545E+00  0.21551447894E+01  0.51028329647E+01  0.55932028996E+01  0.51100000000E-03 0.  1.
         12    1    3    3    0    0  0.16048556585E+01  0.62572254204E+01  0.36157971761E+02  0.36730469008E+02  0.00000000000E+00 0. -1.
</event>
<event>
 7    1  0.2755991E-011  0.5052887E+02  0.7816164E-02  0.1300439E+00
        -11   -1    0    0    0    0  0.00000000000E+00  0.00000000000E+00  0.45593999997E+02  0.45594000000E+02  0.51100000000E-03 0.  1.
         11   -1    0    0    0    0 -0.00000000000E+00 -0.00000000000E+00 -0.45593999997E+02  0.45594000000E+02  0.51100000000E-03 0. -1.
    9900012    2    1    2    0    0 -0.14753665253E+02 -0.16115998351E+02  0.34289486838E+02  0.50528868813E+02  0.30000027245E+02 0.  0.
         12    1    1    2    0    0  0.14753665253E+02  0.16115998351E+02 -0.34289486838E+02  0.40659131187E+02  0.00000000000E+00 0. -1.
         11    1    3    3    0    0 -0.11306851013E+01 -0.54273944927E+01  0.11733992316E+02  0.12977736155E+02  0.51100000000E-03 0. -1.
        -11    1    3    3    0    0  0.14400666547E+01 -0.14371173931E+02  0.12182141723E+02  0.18894682039E+02  0.51100000000E-03 0.  1.
         12    1    3    3    0    0 -0.15063046806E+02  0.36825700728E+01  0.10373352799E+02  0.18656450620E+02  0.00000000000E+00 0. -1.
</event>
<event>
 7    1  0.2755991E-011  0.5052886E+02  0.7816164E-02  0.1300439E+00
        -11   -1    0    0    0    0  0.00000000000E+00  0.00000000000E+00  0.45593999997E+02  0.45594000000E+02  0.51100000000E-03 0.  1.
         11   -1    0    0    0    0 -0.00000000000E+00 -0.00000000000E+00 -0.45593999997E+02  0.45594000000E+02  0.51100000000E-03 0. -1.
    9900012    2    1    2    0    0 -0.16840915173E+02 -0.37882797005E-01  0.37007407431E+02  0.50528855103E+02  0.29999985573E+02 0.  0.
         12    1    1    2    0    0  0.16840915173E+02  0.37882797005E-01 -0.37007407431E+02  0.40659144897E+02  0.00000000000E+00 0. -1.
         11    1    3    3    0    0 -0.41919218939E+01 -0.47598485417E+01  0.28400430692E+00  0.63489389674E+01  0.51100000000E-03 0. -1.
        -11    1    3    3    0    0 -0.93878431697E+01 -0.66299321072E+01  0.11159556864E+02  0.16019466557E+02  0.51100000000E-03 0.  1.
        -12    1    3    3    0    0 -0.32611501099E+01  0.11351897852E+02  0.25563846260E+02  0.28160449579E+02  0.00000000000E+00 0.  1.
</event>
<event>
 7    1  0.2755991E-011  0.5052884E+02  0.7816164E-02  0.1300439E+00
        -11   -1    0    0    0    0  0.00000000000E+00  0.00000000000E+00  0.45593999997E+02  0.45594000000E+02  0.51100000000E-03 0.  1.
         11   -1    0    0    0    0 -0.00000000000E+00 -0.00000000000E+00 -0.45593999997E+02  0.45594000000E+02  0.51100000000E-03 0. -1.
    9900012    2    1    2    0    0 -0.78146212639E+00 -0.28058900575E+02  0.29415215789E+02  0.50528837387E+02  0.29999931720E+02 0.  0.
         12    1    1    2    0    0  0.78146212639E+00  0.28058900575E+02 -0.29415215789E+02  0.40659162613E+02  0.00000000000E+00 0. -1.
         11    1    3    3    0    0  0.42364659617E+01 -0.31961819704E+01 -0.11184875105E+00  0.53080818981E+01  0.51100000000E-03 0. -1.
        -11    1    3    3    0    0  0.83454286455E+01 -0.66032343140E+01  0.14778516674E+02  0.18211354646E+02  0.51100000000E-03 0.  1.
        -12    1    3    3    0    0 -0.13363356734E+02 -0.18259484290E+02  0.14748547866E+02  0.27009400843E+02  0.00000000000E+00 0.  1.
</event>
<event>
 7    1  0.2755991E-011  0.5052886E+02  0.7816164E-02  0.1300439E+00
        -11   -1    0    0    0    0  0.00000000000E+00  0.00000000000E+00  0.45593999997E+02  0.45594000000E+02  0.51100000000E-03 0.  1.
         11   -1    0    0    0    0 -0.00000000000E+00 -0.00000000000E+00 -0.45593999997E+02  0.45594000000E+02  0.51100000000E-03 0. -1.
    9900012    2    1    2    0    0 -0.35788268397E+02 -0.19196505837E+02  0.19645859585E+01  0.50528860939E+02  0.30000003309E+02 0.  0.
         12    1    1    2    0    0  0.35788268397E+02  0.19196505837E+02 -0.19645859585E+01  0.40659139061E+02  0.00000000000E+00 0. -1.
         11    1    3    3    0    0  0.23481295668E+01  0.21462876616E+01  0.40547044279E+01  0.51537259771E+01  0.51100000000E-03 0. -1.
        -11    1    3    3    0    0 -0.11325090598E+02 -0.81857634137E+01  0.47082020923E+01  0.14745560922E+02  0.51100000000E-03 0.  1.
         12    1    3    3    0    0 -0.26811307366E+02 -0.13157030085E+02 -0.67983205617E+01  0.30629574039E+02  0.00000000000E+00 0. -1.
</event>
<event>
 7    1  0.2755991E-011  0.5052886E+02  0.7816164E-02  0.1300439E+00
        -11   -1    0    0    0    0  0.00000000000E+00  0.00000000000E+00  0.45593999997E+02  0.45594000000E+02  0.51100000000E-03 0. -1.
         11   -1    0    0    0    0 -0.00000000000E+00 -0.00000000000E+00 -0.45593999997E+02  0.45594000000E+02  0.51100000000E-03 0.  1.
    9900012    2    1    2    0    0 -0.34218745840E+02 -0.21778525541E+02  0.28175783408E+01  0.50528862167E+02  0.30000007042E+02 0.  0.
         12    1    1    2    0    0  0.34218745840E+02  0.21778525541E+02 -0.28175783408E+01  0.40659137833E+02  0.00000000000E+00 0. -1.
         11    1    3    3    0    0  0.27016590944E+00 -0.32379875419E+01  0.65573691259E+01  0.73182404343E+01  0.51100000000E-03 0. -1.
        -11    1    3    3    0    0 -0.76032885041E+01  0.28455380941E+01 -0.35385417332E+01  0.88559788268E+01  0.51100000000E-03 0.  1.
        -12    1    3    3    0    0 -0.26885623246E+02 -0.21386076094E+02 -0.20124905186E+00  0.34354642906E+02  0.00000000000E+00 0.  1.
</event>
<event>
 7    1  0.2755991E-011  0.5052885E+02  0.7816164E-02  0.1300439E+00
        -11   -1    0    0    0    0  0.00000000000E+00  0.00000000000E+00  0.45593999997E+02  0.45594000000E+02  0.51100000000E-03 0.  1.
         11   -1    0    0    0    0 -0.00000000000E+00 -0.00000000000E+00 -0.45593999997E+02  0.45594000000E+02  0.51100000000E-03 0. -1.
    9900012    2    1    2    0    0 -0.37863839985E+01  0.77304253572E+01  0.39737515715E+02  0.50528851765E+02  0.29999975425E+02 0.  0.
         12    1    1    2    0    0  0.37863839985E+01 -0.77304253572E+01 -0.39737515715E+02  0.40659148235E+02  0.00000000000E+00 0. -1.
         11    1    3    3    0    0 -0.98681910100E+00 -0.15435693012E+01  0.13128177476E+01  0.22538653077E+01  0.51100000000E-03 0. -1.
        -11    1    3    3    0    0 -0.55865397959E+01 -0.42760049112E+01 -0.41284165085E+00  0.70472748905E+01  0.51100000000E-03 0.  1.
        -12    1    3    3    0    0  0.27869748984E+01  0.13549999570E+02  0.38837539618E+02  0.41227711567E+02  0.00000000000E+00 0.  1.
</event>
<event>
 7    1  0.2755991E-011  0.5052881E+02  0.7816164E-02  0.1300439E+00
        -11   -1    0    0    0    0  0.00000000000E+00  0.00000000000E+00  0.45593999997E+02  0.45594000000E+02  0.51100000000E-03 0.  1.
         11   -1    0    0    0    0 -0.00000000000E+00 -0.00000000000E+00 -0.45593999997E+02  0.45594000000E+02  0.51100000000E-03 0. -1.
    9900012    2    1    2    0    0  0.18437112257E+02 -0.32071126090E+02 -0.16872617204E+02  0.50528813481E+02  0.29999859056E+02 0.  0.
         12    1    1    2    0    0 -0.18437112257E+02  0.32071126090E+02  0.16872617204E+02  0.40659186519E+02  0.00000000000E+00 0. -1.
         11    1    3    3    0    0  0.26694308797E+01  0.97628071596E+00  0.12423058804E+01  0.31019847548E+01  0.51100000000E-03 0. -1.
        -11    1    3    3    0    0  0.42739292670E+01  0.20749732604E+01 -0.76728775329E+01  0.90246903163E+01  0.51100000000E-03 0.  1.
        -12    1    3    3    0    0  0.11493752111E+02 -0.35122380067E+02 -0.10442045552E+02  0.38402138410E+02  0.00000000000E+00 0.  1.
</event>
<event>
 7    1  0.2755991E-011  0.5052886E+02  0.7816164E-02  0.1300439E+00
        -11   -1    0    0    0    0  0.00000000000E+00  0.00000000000E+00  0.45593999997E+02  0.45594000000E+02  0.51100000000E-03 0. -1.
         11   -1    0    0    0    0 -0.00000000000E+00 -0.00000000000E+00 -0.45593999997E+02  0.45594000000E+02  0.51100000000E-03 0.  1.
    9900012    2    1    2    0    0 -0.66086467026E+00  0.40378988175E+02  0.47186773336E+01  0.50528863955E+02  0.30000012477E+02 0.  0.
         12    1    1    2    0    0  0.66086467026E+00 -0.40378988175E+02 -0.47186773336E+01  0.40659136045E+02  0.00000000000E+00 0. -1.
         11    1    3    3    0    0  0.54661038180E+01  0.98216770782E+01 -0.10151824946E+02  0.15146061586E+02  0.51100000000E-03 0. -1.
        -11    1    3    3    0    0 -0.20441435870E+01  0.19723145992E+01 -0.13061092637E+00  0.28435202404E+01  0.51100000000E-03 0.  1.
         12    1    3    3    0    0 -0.40828249012E+01  0.28584996498E+02  0.15001113206E+02  0.32539282128E+02  0.00000000000E+00 0. -1.
</event>
<event>
 7    1  0.2755991E-011  0.5052885E+02  0.7816164E-02  0.1300439E+00
        -11   -1    0    0    0    0  0.00000000000E+00  0.00000000000E+00  0.45593999997E+02  0.45594000000E+02  0.51100000000E-03 0.  1.
         11   -1    0    0    0    0 -0.00000000000E+00 -0.00000000000E+00 -0.45593999997E+02  0.45594000000E+02  0.51100000000E-03 0. -1.
    9900012    2    1    2    0    0 -0.18398232737E+02  0.11924954518E+02  0.34241306033E+02  0.50528849161E+02  0.29999967511E+02 0.  0.
         12    1    1    2    0    0  0.18398232737E+02 -0.11924954518E+02 -0.34241306033E+02  0.40659150839E+02  0.00000000000E+00 0. -1.
         11    1    3    3    0    0  0.52857002064E+01  0.52028550948E+01  0.10067075257E+02  0.12504172596E+02  0.51100000000E-03 0. -1.
        -11    1    3    3    0    0 -0.22973817508E+01  0.31759216295E+01  0.13114838934E+02  0.13688076623E+02  0.51100000000E-03 0.  1.
        -12    1    3    3    0    0 -0.21386551193E+02  0.35461777937E+01  0.11059391841E+02  0.24336599943E+02  0.00000000000E+00 0.  1.
</event>
<event>
 7    1  0.2755991E-011  0.5052885E+02  0.7816164E-02  0.1300439E+00
        -11   -1    0    0    0    0  0.00000000000E+00  0.00000000000E+00  0.45593999997E+02  0.45594000000E+02  0.51100000000E-03 0.  1.
         11   -1    0    0    0    0 -0.00000000000E+00 -0.00000000000E+00 -0.45593999997E+02  0.45594000000E+02  0.51100000000E-03 0. -1.
    9900012    2    1    2    0    0 -0.29267752407E+02  0.26245081642E+02 -0.10380775451E+02  0.50528854161E+02  0.29999982709E+02 0.  0.
         12    1    1    2    0    0  0.29267752407E+02 -0.26245081642E+02  0.10380775451E+02  0.40659145839E+02  0.00000000000E+00 0. -1.
         11    1    3    3    0    0 -0.19402694090E+02  0.20178289434E+02 -0.98291355485E+01  0.29668835641E+02  0.51100000000E-03 0. -1.
        -11    1    3    3    0    0 -0.12665812068E+02  0.37790690489E+01 -0.58425675333E+01  0.14451289003E+02  0.51100000000E-03 0.  1.
         12    1    3    3    0    0  0.28007537504E+01  0.22877231594E+01  0.52909276309E+01  0.64087295169E+01  0.00000000000E+00 0. -1.
</event>
<event>
 7    1  0.2755991E-011  0.5052886E+02  0.7816164E-02  0.1300439E+00
        -11   -1    0    0    0    0  0.00000000000E+00  0.00000000000E+00  0.45593999997E+02  0.45594000000E+02  0.51100000000E-03 0.  1.
         11   -1    0    0    0    0 -0.00000000000E+00 -0.00000000000E+00 -0.45593999997E+02  0.45594000000E+02  0.51100000000E-03 0. -1.
    9900012    2    1    2    0    0 -0.43831309897E+01  0.73509427091E+01  0.39748179164E+02  0.50528856590E+02  0.29999990091E+02 0.  0.
         12    1    1    2    0    0  0.43831309897E+01 -0.73509427091E+01 -0.39748179164E+02  0.40659143410E+02  0.00000000000E+00 0. -1.
         11    1    3    3    0    0 -0.16333620787E+02  0.49426516958E+01  0.14872450136E+02  0.22636403140E+02  0.51100000000E-03 0. -1.
        -11    1    3    3    0    0  0.59855485052E+00  0.90584132102E+00  0.31803382380E+01  0.33605606641E+01  0.51100000000E-03 0.  1.
         12    1    3    3    0    0  0.11351934947E+02  0.15024496923E+01  0.21695390790E+02  0.24531892786E+02  0.00000000000E+00 0. -1.
</event>
<event>
 7    1  0.2755991E-011  0.5052886E+02  0.7816164E-02  0.1300439E+00
        -11   -1    0    0    0    0  0.00000000000E+00  0.00000000000E+00  0.45593999997E+02  0.45594000000E+02  0.51100000000E-03 0.  1.
         11   -1    0    0    0    0 -0.00000000000E+00 -0.00000000000E+00 -0.45593999997E+02  0.45594000000E+02  0.51100000000E-03 0. -1.
    9900012    2    1    2    0    0 -0.24742366453E+02 -0.32016389847E+02 -0.39914918966E+01  0.50528856821E+02  0.29999990792E+02 0.  0.
         12    1    1    2    0    0  0.24742366453E+02  0.32016389847E+02  0.39914918966E+01  0.40659143179E+02  0.00000000000E+00 0. -1.
         11    1    3    3    0    0 -0.85521632636E+01 -0.52198327452E+01 -0.44036321191E+01  0.10944319370E+02  0.51100000000E-03 0. -1.
        -11    1    3    3    0    0 -0.16550418030E+02 -0.27229293621E+02 -0.66074347169E+01  0.32542417886E+02  0.51100000000E-03 0.  1.
        -12    1    3    3    0    0  0.36021484074E+00  0.43273651938E+00  0.70195749394E+01  0.70421195642E+01  0.00000000000E+00 0.  1.
</event>
<event>
 7    1  0.2755991E-011  0.5052886E+02  0.7816164E-02  0.1300439E+00
        -11   -1    0    0    0    0  0.00000000000E+00  0.00000000000E+00  0.45593999997E+02  0.45594000000E+02  0.51100000000E-03 0.  1.
         11   -1    0    0    0    0 -0.00000000000E+00 -0.00000000000E+00 -0.45593999997E+02  0.45594000000E+02  0.51100000000E-03 0. -1.
    9900012    2    1    2    0    0  0.30718953829E+02 -0.15552000335E+02  0.21625148878E+02  0.50528857083E+02  0.29999991591E+02 0.  0.
         12    1    1    2    0    0 -0.30718953829E+02  0.15552000335E+02 -0.21625148878E+02  0.40659142917E+02  0.00000000000E+00 0. -1.
         11    1    3    3    0    0  0.58545699792E+00  0.77802387813E+00  0.11655431970E+01  0.15187403519E+01  0.51100000000E-03 0. -1.
        -11    1    3    3    0    0  0.23298134090E+02  0.11613450266E+01  0.32772148298E+01  0.23556143819E+02  0.51100000000E-03 0.  1.
         12    1    3    3    0    0  0.68353627408E+01 -0.17491369239E+02  0.17182390851E+02  0.25453972912E+02  0.00000000000E+00 0. -1.
</event>
<event>
 7    1  0.2755991E-011  0.5052886E+02  0.7816164E-02  0.1300439E+00
        -11   -1    0    0    0    0  0.00000000000E+00  0.00000000000E+00  0.45593999997E+02  0.45594000000E+02  0.51100000000E-03 0.  1.
         11   -1    0    0    0    0 -0.00000000000E+00 -0.00000000000E+00 -0.45593999997E+02  0.45594000000E+02  0.51100000000E-03 0. -1.
    9900012    2    1    2    0    0 -0.69259720242E+01  0.16518484043E+02  0.36501181095E+02  0.50528860500E+02  0.30000001975E+02 0.  0.
         12    1    1    2    0    0  0.69259720242E+01 -0.16518484043E+02 -0.36501181095E+02  0.40659139500E+02  0.00000000000E+00 0. -1.
         11    1    3    3    0    0  0.38419387949E+01  0.35793096844E+01  0.35209245888E+01  0.63220931456E+01  0.51100000000E-03 0. -1.
        -11    1    3    3    0    0  0.64403082687E+01  0.10047109690E+02  0.12098277856E+02  0.16993831559E+02  0.51100000000E-03 0.  1.
         12    1    3    3    0    0 -0.17208219088E+02  0.28920646687E+01  0.20881978651E+02  0.27212935795E+02  0.00000000000E+00 0. -1.
</event>
<event>
 7    1  0.2755991E-011  0.5052887E+02  0.7816164E-02  0.1300439E+00
        -11   -1    0    0    0    0  0.00000000000E+00  0.00000000000E+00  0.45593999997E+02  0.45594000000E+02  0.51100000000E-03 0.  1.
         11   -1    0    0    0    0 -0.00000000000E+00 -0.00000000000E+00 -0.45593999997E+02  0.45594000000E+02  0.51100000000E-03 0. -1.
    9900012    2    1    2    0    0  0.29164203169E+02 -0.19359149142E+02 -0.20684223340E+02  0.50528874368E+02  0.30000044129E+02 0.  0.
         12    1    1    2    0    0 -0.29164203169E+02  0.19359149142E+02  0.20684223340E+02  0.40659125632E+02  0.00000000000E+00 0. -1.
         11    1    3    3    0    0 -0.32948981399E+00 -0.10784977461E+02 -0.74609889090E+01  0.13118332902E+02  0.51100000000E-03 0. -1.
        -11    1    3    3    0    0  0.39074782773E+01 -0.85199522695E+01 -0.43045291997E+01  0.10314404736E+02  0.51100000000E-03 0.  1.
        -12    1    3    3    0    0  0.25586214706E+02 -0.54219412151E-01 -0.89187052309E+01  0.27096136730E+02  0.00000000000E+00 0.  1.
</event>
<event>
 7    1  0.2755991E-011  0.5052886E+02  0.7816164E-02  0.1300439E+00
        -11   -1    0    0    0    0  0.00000000000E+00  0.00000000000E+00  0.45593999997E+02  0.45594000000E+02  0.51100000000E-03 0.  1.
         11   -1    0    0    0    0 -0.00000000000E+00 -0.00000000000E+00 -0.45593999997E+02  0.45594000000E+02  0.51100000000E-03 0. -1.
    9900012    2    1    2    0    0  0.24994595967E+02  0.19428170550E+02  0.25514353139E+02  0.50528857675E+02  0.29999993390E+02 0.  0.
         12    1    1    2    0    0 -0.24994595967E+02 -0.19428170550E+02 -0.25514353139E+02  0.40659142325E+02  0.00000000000E+00 0. -1.
         11    1    3    3    0    0  0.42035437487E+01 -0.10149980627E+01 -0.97796081270E+00  0.44335548635E+01  0.51100000000E-03 0. -1.
        -11    1    3    3    0    0  0.17200669359E+01 -0.44466732635E+01 -0.40293748711E+00  0.47847562379E+01  0.51100000000E-03 0.  1.
        -12    1    3    3    0    0  0.19070985282E+02  0.24889841876E+02  0.26895251439E+02  0.41310546574E+02  0.00000000000E+00 0.  1.
</event>
<event>
 7    1  0.2755991E-011  0.5052886E+02  0.7816164E-02  0.1300439E+00
        -11   -1    0    0    0    0  0.00000000000E+00  0.00000000000E+00  0.45593999997E+02  0.45594000000E+02  0.51100000000E-03 0. -1.
         11   -1    0    0    0    0 -0.00000000000E+00 -0.00000000000E+00 -0.45593999997E+02  0.45594000000E+02  0.51100000000E-03 0.  1.
    9900012    2    1    2    0    0 -0.36775400205E+02  0.12458897003E+02 -0.12062816523E+02  0.50528859364E+02  0.29999998522E+02 0.  0.
         12    1    1    2    0    0  0.36775400205E+02 -0.12458897003E+02  0.12062816523E+02  0.40659140636E+02  0.00000000000E+00 0. -1.
         11    1    3    3    0    0 -0.10140911869E+01  0.41168634686E+00 -0.95429131941E+01  0.96054702683E+01  0.51100000000E-03 0. -1.
        -11    1    3    3    0    0 -0.24005309017E+02  0.36413075263E+01 -0.78536021823E+01  0.25518484457E+02  0.51100000000E-03 0.  1.
        -12    1    3    3    0    0 -0.11756000001E+02  0.84059031294E+01  0.53336988529E+01  0.15404904638E+02  0.00000000000E+00 0.  1.
</event>
<event>
 7    1  0.2755991E-011  0.5052886E+02  0.7816164E-02  0.1300439E+00
        -11   -1    0    0    0    0  0.00000000000E+00  0.00000000000E+00  0.45593999997E+02  0.45594000000E+02  0.51100000000E-03 0.  1.
         11   -1    0    0    0    0 -0.00000000000E+00 -0.00000000000E+00 -0.45593999997E+02  0.45594000000E+02  0.51100000000E-03 0. -1.
    9900012    2    1    2    0    0  0.79988749473E+00  0.12066128604E+02  0.38819248394E+02  0.50528864183E+02  0.30000013170E+02 0.  0.
         12    1    1    2    0    0 -0.79988749473E+00 -0.12066128604E+02 -0.38819248394E+02  0.40659135817E+02  0.00000000000E+00 0. -1.
         11    1    3    3    0    0  0.66756703763E+01  0.71001893933E+01  0.17622518722E+02  0.20137786144E+02  0.51100000000E-03 0.  1.
        -11    1    3    3    0    0 -0.13147745440E+02  0.39717762592E+01  0.17274713824E+02  0.22069298918E+02  0.51100000000E-03 0. -1.
         12    1    3    3    0    0  0.72719625580E+01  0.99416295167E+00  0.39220158487E+01  0.83217791208E+01  0.00000000000E+00 0. -1.
</event>
<event>
 7    1  0.2755991E-011  0.5052884E+02  0.7816164E-02  0.1300439E+00
        -11   -1    0    0    0    0  0.00000000000E+00  0.00000000000E+00  0.45593999997E+02  0.45594000000E+02  0.51100000000E-03 0.  1.
         11   -1    0    0    0    0 -0.00000000000E+00 -0.00000000000E+00 -0.45593999997E+02  0.45594000000E+02  0.51100000000E-03 0. -1.
    9900012    2    1    2    0    0  0.43018745527E+01 -0.19141640083E+02  0.35612619007E+02  0.50528841840E+02  0.29999945256E+02 0.  0.
         12    1    1    2    0    0 -0.43018745527E+01  0.19141640083E+02 -0.35612619007E+02  0.40659158160E+02  0.00000000000E+00 0. -1.
         11    1    3    3    0    0 -0.88479177407E+00 -0.48462010445E+01  0.49376613615E+00  0.49509924566E+01  0.51100000000E-03 0. -1.
        -11    1    3    3    0    0 -0.54761167504E+01 -0.17137195499E+02  0.22695006504E+02  0.28960915813E+02  0.51100000000E-03 0.  1.
         12    1    3    3    0    0  0.10662783077E+02  0.28417564603E+01  0.12423846367E+02  0.16616933570E+02  0.00000000000E+00 0. -1.
</event>
<event>
 7    1  0.2755991E-011  0.5052884E+02  0.7816164E-02  0.1300439E+00
        -11   -1    0    0    0    0  0.00000000000E+00  0.00000000000E+00  0.45593999997E+02  0.45594000000E+02  0.51100000000E-03 0. -1.
         11   -1    0    0    0    0 -0.00000000000E+00 -0.00000000000E+00 -0.45593999997E+02  0.45594000000E+02  0.51100000000E-03 0.  1.
    9900012    2    1    2    0    0  0.34529800588E+02  0.85663856294E+01 -0.19684446369E+02  0.50528837192E+02  0.29999931130E+02 0.  0.
         12    1    1    2    0    0 -0.34529800588E+02 -0.85663856294E+01  0.19684446369E+02  0.40659162808E+02  0.00000000000E+00 0. -1.
         11    1    3    3    0    0  0.51795135175E+01  0.84865053855E+01 -0.26846241335E+01  0.10298317384E+02  0.51100000000E-03 0. -1.
        -11    1    3    3    0    0  0.14995737154E+02  0.10147378362E+02 -0.43817144856E+01  0.18629032248E+02  0.51100000000E-03 0.  1.
        -12    1    3    3    0    0  0.14354549917E+02 -0.10067498118E+02 -0.12618107750E+02  0.21601487561E+02  0.00000000000E+00 0.  1.
</event>
<event>
 7    1  0.2755991E-011  0.5052887E+02  0.7816164E-02  0.1300439E+00
        -11   -1    0    0    0    0  0.00000000000E+00  0.00000000000E+00  0.45593999997E+02  0.45594000000E+02  0.51100000000E-03 0.  1.
         11   -1    0    0    0    0 -0.00000000000E+00 -0.00000000000E+00 -0.45593999997E+02  0.45594000000E+02  0.51100000000E-03 0. -1.
    9900012    2    1    2    0    0 -0.93162754402E+01 -0.30611270032E+02  0.25086297732E+02  0.50528866033E+02  0.30000018794E+02 0.  0.
         12    1    1    2    0    0  0.93162754402E+01  0.30611270032E+02 -0.25086297732E+02  0.40659133967E+02  0.00000000000E+00 0. -1.
         11    1    3    3    0    0 -0.40690869313E+01 -0.30594849994E+01  0.86744449466E+00  0.51643370464E+01  0.51100000000E-03 0. -1.
        -11    1    3    3    0    0 -0.12220980444E+01  0.50329833132E+01  0.13489510679E+01  0.53520196100E+01  0.51100000000E-03 0.  1.
        -12    1    3    3    0    0 -0.40250904644E+01 -0.32584768345E+02  0.22869902170E+02  0.40012509377E+02  0.00000000000E+00 0.  1.
</event>
<event>
 7    1  0.2755991E-011  0.5052886E+02  0.7816164E-02  0.1300439E+00
        -11   -1    0    0    0    0  0.00000000000E+00  0.00000000000E+00  0.45593999997E+02  0.45594000000E+02  0.51100000000E-03 0.  1.
         11   -1    0    0    0    0 -0.00000000000E+00 -0.00000000000E+00 -0.45593999997E+02  0.45594000000E+02  0.51100000000E-03 0. -1.
    9900012    2    1    2    0    0  0.15933004132E+02 -0.36851300024E+02  0.64254979043E+01  0.50528856411E+02  0.29999989546E+02 0.  0.
         12    1    1    2    0    0 -0.15933004132E+02  0.36851300024E+02 -0.64254979043E+01  0.40659143589E+02  0.00000000000E+00 0. -1.
         11    1    3    3    0    0 -0.36528454433E+01 -0.60731522275E+01 -0.65912005782E+01  0.96783460950E+01  0.51100000000E-03 0. -1.
        -11    1    3    3    0    0  0.59591592234E+00  0.10866519560E+01  0.16305849789E+01  0.20481054403E+01  0.51100000000E-03 0.  1.
        -12    1    3    3    0    0  0.18989933653E+02 -0.31864799752E+02  0.11386113504E+02  0.38802404875E+02  0.00000000000E+00 0.  1.
</event>
<event>
 7    1  0.2755991E-011  0.5052886E+02  0.7816164E-02  0.1300439E+00
        -11   -1    0    0    0    0  0.00000000000E+00  0.00000000000E+00  0.45593999997E+02  0.45594000000E+02  0.51100000000E-03 0. -1.
         11   -1    0    0    0    0 -0.00000000000E+00 -0.00000000000E+00 -0.45593999997E+02  0.45594000000E+02  0.51100000000E-03 0.  1.
    9900012    2    1    2    0    0  0.66120347962E+01  0.73471581847E+01 -0.39439394730E+02  0.50528860877E+02  0.30000003123E+02 0.  0.
         12    1    1    2    0    0 -0.66120347962E+01 -0.73471581847E+01  0.39439394730E+02  0.40659139123E+02  0.00000000000E+00 0. -1.
         11    1    3    3    0    0  0.37630266325E+01 -0.51877506637E+01 -0.17266442921E+02  0.18417469364E+02  0.51100000000E-03 0. -1.
        -11    1    3    3    0    0 -0.11253409160E+01 -0.26803165635E+00  0.32066126514E+01  0.34088998377E+01  0.51100000000E-03 0.  1.
        -12    1    3    3    0    0  0.39743490798E+01  0.12802940505E+02 -0.25379564461E+02  0.28702491676E+02  0.00000000000E+00 0.  1.
</event>
<event>
 7    1  0.2755991E-011  0.5052886E+02  0.7816164E-02  0.1300439E+00
        -11   -1    0    0    0    0  0.00000000000E+00  0.00000000000E+00  0.45593999997E+02  0.45594000000E+02  0.51100000000E-03 0.  1.
         11   -1    0    0    0    0 -0.00000000000E+00 -0.00000000000E+00 -0.45593999997E+02  0.45594000000E+02  0.51100000000E-03 0. -1.
    9900012    2    1    2    0    0  0.42456993392E+01 -0.41621130777E+01  0.40222086788E+02  0.50528863097E+02  0.30000009869E+02 0.  0.
         12    1    1    2    0    0 -0.42456993392E+01  0.41621130777E+01 -0.40222086788E+02  0.40659136903E+02  0.00000000000E+00 0. -1.
         11    1    3    3    0    0 -0.27050551737E+01 -0.31765647831E+01  0.47032681769E+01  0.62871789476E+01  0.51100000000E-03 0. -1.
        -11    1    3    3    0    0 -0.35117454421E+01  0.57872234774E+01  0.18249176889E+00  0.67718250962E+01  0.51100000000E-03 0.  1.
        -12    1    3    3    0    0  0.10462499955E+02 -0.67727717719E+01  0.35336326842E+02  0.37469859053E+02  0.00000000000E+00 0.  1.
</event>
<event>
 7    1  0.2755991E-011  0.5052888E+02  0.7816164E-02  0.1300439E+00
        -11   -1    0    0    0    0  0.00000000000E+00  0.00000000000E+00  0.45593999997E+02  0.45594000000E+02  0.51100000000E-03 0. -1.
         11   -1    0    0    0    0 -0.00000000000E+00 -0.00000000000E+00 -0.45593999997E+02  0.45594000000E+02  0.51100000000E-03 0.  1.
    9900012    2    1    2    0    0 -0.10242991060E+02 -0.12940222281E+02 -0.37159065594E+02  0.50528875878E+02  0.30000048719E+02 0.  0.
         12    1    1    2    0    0  0.10242991060E+02  0.12940222281E+02  0.37159065594E+02  0.40659124122E+02  0.00000000000E+00 0. -1.
         11    1    3    3    0    0  0.21952940625E+01  0.27746838815E+01  0.25138700081E+01  0.43402453090E+01  0.51100000000E-03 0. -1.
        -11    1    3    3    0    0 -0.95278300645E+01 -0.37954744229E+01 -0.25246535295E+02  0.27250187458E+02  0.51100000000E-03 0.  1.
        -12    1    3    3    0    0 -0.29104550585E+01 -0.11919431740E+02 -0.14426400307E+02  0.18938443111E+02  0.00000000000E+00 0.  1.
</event>
<event>
 7    1  0.2755991E-011  0.5052889E+02  0.7816164E-02  0.1300439E+00
        -11   -1    0    0    0    0  0.00000000000E+00  0.00000000000E+00  0.45593999997E+02  0.45594000000E+02  0.51100000000E-03 0.  1.
         11   -1    0    0    0    0 -0.00000000000E+00 -0.00000000000E+00 -0.45593999997E+02  0.45594000000E+02  0.51100000000E-03 0. -1.
    9900012    2    1    2    0    0  0.32717176958E+02  0.23740682302E+02  0.43736891775E+01  0.50528894977E+02  0.30000106772E+02 0.  0.
         12    1    1    2    0    0 -0.32717176958E+02 -0.23740682302E+02 -0.43736891775E+01  0.40659105023E+02  0.00000000000E+00 0. -1.
         11    1    3    3    0    0  0.35055891478E+01  0.21310819903E+01  0.20063525568E+01  0.45668497419E+01  0.51100000000E-03 0.  1.
        -11    1    3    3    0    0  0.49017631878E+01  0.47745927900E+01  0.12875107492E+02  0.14580549093E+02  0.51100000000E-03 0. -1.
         12    1    3    3    0    0  0.24309824622E+02  0.16835007521E+02 -0.10507770871E+02  0.31381496142E+02  0.00000000000E+00 0. -1.
</event>
<event>
 7    1  0.2755991E-011  0.5052885E+02  0.7816164E-02  0.1300439E+00
        -11   -1    0    0    0    0  0.00000000000E+00  0.00000000000E+00  0.45593999997E+02  0.45594000000E+02  0.51100000000E-03 0.  1.
         11   -1    0    0    0    0 -0.00000000000E+00 -0.00000000000E+00 -0.45593999997E+02  0.45594000000E+02  0.51100000000E-03 0. -1.
    9900012    2    1    2    0    0  0.34379519510E+02 -0.16367889883E+02  0.14258578614E+02  0.50528852873E+02  0.29999978794E+02 0.  0.
         12    1    1    2    0    0 -0.34379519510E+02  0.16367889883E+02 -0.14258578614E+02  0.40659147127E+02  0.00000000000E+00 0. -1.
         11    1    3    3    0    0  0.74248239443E+01  0.57240928437E+01  0.27285175283E+00  0.93791096500E+01  0.51100000000E-03 0. -1.
        -11    1    3    3    0    0  0.19610238590E+02 -0.22983054255E+02  0.70833173916E+01  0.31031526324E+02  0.51100000000E-03 0.  1.
         12    1    3    3    0    0  0.73444569761E+01  0.89107152898E+00  0.69024094694E+01  0.10118216900E+02  0.00000000000E+00 0. -1.
</event>
<event>
 7    1  0.2755991E-011  0.5052885E+02  0.7816164E-02  0.1300439E+00
        -11   -1    0    0    0    0  0.00000000000E+00  0.00000000000E+00  0.45593999997E+02  0.45594000000E+02  0.51100000000E-03 0.  1.
         11   -1    0    0    0    0 -0.00000000000E+00 -0.00000000000E+00 -0.45593999997E+02  0.45594000000E+02  0.51100000000E-03 0. -1.
    9900012    2    1    2    0    0  0.33175850045E+02 -0.10402466966E+02  0.21078857537E+02  0.50528848752E+02  0.29999966266E+02 0.  0.
         12    1    1    2    0    0 -0.33175850045E+02  0.10402466966E+02 -0.21078857537E+02  0.40659151248E+02  0.00000000000E+00 0. -1.
         11    1    3    3    0    0  0.15589272292E+02 -0.95037908915E+01  0.10775224262E+01  0.18289573717E+02  0.51100000000E-03 0.  1.
        -11    1    3    3    0    0  0.13772845606E+02  0.39348097666E+01  0.36709596522E+01  0.14786816730E+02  0.51100000000E-03 0. -1.
         12    1    3    3    0    0  0.38137321470E+01 -0.48334858411E+01  0.16330375459E+02  0.17452458305E+02  0.00000000000E+00 0. -1.
</event>
<event>
 7    1  0.2755991E-011  0.5052879E+02  0.7816164E-02  0.1300439E+00
        -11   -1    0    0    0    0  0.00000000000E+00  0.00000000000E+00  0.45593999997E+02  0.45594000000E+02  0.51100000000E-03 0.  1.
         11   -1    0    0    0    0 -0.00000000000E+00 -0.00000000000E+00 -0.45593999997E+02  0.45594000000E+02  0.51100000000E-03 0. -1.
    9900012    2    1    2    0    0 -0.26379615813E+02  0.20610759418E+02  0.23075614829E+02  0.50528787834E+02  0.29999781098E+02 0.  0.
         12    1    1    2    0    0  0.26379615813E+02 -0.20610759418E+02 -0.23075614829E+02  0.40659212166E+02  0.00000000000E+00 0. -1.
         11    1    3    3    0    0  0.12487737219E+01  0.33645842412E+01  0.28543432992E+01  0.45855358308E+01  0.51100000000E-03 0. -1.
        -11    1    3    3    0    0  0.27409399733E+01  0.79661743831E+01  0.24708368545E+00  0.84281514491E+01  0.51100000000E-03 0.  1.
        -12    1    3    3    0    0 -0.30369329508E+02  0.92800007941E+01  0.19974187845E+02  0.37515100554E+02  0.00000000000E+00 0.  1.
</event>
<event>
 7    1  0.2755991E-011  0.5052887E+02  0.7816164E-02  0.1300439E+00
        -11   -1    0    0    0    0  0.00000000000E+00  0.00000000000E+00  0.45593999997E+02  0.45594000000E+02  0.51100000000E-03 0. -1.
         11   -1    0    0    0    0 -0.00000000000E+00 -0.00000000000E+00 -0.45593999997E+02  0.45594000000E+02  0.51100000000E-03 0.  1.
    9900012    2    1    2    0    0  0.41038276537E+01 -0.36412989106E+02  0.17618683197E+02  0.50528866037E+02  0.30000018806E+02 0.  0.
         12    1    1    2    0    0 -0.41038276537E+01  0.36412989106E+02 -0.17618683197E+02  0.40659133963E+02  0.00000000000E+00 0. -1.
         11    1    3    3    0    0  0.89686518951E+01 -0.86753833060E+01  0.60722494591E+01  0.13877002777E+02  0.51100000000E-03 0. -1.
        -11    1    3    3    0    0 -0.36582486229E+01 -0.28724271814E+02  0.43411098145E+01  0.29279887447E+02  0.51100000000E-03 0.  1.
         12    1    3    3    0    0 -0.12065756186E+01  0.98666601369E+00  0.72053239234E+01  0.73719758130E+01  0.00000000000E+00 0. -1.
</event>
<event>
 7    1  0.2755991E-011  0.5052888E+02  0.7816164E-02  0.1300439E+00
        -11   -1    0    0    0    0  0.00000000000E+00  0.00000000000E+00  0.45593999997E+02  0.45594000000E+02  0.51100000000E-03 0. -1.
         11   -1    0    0    0    0 -0.00000000000E+00 -0.00000000000E+00 -0.45593999997E+02  0.45594000000E+02  0.51100000000E-03 0.  1.
    9900012    2    1    2    0    0 -0.63866900010E+01  0.20356799944E+02 -0.34611776580E+02  0.50528878131E+02  0.30000055566E+02 0.  0.
         12    1    1    2    0    0  0.63866900010E+01 -0.20356799944E+02  0.34611776580E+02  0.40659121869E+02  0.00000000000E+00 0. -1.
         11    1    3    3    0    0 -0.11087598706E+02  0.86603075764E+01 -0.40107783088E+01  0.14629494704E+02  0.51100000000E-03 0. -1.
        -11    1    3    3    0    0  0.50400075881E+00  0.60723505986E+01 -0.19442203589E+01  0.63958933405E+01  0.51100000000E-03 0.  1.
        -12    1    3    3    0    0  0.41969079465E+01  0.56241417690E+01 -0.28656777913E+02  0.29503490086E+02  0.00000000000E+00 0.  1.
</event>
<event>
 7    1  0.2755991E-011  0.5052887E+02  0.7816164E-02  0.1300439E+00
        -11   -1    0    0    0    0  0.00000000000E+00  0.00000000000E+00  0.45593999997E+02  0.45594000000E+02  0.51100000000E-03 0. -1.
         11   -1    0    0    0    0 -0.00000000000E+00 -0.00000000000E+00 -0.45593999997E+02  0.45594000000E+02  0.51100000000E-03 0.  1.
    9900012    2    1    2    0    0  0.27112984340E+02 -0.22654526173E+02 -0.20120220368E+02  0.50528871338E+02  0.30000034919E+02 0.  0.
         12    1    1    2    0    0 -0.27112984340E+02  0.22654526173E+02  0.20120220368E+02  0.40659128662E+02  0.00000000000E+00 0. -1.
         11    1    3    3    0    0  0.49682691907E+01  0.20439145214E+01  0.14580443020E+01  0.55666128633E+01  0.51100000000E-03 0. -1.
        -11    1    3    3    0    0  0.41428873530E+01 -0.56520018100E+01  0.42259235674E+01  0.81833410255E+01  0.51100000000E-03 0.  1.
         12    1    3    3    0    0  0.18001827796E+02 -0.19046438884E+02 -0.25804188237E+02  0.36778917449E+02  0.00000000000E+00 0. -1.
</event>
<event>
 7    1  0.2755991E-011  0.5052886E+02  0.7816164E-02  0.1300439E+00
        -11   -1    0    0    0    0  0.00000000000E+00  0.00000000000E+00  0.45593999997E+02  0.45594000000E+02  0.51100000000E-03 0. -1.
         11   -1    0    0    0    0 -0.00000000000E+00 -0.00000000000E+00 -0.45593999997E+02  0.45594000000E+02  0.51100000000E-03 0.  1.
    9900012    2    1    2    0    0  0.20822233099E+02  0.31018846931E+02 -0.16044662737E+02  0.50528862546E+02  0.30000008194E+02 0.  0.
         12    1    1    2    0    0 -0.20822233099E+02 -0.31018846931E+02  0.16044662737E+02  0.40659137454E+02  0.00000000000E+00 0. -1.
         11    1    3    3    0    0  0.80012238738E+01  0.15080973676E+02 -0.18216525880E+02  0.24965920089E+02  0.51100000000E-03 0.  1.
        -11    1    3    3    0    0 -0.40116756217E+00  0.11075603050E+02  0.29009340418E+01  0.11456235722E+02  0.51100000000E-03 0. -1.
        -12    1    3    3    0    0  0.13222176787E+02  0.48622702052E+01 -0.72907089935E+00  0.14106706735E+02  0.00000000000E+00 0.  1.
</event>
<event>
 7    1  0.2755991E-011  0.5052886E+02  0.7816164E-02  0.1300439E+00
        -11   -1    0    0    0    0  0.00000000000E+00  0.00000000000E+00  0.45593999997E+02  0.45594000000E+02  0.51100000000E-03 0.  1.
         11   -1    0    0    0    0 -0.00000000000E+00 -0.00000000000E+00 -0.45593999997E+02  0.45594000000E+02  0.51100000000E-03 0. -1.
    9900012    2    1    2    0    0 -0.39638014559E+02  0.49054313776E+01 -0.76112091167E+01  0.50528856387E+02  0.29999989473E+02 0.  0.
         12    1    1    2    0    0  0.39638014559E+02 -0.49054313776E+01  0.76112091167E+01  0.40659143613E+02  0.00000000000E+00 0. -1.
         11    1    3    3    0    0 -0.68363260226E+01 -0.13422464982E+01  0.30936830876E+01  0.76228508090E+01  0.51100000000E-03 0.  1.
        -11    1    3    3    0    0  0.33285065553E+01  0.38652535335E+01 -0.28932077332E+01  0.58642810314E+01  0.51100000000E-03 0. -1.
         12    1    3    3    0    0 -0.36130195091E+02  0.23824243423E+01 -0.78116844711E+01  0.37041724546E+02  0.00000000000E+00 0. -1.
</event>
<event>
 7    1  0.2755991E-011  0.5052886E+02  0.7816164E-02  0.1300439E+00
        -11   -1    0    0    0    0  0.00000000000E+00  0.00000000000E+00  0.45593999997E+02  0.45594000000E+02  0.51100000000E-03 0.  1.
         11   -1    0    0    0    0 -0.00000000000E+00 -0.00000000000E+00 -0.45593999997E+02  0.45594000000E+02  0.51100000000E-03 0. -1.
    9900012    2    1    2    0    0 -0.12882381169E+02 -0.40258633106E+01  0.38353645605E+02  0.50528862636E+02  0.30000008468E+02 0.  0.
         12    1    1    2    0    0  0.12882381169E+02  0.40258633106E+01 -0.38353645605E+02  0.40659137364E+02  0.00000000000E+00 0. -1.
         11    1    3    3    0    0 -0.53539270527E+01  0.17605931651E+01 -0.29526146017E+00  0.56437047026E+01  0.51100000000E-03 0. -1.
        -11    1    3    3    0    0 -0.38190836390E+01 -0.76704977602E+01  0.31284841893E+01  0.91219158797E+01  0.51100000000E-03 0.  1.
        -12    1    3    3    0    0 -0.37093704772E+01  0.18840412846E+01  0.35520422876E+02  0.35763242054E+02  0.00000000000E+00 0.  1.
</event>
<event>
 7    1  0.2755991E-011  0.5052886E+02  0.7816164E-02  0.1300439E+00
        -11   -1    0    0    0    0  0.00000000000E+00  0.00000000000E+00  0.45593999997E+02  0.45594000000E+02  0.51100000000E-03 0. -1.
         11   -1    0    0    0    0 -0.00000000000E+00 -0.00000000000E+00 -0.45593999997E+02  0.45594000000E+02  0.51100000000E-03 0.  1.
    9900012    2    1    2    0    0 -0.16359423759E+02  0.11302727541E+02 -0.35465236281E+02  0.50528863511E+02  0.30000011127E+02 0.  0.
         12    1    1    2    0    0  0.16359423759E+02 -0.11302727541E+02  0.35465236281E+02  0.40659136489E+02  0.00000000000E+00 0. -1.
         11    1    3    3    0    0 -0.97465063319E+01 -0.41062467697E+01 -0.14983410201E+02  0.18340071693E+02  0.51100000000E-03 0. -1.
        -11    1    3    3    0    0  0.12027783588E+01 -0.10762106505E+01 -0.11932052792E+02  0.12040713817E+02  0.51100000000E-03 0.  1.
         12    1    3    3    0    0 -0.78156957859E+01  0.16485184961E+02 -0.85497732882E+01  0.20148078000E+02  0.00000000000E+00 0. -1.
</event>
<event>
 7    1  0.2755991E-011  0.5052887E+02  0.7816164E-02  0.1300439E+00
        -11   -1    0    0    0    0  0.00000000000E+00  0.00000000000E+00  0.45593999997E+02  0.45594000000E+02  0.51100000000E-03 0.  1.
         11   -1    0    0    0    0 -0.00000000000E+00 -0.00000000000E+00 -0.45593999997E+02  0.45594000000E+02  0.51100000000E-03 0. -1.
    9900012    2    1    2    0    0  0.19154077559E+02  0.19785079433E+02  0.29913829573E+02  0.50528865048E+02  0.30000015799E+02 0.  0.
         12    1    1    2    0    0 -0.19154077559E+02 -0.19785079433E+02 -0.29913829573E+02  0.40659134952E+02  0.00000000000E+00 0. -1.
         11    1    3    3    0    0  0.26870563692E+01  0.12072476420E+02  0.11591701449E+02  0.16950884980E+02  0.51100000000E-03 0. -1.
        -11    1    3    3    0    0  0.12973141312E+02  0.14170159013E+02  0.17843958233E+02  0.26220271693E+02  0.51100000000E-03 0.  1.
         12    1    3    3    0    0  0.34938798784E+01 -0.64575559999E+01  0.47816989082E+00  0.73577083757E+01  0.00000000000E+00 0. -1.
</event>
<event>
 7    1  0.2755991E-011  0.5052886E+02  0.7816164E-02  0.1300439E+00
        -11   -1    0    0    0    0  0.00000000000E+00  0.00000000000E+00  0.45593999997E+02  0.45594000000E+02  0.51100000000E-03 0.  1.
         11   -1    0    0    0    0 -0.00000000000E+00 -0.00000000000E+00 -0.45593999997E+02  0.45594000000E+02  0.51100000000E-03 0. -1.
    9900012    2    1    2    0    0 -0.36047974019E+02  0.31714713719E+00  0.18804481662E+02  0.50528861497E+02  0.30000005008E+02 0.  0.
         12    1    1    2    0    0  0.36047974019E+02 -0.31714713719E+00 -0.18804481662E+02  0.40659138503E+02  0.00000000000E+00 0. -1.
         11    1    3    3    0    0 -0.36458029379E+01 -0.62999419349E+01 -0.29703490940E+01  0.78615597337E+01  0.51100000000E-03 0. -1.
        -11    1    3    3    0    0 -0.13931220696E+02 -0.35918786410E+01  0.36365015270E+01  0.14839293982E+02  0.51100000000E-03 0.  1.
        -12    1    3    3    0    0 -0.18470950385E+02  0.10208967713E+02  0.18138329229E+02  0.27828007782E+02  0.00000000000E+00 0.  1.
</event>
<event>
 7    1  0.2755991E-011  0.5052886E+02  0.7816164E-02  0.1300439E+00
        -11   -1    0    0    0    0  0.00000000000E+00  0.00000000000E+00  0.45593999997E+02  0.45594000000E+02  0.51100000000E-03 0.  1.
         11   -1    0    0    0    0 -0.00000000000E+00 -0.00000000000E+00 -0.45593999997E+02  0.45594000000E+02  0.51100000000E-03 0. -1.
    9900012    2    1    2    0    0  0.38710260343E+02 -0.11381279024E+02 -0.50147392407E+01  0.50528863540E+02  0.30000011216E+02 0.  0.
         12    1    1    2    0    0 -0.38710260343E+02  0.11381279024E+02  0.50147392407E+01  0.40659136460E+02  0.00000000000E+00 0. -1.
         11    1    3    3    0    0  0.44476413471E+01 -0.15331706942E+01 -0.47494591447E+01  0.66850196977E+01  0.51100000000E-03 0. -1.
        -11    1    3    3    0    0 -0.14542865591E+01 -0.79344871916E+01  0.28070677218E+00  0.80715446441E+01  0.51100000000E-03 0.  1.
        -12    1    3    3    0    0  0.35716905555E+02 -0.19136211387E+01 -0.54598686815E+00  0.35772299198E+02  0.00000000000E+00 0.  1.
</event>
<event>
 7    1  0.2755991E-011  0.5052885E+02  0.7816164E-02  0.1300439E+00
        -11   -1    0    0    0    0  0.00000000000E+00  0.00000000000E+00  0.45593999997E+02  0.45594000000E+02  0.51100000000E-03 0. -1.
         11   -1    0    0    0    0 -0.00000000000E+00 -0.00000000000E+00 -0.45593999997E+02  0.45594000000E+02  0.51100000000E-03 0.  1.
    9900012    2    1    2    0    0 -0.69906313108E+01 -0.12326722463E+02 -0.38109705466E+02  0.50528847727E+02  0.29999963152E+02 0.  0.
         12    1    1    2    0    0  0.69906313108E+01  0.12326722463E+02  0.38109705466E+02  0.40659152273E+02  0.00000000000E+00 0. -1.
         11    1    3    3    0    0 -0.33597410548E+01 -0.81295096918E+01 -0.22693778799E+02  0.24338947887E+02  0.51100000000E-03 0. -1.
        -11    1    3    3    0    0 -0.57005709480E+01 -0.11201869828E+02 -0.13881751092E+02  0.18726489538E+02  0.51100000000E-03 0.  1.
         12    1    3    3    0    0  0.20696806920E+01  0.70046570567E+01 -0.15341755750E+01  0.74634103025E+01  0.00000000000E+00 0. -1.
</event>
<event>
 7    1  0.2755991E-011  0.5052886E+02  0.7816164E-02  0.1300439E+00
        -11   -1    0    0    0    0  0.00000000000E+00  0.00000000000E+00  0.45593999997E+02  0.45594000000E+02  0.51100000000E-03 0.  1.
         11   -1    0    0    0    0 -0.00000000000E+00 -0.00000000000E+00 -0.45593999997E+02  0.45594000000E+02  0.51100000000E-03 0. -1.
    9900012    2    1    2    0    0  0.27773537182E+02 -0.22150717999E+02  0.19777314545E+02  0.50528857780E+02  0.29999993708E+02 0.  0.
         12    1    1    2    0    0 -0.27773537182E+02  0.22150717999E+02 -0.19777314545E+02  0.40659142220E+02  0.00000000000E+00 0. -1.
         11    1    3    3    0    0  0.19247975678E+02 -0.14859752494E+01  0.12005817282E+02  0.22733946842E+02  0.51100000000E-03 0. -1.
        -11    1    3    3    0    0  0.51854907447E+01 -0.17372611854E+02 -0.66535668073E+00  0.18142206500E+02  0.51100000000E-03 0.  1.
         12    1    3    3    0    0  0.33400707591E+01 -0.32921308949E+01  0.84368539443E+01  0.96527044388E+01  0.00000000000E+00 0. -1.
</event>
<event>
 7    1  0.2755991E-011  0.5052886E+02  0.7816164E-02  0.1300439E+00
        -11   -1    0    0    0    0  0.00000000000E+00  0.00000000000E+00  0.45593999997E+02  0.45594000000E+02  0.51100000000E-03 0.  1.
         11   -1    0    0    0    0 -0.00000000000E+00 -0.00000000000E+00 -0.45593999997E+02  0.45594000000E+02  0.51100000000E-03 0. -1.
    9900012    2    1    2    0    0  0.30017897993E+02  0.24445579221E+02  0.12429996106E+02  0.50528863923E+02  0.30000012379E+02 0.  0.
         12    1    1    2    0    0 -0.30017897993E+02 -0.24445579221E+02 -0.12429996106E+02  0.40659136077E+02  0.00000000000E+00 0. -1.
         11    1    3    3    0    0 -0.97940948030E-01 -0.29143696011E+01  0.37437462207E+01  0.47453955185E+01  0.51100000000E-03 0. -1.
        -11    1    3    3    0    0  0.31096265646E+02  0.22844965707E+02  0.33590009340E+01  0.38731809702E+02  0.51100000000E-03 0.  1.
         12    1    3    3    0    0 -0.98042670496E+00  0.45149831150E+01  0.53272489518E+01  0.70516587018E+01  0.00000000000E+00 0. -1.
</event>
<event>
 7    1  0.2755991E-011  0.5052886E+02  0.7816164E-02  0.1300439E+00
        -11   -1    0    0    0    0  0.00000000000E+00  0.00000000000E+00  0.45593999997E+02  0.45594000000E+02  0.51100000000E-03 0. -1.
         11   -1    0    0    0    0 -0.00000000000E+00 -0.00000000000E+00 -0.45593999997E+02  0.45594000000E+02  0.51100000000E-03 0.  1.
    9900012    2    1    2    0    0 -0.31398161016E+01 -0.29782499905E+02 -0.27501095650E+02  0.50528855793E+02  0.29999987668E+02 0.  0.
         12    1    1    2    0    0  0.31398161016E+01  0.29782499905E+02  0.27501095650E+02  0.40659144207E+02  0.00000000000E+00 0. -1.
         11    1    3    3    0    0  0.12143127376E+02 -0.84189042078E+01 -0.64639534097E+01  0.16128117822E+02  0.51100000000E-03 0. -1.
        -11    1    3    3    0    0  0.93658902967E-01 -0.40942630039E+01 -0.32220447996E+01  0.52108861518E+01  0.51100000000E-03 0.  1.
        -12    1    3    3    0    0 -0.15376602380E+02 -0.17269332693E+02 -0.17815097440E+02  0.29189851819E+02  0.00000000000E+00 0.  1.
</event>
<event>
 7    1  0.2755991E-011  0.5052886E+02  0.7816164E-02  0.1300439E+00
        -11   -1    0    0    0    0  0.00000000000E+00  0.00000000000E+00  0.45593999997E+02  0.45594000000E+02  0.51100000000E-03 0.  1.
         11   -1    0    0    0    0 -0.00000000000E+00 -0.00000000000E+00 -0.45593999997E+02  0.45594000000E+02  0.51100000000E-03 0. -1.
    9900012    2    1    2    0    0  0.28108725960E+02  0.84458899606E+01  0.28137738577E+02  0.50528857553E+02  0.29999993018E+02 0.  0.
         12    1    1    2    0    0 -0.28108725960E+02 -0.84458899606E+01 -0.28137738577E+02  0.40659142447E+02  0.00000000000E+00 0. -1.
         11    1    3    3    0    0 -0.25812170634E+01  0.38060920660E+01  0.45255050638E+01  0.64520705736E+01  0.51100000000E-03 0. -1.
        -11    1    3    3    0    0  0.67583143219E+01  0.63326978183E+01  0.16722023385E+02  0.19115541857E+02  0.51100000000E-03 0.  1.
        -12    1    3    3    0    0  0.23931628701E+02 -0.16928999238E+01  0.68902101279E+01  0.24961245122E+02  0.00000000000E+00 0.  1.
</event>
<event>
 7    1  0.2755991E-011  0.5052886E+02  0.7816164E-02  0.1300439E+00
        -11   -1    0    0    0    0  0.00000000000E+00  0.00000000000E+00  0.45593999997E+02  0.45594000000E+02  0.51100000000E-03 0. -1.
         11   -1    0    0    0    0 -0.00000000000E+00 -0.00000000000E+00 -0.45593999997E+02  0.45594000000E+02  0.51100000000E-03 0.  1.
    9900012    2    1    2    0    0 -0.21450700186E+02  0.27709189168E+02 -0.20621197863E+02  0.50528861985E+02  0.30000006490E+02 0.  0.
         12    1    1    2    0    0  0.21450700186E+02 -0.27709189168E+02  0.20621197863E+02  0.40659138015E+02  0.00000000000E+00 0. -1.
         11    1    3    3    0    0 -0.61959377153E+01 -0.20888153984E+01 -0.16425646479E+01  0.67417217996E+01  0.51100000000E-03 0. -1.
        -11    1    3    3    0    0 -0.13327586668E+02  0.14536352854E+02 -0.47856020438E+00  0.19727116891E+02  0.51100000000E-03 0.  1.
         12    1    3    3    0    0 -0.19271758032E+01  0.15261651712E+02 -0.18500073011E+02  0.24060023295E+02  0.00000000000E+00 0. -1.
</event>
<event>
 7    1  0.2755991E-011  0.5052887E+02  0.7816164E-02  0.1300439E+00
        -11   -1    0    0    0    0  0.00000000000E+00  0.00000000000E+00  0.45593999997E+02  0.45594000000E+02  0.51100000000E-03 0. -1.
         11   -1    0    0    0    0 -0.00000000000E+00 -0.00000000000E+00 -0.45593999997E+02  0.45594000000E+02  0.51100000000E-03 0.  1.
    9900012    2    1    2    0    0 -0.66203837389E+01 -0.36954464631E+02  0.15610982956E+02  0.50528871555E+02  0.30000035579E+02 0.  0.
         12    1    1    2    0    0  0.66203837389E+01  0.36954464631E+02 -0.15610982956E+02  0.40659128445E+02  0.00000000000E+00 0. -1.
         11    1    3    3    0    0 -0.32716353609E+01 -0.99555701033E+01 -0.70821163891E+01  0.12648057038E+02  0.51100000000E-03 0. -1.
        -11    1    3    3    0    0  0.14191570382E+01 -0.38484661390E+01 -0.11982177590E+01  0.42732217800E+01  0.51100000000E-03 0.  1.
         12    1    3    3    0    0 -0.47679054163E+01 -0.23150428389E+02  0.23891317104E+02  0.33607592738E+02  0.00000000000E+00 0. -1.
</event>
<event>
 7    1  0.2755991E-011  0.5052886E+02  0.7816164E-02  0.1300439E+00
        -11   -1    0    0    0    0  0.00000000000E+00  0.00000000000E+00  0.45593999997E+02  0.45594000000E+02  0.51100000000E-03 0. -1.
         11   -1    0    0    0    0 -0.00000000000E+00 -0.00000000000E+00 -0.45593999997E+02  0.45594000000E+02  0.51100000000E-03 0.  1.
    9900012    2    1    2    0    0  0.30679044211E+02  0.24247192540E+02 -0.11137132465E+02  0.50528858110E+02  0.29999994710E+02 0.  0.
         12    1    1    2    0    0 -0.30679044211E+02 -0.24247192540E+02  0.11137132465E+02  0.40659141890E+02  0.00000000000E+00 0. -1.
         11    1    3    3    0    0  0.16296114502E+01  0.21146696999E+01 -0.46340375402E+01  0.53480618549E+01  0.51100000000E-03 0. -1.
        -11    1    3    3    0    0  0.27543347268E+02  0.17903235289E+02 -0.14579438137E+02  0.35940531844E+02  0.51100000000E-03 0.  1.
         12    1    3    3    0    0  0.15060854923E+01  0.42292875505E+01  0.80763432127E+01  0.92402644110E+01  0.00000000000E+00 0. -1.
</event>
<event>
 7    1 -0.2755991E-011  0.5052886E+02  0.7816164E-02  0.1300439E+00
        -11   -1    0    0    0    0  0.00000000000E+00  0.00000000000E+00  0.45593999997E+02  0.45594000000E+02  0.51100000000E-03 0.  1.
         11   -1    0    0    0    0 -0.00000000000E+00 -0.00000000000E+00 -0.45593999997E+02  0.45594000000E+02  0.51100000000E-03 0. -1.
    9900012    2    1    2    0    0 -0.21055664010E+02 -0.87442193753E+01  0.33665463605E+02  0.50528858357E+02  0.29999995461E+02 0.  0.
         12    1    1    2    0    0  0.21055664010E+02  0.87442193753E+01 -0.33665463605E+02  0.40659141643E+02  0.00000000000E+00 0. -1.
         11    1    3    3    0    0 -0.31431146767E+01  0.11461098291E+00  0.39578898479E+00  0.31700086325E+01  0.51100000000E-03 0. -1.
        -11    1    3    3    0    0  0.68196744598E+01 -0.19822757511E+01  0.31084215106E+01  0.77523971415E+01  0.51100000000E-03 0.  1.
        -12    1    3    3    0    0 -0.24732223793E+02 -0.68765546071E+01  0.30161253110E+02  0.39606452583E+02  0.00000000000E+00 0.  1.
</event>
<event>
 7    1  0.2755991E-011  0.5052885E+02  0.7816164E-02  0.1300439E+00
        -11   -1    0    0    0    0  0.00000000000E+00  0.00000000000E+00  0.45593999997E+02  0.45594000000E+02  0.51100000000E-03 0.  1.
         11   -1    0    0    0    0 -0.00000000000E+00 -0.00000000000E+00 -0.45593999997E+02  0.45594000000E+02  0.51100000000E-03 0. -1.
    9900012    2    1    2    0    0 -0.33498274294E+02 -0.17427267091E+02  0.15077225316E+02  0.50528846760E+02  0.29999960212E+02 0.  0.
         12    1    1    2    0    0  0.33498274294E+02  0.17427267091E+02 -0.15077225316E+02  0.40659153240E+02  0.00000000000E+00 0. -1.
         11    1    3    3    0    0  0.56319230311E+00 -0.52399559005E+01  0.77088071279E+01  0.93380956841E+01  0.51100000000E-03 0. -1.
        -11    1    3    3    0    0 -0.13350622829E+02  0.18377564243E+01  0.88688213488E+01  0.16132962250E+02  0.51100000000E-03 0.  1.
        -12    1    3    3    0    0 -0.20710843768E+02 -0.14025067615E+02 -0.15004031602E+01  0.25057788826E+02  0.00000000000E+00 0.  1.
</event>
<event>
 7    1  0.2755991E-011  0.5052886E+02  0.7816164E-02  0.1300439E+00
        -11   -1    0    0    0    0  0.00000000000E+00  0.00000000000E+00  0.45593999997E+02  0.45594000000E+02  0.51100000000E-03 0.  1.
         11   -1    0    0    0    0 -0.00000000000E+00 -0.00000000000E+00 -0.45593999997E+02  0.45594000000E+02  0.51100000000E-03 0. -1.
    9900012    2    1    2    0    0  0.42507469517E+01  0.39783669884E+02 -0.72357543797E+01  0.50528863505E+02  0.30000011109E+02 0.  0.
         12    1    1    2    0    0 -0.42507469517E+01 -0.39783669884E+02  0.72357543797E+01  0.40659136495E+02  0.00000000000E+00 0. -1.
         11    1    3    3    0    0  0.85165228070E-01  0.46300173976E+01  0.13934317341E+01  0.48359038945E+01  0.51100000000E-03 0.  1.
        -11    1    3    3    0    0  0.10935103594E+02  0.12924731751E+02  0.63105106276E+01  0.18067864459E+02  0.51100000000E-03 0. -1.
         12    1    3    3    0    0 -0.67695218703E+01  0.22228920735E+02 -0.14939696741E+02  0.27625095152E+02  0.00000000000E+00 0. -1.
</event>
<event>
 7    1  0.2755991E-011  0.5052886E+02  0.7816164E-02  0.1300439E+00
        -11   -1    0    0    0    0  0.00000000000E+00  0.00000000000E+00  0.45593999997E+02  0.45594000000E+02  0.51100000000E-03 0.  1.
         11   -1    0    0    0    0 -0.00000000000E+00 -0.00000000000E+00 -0.45593999997E+02  0.45594000000E+02  0.51100000000E-03 0. -1.
    9900012    2    1    2    0    0 -0.40103069376E+01  0.29309571222E+02  0.27893223770E+02  0.50528862537E+02  0.30000008168E+02 0.  0.
         12    1    1    2    0    0  0.40103069376E+01 -0.29309571222E+02 -0.27893223770E+02  0.40659137463E+02  0.00000000000E+00 0. -1.
         11    1    3    3    0    0 -0.43759676953E+01 -0.26367536211E+01  0.14019944725E+00  0.51108921994E+01  0.51100000000E-03 0. -1.
        -11    1    3    3    0    0 -0.60834263117E+01  0.41414487877E+01  0.66780154348E+01  0.99375834165E+01  0.51100000000E-03 0.  1.
         12    1    3    3    0    0  0.64490870694E+01  0.27804876055E+02  0.21075008888E+02  0.35480386921E+02  0.00000000000E+00 0. -1.
</event>
<event>
 7    1  0.2755991E-011  0.5052886E+02  0.7816164E-02  0.1300439E+00
        -11   -1    0    0    0    0  0.00000000000E+00  0.00000000000E+00  0.45593999997E+02  0.45594000000E+02  0.51100000000E-03 0. -1.
         11   -1    0    0    0    0 -0.00000000000E+00 -0.00000000000E+00 -0.45593999997E+02  0.45594000000E+02  0.51100000000E-03 0.  1.
    9900012    2    1    2    0    0 -0.35291037760E+02 -0.13089038598E+02 -0.15374824034E+02  0.50528862138E+02  0.30000006954E+02 0.  0.
         12    1    1    2    0    0  0.35291037760E+02  0.13089038598E+02  0.15374824034E+02  0.40659137862E+02  0.00000000000E+00 0. -1.
         11    1    3    3    0    0 -0.15592877953E+02 -0.12866540387E+02 -0.98481453475E+01  0.22487144582E+02  0.51100000000E-03 0. -1.
        -11    1    3    3    0    0 -0.14088728495E+02 -0.85578706459E+01  0.18366363891E+00  0.16485240465E+02  0.51100000000E-03 0.  1.
         12    1    3    3    0    0 -0.56094313120E+01  0.83353724352E+01 -0.57103423255E+01  0.11556477091E+02  0.00000000000E+00 0. -1.
</event>
<event>
 7    1  0.2755991E-011  0.5052888E+02  0.7816164E-02  0.1300439E+00
        -11   -1    0    0    0    0  0.00000000000E+00  0.00000000000E+00  0.45593999997E+02  0.45594000000E+02  0.51100000000E-03 0.  1.
         11   -1    0    0    0    0 -0.00000000000E+00 -0.00000000000E+00 -0.45593999997E+02  0.45594000000E+02  0.51100000000E-03 0. -1.
    9900012    2    1    2    0    0 -0.10090828968E+02  0.31664743994E+02  0.23423982671E+02  0.50528882872E+02  0.30000069978E+02 0.  0.
         12    1    1    2    0    0  0.10090828968E+02 -0.31664743994E+02 -0.23423982671E+02  0.40659117128E+02  0.00000000000E+00 0. -1.
         11    1    3    3    0    0 -0.43461942622E+01  0.10064742252E+02  0.16952915321E+02  0.20188852848E+02  0.51100000000E-03 0. -1.
        -11    1    3    3    0    0 -0.19500473242E+01  0.22288178318E+02  0.10541906241E+02  0.24732516345E+02  0.51100000000E-03 0.  1.
         12    1    3    3    0    0 -0.37945873818E+01 -0.68817657604E+00 -0.40708388905E+01  0.56075136799E+01  0.00000000000E+00 0. -1.
</event>
<event>
 7    1  0.2755991E-011  0.5052886E+02  0.7816164E-02  0.1300439E+00
        -11   -1    0    0    0    0  0.00000000000E+00  0.00000000000E+00  0.45593999997E+02  0.45594000000E+02  0.51100000000E-03 0.  1.
         11   -1    0    0    0    0 -0.00000000000E+00 -0.00000000000E+00 -0.45593999997E+02  0.45594000000E+02  0.51100000000E-03 0. -1.
    9900012    2    1    2    0    0  0.11931484200E+02  0.87753156246E+01  0.37865544464E+02  0.50528856661E+02  0.29999990306E+02 0.  0.
         12    1    1    2    0    0 -0.11931484200E+02 -0.87753156246E+01 -0.37865544464E+02  0.40659143339E+02  0.00000000000E+00 0. -1.
         11    1    3    3    0    0 -0.46742524826E+00 -0.25007384034E+00  0.11598492078E+02  0.11610600417E+02  0.51100000000E-03 0. -1.
        -11    1    3    3    0    0  0.27689188472E+00  0.57814800404E+01  0.25714138890E+02  0.26357524916E+02  0.51100000000E-03 0.  1.
         12    1    3    3    0    0  0.12122017563E+02  0.32439094245E+01  0.55291349552E+00  0.12560731328E+02  0.00000000000E+00 0. -1.
</event>
<event>
 7    1  0.2755991E-011  0.5052885E+02  0.7816164E-02  0.1300439E+00
        -11   -1    0    0    0    0  0.00000000000E+00  0.00000000000E+00  0.45593999997E+02  0.45594000000E+02  0.51100000000E-03 0. -1.
         11   -1    0    0    0    0 -0.00000000000E+00 -0.00000000000E+00 -0.45593999997E+02  0.45594000000E+02  0.51100000000E-03 0.  1.
    9900012    2    1    2    0    0 -0.86432049891E+01  0.33935491228E+02 -0.20660199158E+02  0.50528851133E+02  0.29999973503E+02 0.  0.
         12    1    1    2    0    0  0.86432049891E+01 -0.33935491228E+02  0.20660199158E+02  0.40659148867E+02  0.00000000000E+00 0. -1.
         11    1    3    3    0    0  0.45734405530E+01  0.87613229667E+01 -0.73952632411E+01  0.12343705168E+02  0.51100000000E-03 0.  1.
        -11    1    3    3    0    0  0.58467743670E+01  0.30464742776E+01 -0.21472746706E+01  0.69337266167E+01  0.51100000000E-03 0. -1.
         12    1    3    3    0    0 -0.19063419909E+02  0.22127693983E+02 -0.11117661247E+02  0.31251419348E+02  0.00000000000E+00 0. -1.
</event>
<event>
 7    1  0.2755991E-011  0.5052888E+02  0.7816164E-02  0.1300439E+00
        -11   -1    0    0    0    0  0.00000000000E+00  0.00000000000E+00  0.45593999997E+02  0.45594000000E+02  0.51100000000E-03 0. -1.
         11   -1    0    0    0    0 -0.00000000000E+00 -0.00000000000E+00 -0.45593999997E+02  0.45594000000E+02  0.51100000000E-03 0.  1.
    9900012    2    1    2    0    0 -0.32706627003E+02 -0.17982373331E+02 -0.16126838006E+02  0.50528879196E+02  0.30000058803E+02 0.  0.
         12    1    1    2    0    0  0.32706627003E+02  0.17982373331E+02  0.16126838006E+02  0.40659120804E+02  0.00000000000E+00 0. -1.
         11    1    3    3    0    0 -0.63090528644E+01 -0.52317927058E+01  0.22088826440E+00  0.81990606077E+01  0.51100000000E-03 0. -1.
        -11    1    3    3    0    0 -0.21355892986E+02 -0.13043840916E+02  0.20363315196E+00  0.25025135720E+02  0.51100000000E-03 0.  1.
        -12    1    3    3    0    0 -0.50416811526E+01  0.29326029102E+00 -0.16551359422E+02  0.17304682868E+02  0.00000000000E+00 0.  1.
</event>
<event>
 7    1  0.2755991E-011  0.5052871E+02  0.7816164E-02  0.1300439E+00
        -11   -1    0    0    0    0  0.00000000000E+00  0.00000000000E+00  0.45593999997E+02  0.45594000000E+02  0.51100000000E-03 0.  1.
         11   -1    0    0    0    0 -0.00000000000E+00 -0.00000000000E+00 -0.45593999997E+02  0.45594000000E+02  0.51100000000E-03 0. -1.
    9900012    2    1    2    0    0  0.12343168186E+02 -0.37378146423E+02 -0.10183217623E+02  0.50528713827E+02  0.29999556146E+02 0.  0.
         12    1    1    2    0    0 -0.12343168186E+02  0.37378146423E+02  0.10183217623E+02  0.40659286173E+02  0.00000000000E+00 0. -1.
         11    1    3    3    0    0 -0.32401354079E+01 -0.12867990489E+02 -0.75284732074E+01  0.15256525351E+02  0.51100000000E-03 0. -1.
        -11    1    3    3    0    0  0.50791627055E+01 -0.15287577898E+02  0.77209088508E+01  0.17863940370E+02  0.51100000000E-03 0.  1.
         12    1    3    3    0    0  0.10504140889E+02 -0.92225780360E+01 -0.10375653266E+02  0.17408248107E+02  0.00000000000E+00 0. -1.
</event>
<event>
 7    1  0.2755991E-011  0.5052884E+02  0.7816164E-02  0.1300439E+00
        -11   -1    0    0    0    0  0.00000000000E+00  0.00000000000E+00  0.45593999997E+02  0.45594000000E+02  0.51100000000E-03 0.  1.
         11   -1    0    0    0    0 -0.00000000000E+00 -0.00000000000E+00 -0.45593999997E+02  0.45594000000E+02  0.51100000000E-03 0. -1.
    9900012    2    1    2    0    0  0.36564514823E+02 -0.17742666016E+02 -0.11837589204E+01  0.50528840801E+02  0.29999942099E+02 0.  0.
         12    1    1    2    0    0 -0.36564514823E+02  0.17742666016E+02  0.11837589204E+01  0.40659159199E+02  0.00000000000E+00 0. -1.
         11    1    3    3    0    0  0.78296613555E+01  0.27541526808E+01 -0.52652052442E+00  0.83166205910E+01  0.51100000000E-03 0. -1.
        -11    1    3    3    0    0  0.31902212252E+02 -0.19835642195E+02 -0.37291200771E+01  0.37750631580E+02  0.51100000000E-03 0.  1.
        -12    1    3    3    0    0 -0.31673587850E+01 -0.66117650155E+00  0.30718816812E+01  0.44615886299E+01  0.00000000000E+00 0.  1.
</event>
<event>
 7    1  0.2755991E-011  0.5052887E+02  0.7816164E-02  0.1300439E+00
        -11   -1    0    0    0    0  0.00000000000E+00  0.00000000000E+00  0.45593999997E+02  0.45594000000E+02  0.51100000000E-03 0.  1.
         11   -1    0    0    0    0 -0.00000000000E+00 -0.00000000000E+00 -0.45593999997E+02  0.45594000000E+02  0.51100000000E-03 0. -1.
    9900012    2    1    2    0    0 -0.12211501536E+02 -0.13656463748E+02  0.36298008557E+02  0.50528865761E+02  0.30000017967E+02 0.  0.
         12    1    1    2    0    0  0.12211501536E+02  0.13656463748E+02 -0.36298008557E+02  0.40659134239E+02  0.00000000000E+00 0. -1.
         11    1    3    3    0    0 -0.12346515012E+02 -0.62686174886E+01  0.27139195302E+02  0.30467489559E+02  0.51100000000E-03 0. -1.
        -11    1    3    3    0    0 -0.32513572464E+01 -0.56937592528E+01  0.13067004388E+02  0.14619740843E+02  0.51100000000E-03 0.  1.
         12    1    3    3    0    0  0.33863707216E+01 -0.16940870063E+01 -0.39081911330E+01  0.54416353591E+01  0.00000000000E+00 0. -1.
</event>
<event>
 7    1  0.2755991E-011  0.5052887E+02  0.7816164E-02  0.1300439E+00
        -11   -1    0    0    0    0  0.00000000000E+00  0.00000000000E+00  0.45593999997E+02  0.45594000000E+02  0.51100000000E-03 0. -1.
         11   -1    0    0    0    0 -0.00000000000E+00 -0.00000000000E+00 -0.45593999997E+02  0.45594000000E+02  0.51100000000E-03 0.  1.
    9900012    2    1    2    0    0 -0.34990875916E+02  0.36442074197E+01  0.20384393101E+02  0.50528866620E+02  0.30000020579E+02 0.  0.
         12    1    1    2    0    0  0.34990875916E+02 -0.36442074197E+01 -0.20384393101E+02  0.40659133380E+02  0.00000000000E+00 0. -1.
         11    1    3    3    0    0 -0.13992250403E+02  0.29967995057E+01  0.78328004708E+01  0.16313081932E+02  0.51100000000E-03 0.  1.
        -11    1    3    3    0    0 -0.19267196637E+02  0.27777482766E+01  0.19003396814E+02  0.27204224717E+02  0.51100000000E-03 0. -1.
        -12    1    3    3    0    0 -0.17314288761E+01 -0.21303403625E+01 -0.64518041837E+01  0.70115599718E+01  0.00000000000E+00 0.  1.
</event>
<event>
 7    1  0.2755991E-011  0.5052887E+02  0.7816164E-02  0.1300439E+00
        -11   -1    0    0    0    0  0.00000000000E+00  0.00000000000E+00  0.45593999997E+02  0.45594000000E+02  0.51100000000E-03 0.  1.
         11   -1    0    0    0    0 -0.00000000000E+00 -0.00000000000E+00 -0.45593999997E+02  0.45594000000E+02  0.51100000000E-03 0. -1.
    9900012    2    1    2    0    0  0.12795034607E+02  0.35839580710E+02  0.14317009802E+02  0.50528865409E+02  0.30000016897E+02 0.  0.
         12    1    1    2    0    0 -0.12795034607E+02 -0.35839580710E+02 -0.14317009802E+02  0.40659134591E+02  0.00000000000E+00 0. -1.
         11    1    3    3    0    0  0.25240043638E+01  0.41324027880E+01  0.48023145559E+01  0.68197929723E+01  0.51100000000E-03 0. -1.
        -11    1    3    3    0    0  0.16633135821E+02  0.32054832791E+02  0.94819436856E+01  0.37337391029E+02  0.51100000000E-03 0.  1.
         12    1    3    3    0    0 -0.63621055786E+01 -0.34765486913E+00  0.32751560452E-01  0.63716814080E+01  0.00000000000E+00 0. -1.
</event>
<event>
 7    1  0.2755991E-011  0.5052888E+02  0.7816164E-02  0.1300439E+00
        -11   -1    0    0    0    0  0.00000000000E+00  0.00000000000E+00  0.45593999997E+02  0.45594000000E+02  0.51100000000E-03 0.  1.
         11   -1    0    0    0    0 -0.00000000000E+00 -0.00000000000E+00 -0.45593999997E+02  0.45594000000E+02  0.51100000000E-03 0. -1.
    9900012    2    1    2    0    0  0.67096642378E+01 -0.28666505748E+02  0.28042399588E+02  0.50528876538E+02  0.30000050726E+02 0.  0.
         12    1    1    2    0    0 -0.67096642378E+01  0.28666505748E+02 -0.28042399588E+02  0.40659123462E+02  0.00000000000E+00 0. -1.
         11    1    3    3    0    0  0.29430450558E+01 -0.28154977333E+02  0.16008333756E+02  0.32521239410E+02  0.51100000000E-03 0.  1.
        -11    1    3    3    0    0 -0.55732941345E+00 -0.38203694106E+01 -0.90866483637E+00  0.39662968314E+01  0.51100000000E-03 0. -1.
        -12    1    3    3    0    0  0.43239485955E+01  0.33088409955E+01  0.12942730668E+02  0.14041340297E+02  0.00000000000E+00 0.  1.
</event>
<event>
 7    1  0.2755991E-011  0.5052886E+02  0.7816164E-02  0.1300439E+00
        -11   -1    0    0    0    0  0.00000000000E+00  0.00000000000E+00  0.45593999997E+02  0.45594000000E+02  0.51100000000E-03 0.  1.
         11   -1    0    0    0    0 -0.00000000000E+00 -0.00000000000E+00 -0.45593999997E+02  0.45594000000E+02  0.51100000000E-03 0. -1.
    9900012    2    1    2    0    0  0.25473043083E+02 -0.24344465938E+02  0.20288837102E+02  0.50528857650E+02  0.29999993312E+02 0.  0.
         12    1    1    2    0    0 -0.25473043083E+02  0.24344465938E+02 -0.20288837102E+02  0.40659142350E+02  0.00000000000E+00 0. -1.
         11    1    3    3    0    0  0.43396631659E+01 -0.89706868445E+01  0.17148522055E+02  0.19833751732E+02  0.51100000000E-03 0. -1.
        -11    1    3    3    0    0  0.37466127989E+01  0.11187486171E+01  0.53525269594E+01  0.66285934439E+01  0.51100000000E-03 0.  1.
         12    1    3    3    0    0  0.17386767118E+02 -0.16492527711E+02 -0.22122119121E+01  0.24066512474E+02  0.00000000000E+00 0. -1.
</event>
<event>
 7    1  0.2755991E-011  0.5052888E+02  0.7816164E-02  0.1300439E+00
        -11   -1    0    0    0    0  0.00000000000E+00  0.00000000000E+00  0.45593999997E+02  0.45594000000E+02  0.51100000000E-03 0.  1.
         11   -1    0    0    0    0 -0.00000000000E+00 -0.00000000000E+00 -0.45593999997E+02  0.45594000000E+02  0.51100000000E-03 0. -1.
    9900012    2    1    2    0    0  0.11627204327E+02 -0.17049237552E+02  0.35032784368E+02  0.50528876028E+02  0.30000049176E+02 0.  0.
         12    1    1    2    0    0 -0.11627204327E+02  0.17049237552E+02 -0.35032784368E+02  0.40659123972E+02  0.00000000000E+00 0. -1.
         11    1    3    3    0    0 -0.57100961233E+01  0.84692386794E-01  0.15252969106E+01  0.59109137588E+01  0.51100000000E-03 0. -1.
        -11    1    3    3    0    0 -0.24533809412E+01 -0.20413186219E+00  0.71581189068E+01  0.75696376666E+01  0.51100000000E-03 0.  1.
        -12    1    3    3    0    0  0.19790681391E+02 -0.16929798077E+02  0.26349368551E+02  0.37048324603E+02  0.00000000000E+00 0.  1.
</event>
<event>
 7    1  0.2755991E-011  0.5052886E+02  0.7816164E-02  0.1300439E+00
        -11   -1    0    0    0    0  0.00000000000E+00  0.00000000000E+00  0.45593999997E+02  0.45594000000E+02  0.51100000000E-03 0.  1.
         11   -1    0    0    0    0 -0.00000000000E+00 -0.00000000000E+00 -0.45593999997E+02  0.45594000000E+02  0.51100000000E-03 0. -1.
    9900012    2    1    2    0    0 -0.38726591846E+02 -0.62248072349E+01  0.10708336610E+02  0.50528860632E+02  0.30000002378E+02 0.  0.
         12    1    1    2    0    0  0.38726591846E+02  0.62248072349E+01 -0.10708336610E+02  0.40659139368E+02  0.00000000000E+00 0. -1.
         11    1    3    3    0    0 -0.92834944961E+00 -0.26118039498E+01  0.98591688448E+01  0.10241414118E+02  0.51100000000E-03 0. -1.
        -11    1    3    3    0    0 -0.16896784870E+01 -0.26705285886E+01  0.26463820147E+01  0.41219017893E+01  0.51100000000E-03 0.  1.
         12    1    3    3    0    0 -0.36108563910E+02 -0.94247469649E+00 -0.17972142490E+01  0.36165544725E+02  0.00000000000E+00 0. -1.
</event>
<event>
 7    1  0.2755991E-011  0.5052885E+02  0.7816164E-02  0.1300439E+00
        -11   -1    0    0    0    0  0.00000000000E+00  0.00000000000E+00  0.45593999997E+02  0.45594000000E+02  0.51100000000E-03 0.  1.
         11   -1    0    0    0    0 -0.00000000000E+00 -0.00000000000E+00 -0.45593999997E+02  0.45594000000E+02  0.51100000000E-03 0. -1.
    9900012    2    1    2    0    0  0.37875659959E+02  0.66402503575E+01 -0.13210142834E+02  0.50528850773E+02  0.29999972410E+02 0.  0.
         12    1    1    2    0    0 -0.37875659959E+02 -0.66402503575E+01  0.13210142834E+02  0.40659149227E+02  0.00000000000E+00 0. -1.
         11    1    3    3    0    0  0.17144033142E+02  0.68004402025E+01 -0.15930784774E+02  0.24371166634E+02  0.51100000000E-03 0. -1.
        -11    1    3    3    0    0  0.13997034379E+02 -0.67690601639E+00 -0.59011275603E+01  0.15205212262E+02  0.51100000000E-03 0.  1.
         12    1    3    3    0    0  0.67345924376E+01  0.51671617136E+00  0.86217695006E+01  0.10952471877E+02  0.00000000000E+00 0. -1.
</event>
<event>
 7    1  0.2755991E-011  0.5052885E+02  0.7816164E-02  0.1300439E+00
        -11   -1    0    0    0    0  0.00000000000E+00  0.00000000000E+00  0.45593999997E+02  0.45594000000E+02  0.51100000000E-03 0.  1.
         11   -1    0    0    0    0 -0.00000000000E+00 -0.00000000000E+00 -0.45593999997E+02  0.45594000000E+02  0.51100000000E-03 0. -1.
    9900012    2    1    2    0    0 -0.12505936833E+02  0.20954055123E+02  0.32522230385E+02  0.50528851566E+02  0.29999974820E+02 0.  0.
         12    1    1    2    0    0  0.12505936833E+02 -0.20954055123E+02 -0.32522230385E+02  0.40659148434E+02  0.00000000000E+00 0. -1.
         11    1    3    3    0    0 -0.34122119970E+01  0.44635085261E+01  0.15082853662E+02  0.16095296640E+02  0.51100000000E-03 0. -1.
        -11    1    3    3    0    0 -0.15311327429E+02  0.12894799384E+02  0.18396978057E+02  0.27187522886E+02  0.51100000000E-03 0.  1.
         12    1    3    3    0    0  0.62176025921E+01  0.35957472130E+01 -0.95760133448E+00  0.72460320403E+01  0.00000000000E+00 0. -1.
</event>
<event>
 7    1  0.2755991E-011  0.5052885E+02  0.7816164E-02  0.1300439E+00
        -11   -1    0    0    0    0  0.00000000000E+00  0.00000000000E+00  0.45593999997E+02  0.45594000000E+02  0.51100000000E-03 0.  1.
         11   -1    0    0    0    0 -0.00000000000E+00 -0.00000000000E+00 -0.45593999997E+02  0.45594000000E+02  0.51100000000E-03 0. -1.
    9900012    2    1    2    0    0  0.23838509435E+02 -0.21842767796E+02  0.24653311225E+02  0.50528846154E+02  0.29999958369E+02 0.  0.
         12    1    1    2    0    0 -0.23838509435E+02  0.21842767796E+02 -0.24653311225E+02  0.40659153846E+02  0.00000000000E+00 0. -1.
         11    1    3    3    0    0 -0.99296336853E+00  0.30353956766E+01 -0.38685642075E+01  0.50165119808E+01  0.51100000000E-03 0. -1.
        -11    1    3    3    0    0  0.14215106049E+01 -0.28404015876E+01  0.14942926294E+01  0.35101971885E+01  0.51100000000E-03 0.  1.
        -12    1    3    3    0    0  0.23409962199E+02 -0.22037761885E+02  0.27027582803E+02  0.42002136985E+02  0.00000000000E+00 0.  1.
</event>
<event>
 7    1  0.2755991E-011  0.5052886E+02  0.7816164E-02  0.1300439E+00
        -11   -1    0    0    0    0  0.00000000000E+00  0.00000000000E+00  0.45593999997E+02  0.45594000000E+02  0.51100000000E-03 0. -1.
         11   -1    0    0    0    0 -0.00000000000E+00 -0.00000000000E+00 -0.45593999997E+02  0.45594000000E+02  0.51100000000E-03 0.  1.
    9900012    2    1    2    0    0  0.25660889354E+02  0.30928765054E+02 -0.61721734258E+01  0.50528862343E+02  0.30000007578E+02 0.  0.
         12    1    1    2    0    0 -0.25660889354E+02 -0.30928765054E+02  0.61721734258E+01  0.40659137657E+02  0.00000000000E+00 0. -1.
         11    1    3    3    0    0  0.61020425900E+01  0.10846196779E+02  0.42047346870E+01  0.13136007856E+02  0.51100000000E-03 0. -1.
        -11    1    3    3    0    0  0.12847183981E+02  0.93499280273E+01  0.57442923396E+01  0.16895803772E+02  0.51100000000E-03 0.  1.
        -12    1    3    3    0    0  0.67116627835E+01  0.10732640247E+02 -0.16121200452E+02  0.20497050715E+02  0.00000000000E+00 0.  1.
</event>
<event>
 7    1  0.2755991E-011  0.5052885E+02  0.7816164E-02  0.1300439E+00
        -11   -1    0    0    0    0  0.00000000000E+00  0.00000000000E+00  0.45593999997E+02  0.45594000000E+02  0.51100000000E-03 0. -1.
         11   -1    0    0    0    0 -0.00000000000E+00 -0.00000000000E+00 -0.45593999997E+02  0.45594000000E+02  0.51100000000E-03 0.  1.
    9900012    2    1    2    0    0 -0.31187540598E+02 -0.10566367438E+02 -0.23850691641E+02  0.50528852184E+02  0.29999976699E+02 0.  0.
         12    1    1    2    0    0  0.31187540598E+02  0.10566367438E+02  0.23850691641E+02  0.40659147816E+02  0.00000000000E+00 0. -1.
         11    1    3    3    0    0 -0.27345464441E+01  0.19381309899E+01 -0.12007432530E+02  0.12466456282E+02  0.51100000000E-03 0. -1.
        -11    1    3    3    0    0 -0.48952403270E+01  0.48665182075E+01 -0.23423876563E+01  0.72892494481E+01  0.51100000000E-03 0.  1.
        -12    1    3    3    0    0 -0.23557753827E+02 -0.17371016636E+02 -0.95008714538E+01  0.30773146454E+02  0.00000000000E+00 0.  1.
</event>
<event>
 7    1  0.2755991E-011  0.5052886E+02  0.7816164E-02  0.1300439E+00
        -11   -1    0    0    0    0  0.00000000000E+00  0.00000000000E+00  0.45593999997E+02  0.45594000000E+02  0.51100000000E-03 0.  1.
         11   -1    0    0    0    0 -0.00000000000E+00 -0.00000000000E+00 -0.45593999997E+02  0.45594000000E+02  0.51100000000E-03 0. -1.
    9900012    2    1    2    0    0 -0.28944946721E+02  0.27144793403E+02  0.88609152795E+01  0.50528861185E+02  0.30000004057E+02 0.  0.
         12    1    1    2    0    0  0.28944946721E+02 -0.27144793403E+02 -0.88609152795E+01  0.40659138815E+02  0.00000000000E+00 0. -1.
         11    1    3    3    0    0 -0.49778854743E+01  0.12594235988E+02 -0.41437942169E+01  0.14162102764E+02  0.51100000000E-03 0. -1.
        -11    1    3    3    0    0 -0.15665855347E+02  0.13481908624E+02 -0.27424868299E+00  0.20670174080E+02  0.51100000000E-03 0.  1.
         12    1    3    3    0    0 -0.83012059002E+01  0.10686487907E+01  0.13278958179E+02  0.15696584341E+02  0.00000000000E+00 0. -1.
</event>
<event>
 7    1  0.2755991E-011  0.5052886E+02  0.7816164E-02  0.1300439E+00
        -11   -1    0    0    0    0  0.00000000000E+00  0.00000000000E+00  0.45593999997E+02  0.45594000000E+02  0.51100000000E-03 0.  1.
         11   -1    0    0    0    0 -0.00000000000E+00 -0.00000000000E+00 -0.45593999997E+02  0.45594000000E+02  0.51100000000E-03 0. -1.
    9900012    2    1    2    0    0  0.31749004817E+02  0.25376354558E+02  0.10986184503E+01  0.50528860314E+02  0.30000001410E+02 0.  0.
         12    1    1    2    0    0 -0.31749004817E+02 -0.25376354558E+02 -0.10986184503E+01  0.40659139686E+02  0.00000000000E+00 0. -1.
         11    1    3    3    0    0  0.18438284669E+01 -0.22433559902E+01  0.18739838394E+01  0.34560331604E+01  0.51100000000E-03 0. -1.
        -11    1    3    3    0    0  0.29648346765E+01  0.60346190127E+01  0.89629791775E+01  0.11204546724E+02  0.51100000000E-03 0.  1.
        -12    1    3    3    0    0  0.26940341674E+02  0.21585091535E+02 -0.97383445666E+01  0.35868280430E+02  0.00000000000E+00 0.  1.
</event>
<event>
 7    1  0.2755991E-011  0.5052887E+02  0.7816164E-02  0.1300439E+00
        -11   -1    0    0    0    0  0.00000000000E+00  0.00000000000E+00  0.45593999997E+02  0.45594000000E+02  0.51100000000E-03 0.  1.
         11   -1    0    0    0    0 -0.00000000000E+00 -0.00000000000E+00 -0.45593999997E+02  0.45594000000E+02  0.51100000000E-03 0. -1.
    9900012    2    1    2    0    0  0.36900271583E+02  0.41406738588E-01  0.17074342360E+02  0.50528869114E+02  0.30000028158E+02 0.  0.
         12    1    1    2    0    0 -0.36900271583E+02 -0.41406738588E-01 -0.17074342360E+02  0.40659130886E+02  0.00000000000E+00 0. -1.
         11    1    3    3    0    0  0.53599188085E+01  0.44878117679E+01  0.15645424184E+01  0.71635869045E+01  0.51100000000E-03 0. -1.
        -11    1    3    3    0    0  0.30324235050E+02  0.31473450134E+00  0.36711284863E+01  0.30547266225E+02  0.51100000000E-03 0.  1.
        -12    1    3    3    0    0  0.12161177238E+01 -0.47611395307E+01  0.11838671455E+02  0.12818015984E+02  0.00000000000E+00 0.  1.
</event>
<event>
 7    1  0.2755991E-011  0.5052887E+02  0.7816164E-02  0.1300439E+00
        -11   -1    0    0    0    0  0.00000000000E+00  0.00000000000E+00  0.45593999997E+02  0.45594000000E+02  0.51100000000E-03 0.  1.
         11   -1    0    0    0    0 -0.00000000000E+00 -0.00000000000E+00 -0.45593999997E+02  0.45594000000E+02  0.51100000000E-03 0. -1.
    9900012    2    1    2    0    0  0.16538449877E+02  0.35781725749E+02 -0.99655752825E+01  0.50528869259E+02  0.30000028599E+02 0.  0.
         12    1    1    2    0    0 -0.16538449877E+02 -0.35781725749E+02  0.99655752825E+01  0.40659130741E+02  0.00000000000E+00 0. -1.
         11    1    3    3    0    0 -0.43031048816E+01  0.21273776658E+00 -0.18630689444E+00  0.43123867521E+01  0.51100000000E-03 0. -1.
        -11    1    3    3    0    0 -0.16404705800E+01  0.13102088752E+02 -0.47750273997E+01  0.14041252092E+02  0.51100000000E-03 0.  1.
         12    1    3    3    0    0  0.22482025338E+02  0.22466899231E+02 -0.50042409883E+01  0.32175230414E+02  0.00000000000E+00 0. -1.
</event>
<event>
 7    1  0.2755991E-011  0.5052889E+02  0.7816164E-02  0.1300439E+00
        -11   -1    0    0    0    0  0.00000000000E+00  0.00000000000E+00  0.45593999997E+02  0.45594000000E+02  0.51100000000E-03 0.  1.
         11   -1    0    0    0    0 -0.00000000000E+00 -0.00000000000E+00 -0.45593999997E+02  0.45594000000E+02  0.51100000000E-03 0. -1.
    9900012    2    1    2    0    0 -0.34310803398E+02  0.13607277631E+02  0.17052091310E+02  0.50528892134E+02  0.30000098132E+02 0.  0.
         12    1    1    2    0    0  0.34310803398E+02 -0.13607277631E+02 -0.17052091310E+02  0.40659107866E+02  0.00000000000E+00 0. -1.
         11    1    3    3    0    0 -0.15125760321E+02 -0.18625223522E+01  0.74514145929E+01  0.16964114905E+02  0.51100000000E-03 0. -1.
        -11    1    3    3    0    0 -0.91844498810E+01  0.13744479127E+02  0.14776945008E+02  0.22172571572E+02  0.51100000000E-03 0.  1.
         12    1    3    3    0    0 -0.10000593196E+02  0.17253208561E+01 -0.51762682903E+01  0.11392205657E+02  0.00000000000E+00 0. -1.
</event>
<event>
 7    1  0.2755991E-011  0.5052886E+02  0.7816164E-02  0.1300439E+00
        -11   -1    0    0    0    0  0.00000000000E+00  0.00000000000E+00  0.45593999997E+02  0.45594000000E+02  0.51100000000E-03 0.  1.
         11   -1    0    0    0    0 -0.00000000000E+00 -0.00000000000E+00 -0.45593999997E+02  0.45594000000E+02  0.51100000000E-03 0. -1.
    9900012    2    1    2    0    0 -0.81023064337E+00  0.26343162144E+02  0.30960409234E+02  0.50528860740E+02  0.30000002704E+02 0.  0.
         12    1    1    2    0    0  0.81023064337E+00 -0.26343162144E+02 -0.30960409234E+02  0.40659139260E+02  0.00000000000E+00 0. -1.
         11    1    3    3    0    0  0.65074503331E+01  0.29618475878E+01  0.23638411722E+00  0.71536933596E+01  0.51100000000E-03 0. -1.
        -11    1    3    3    0    0 -0.39297350638E+01  0.19510819586E+02  0.32348619641E+02  0.37980891137E+02  0.51100000000E-03 0.  1.
         12    1    3    3    0    0 -0.33879459127E+01  0.38704949701E+01 -0.16245945242E+01  0.53942762433E+01  0.00000000000E+00 0. -1.
</event>
<event>
 7    1  0.2755991E-011  0.5052889E+02  0.7816164E-02  0.1300439E+00
        -11   -1    0    0    0    0  0.00000000000E+00  0.00000000000E+00  0.45593999997E+02  0.45594000000E+02  0.51100000000E-03 0. -1.
         11   -1    0    0    0    0 -0.00000000000E+00 -0.00000000000E+00 -0.45593999997E+02  0.45594000000E+02  0.51100000000E-03 0.  1.
    9900012    2    1    2    0    0 -0.19276754070E+02 -0.31883700963E+02  0.16278797208E+02  0.50528894340E+02  0.30000104835E+02 0.  0.
         12    1    1    2    0    0  0.19276754070E+02  0.31883700963E+02 -0.16278797208E+02  0.40659105660E+02  0.00000000000E+00 0. -1.
         11    1    3    3    0    0 -0.24629768427E+01  0.23155855110E+00  0.36982396591E+01  0.44493652499E+01  0.51100000000E-03 0. -1.
        -11    1    3    3    0    0 -0.24539888277E+01  0.56649339388E+00  0.99740940233E+01  0.10287153531E+02  0.51100000000E-03 0.  1.
        -12    1    3    3    0    0 -0.14359788400E+02 -0.32681752908E+02  0.26064635252E+01  0.35792375558E+02  0.00000000000E+00 0.  1.
</event>
<event>
 7    1  0.2755991E-011  0.5052886E+02  0.7816164E-02  0.1300439E+00
        -11   -1    0    0    0    0  0.00000000000E+00  0.00000000000E+00  0.45593999997E+02  0.45594000000E+02  0.51100000000E-03 0.  1.
         11   -1    0    0    0    0 -0.00000000000E+00 -0.00000000000E+00 -0.45593999997E+02  0.45594000000E+02  0.51100000000E-03 0. -1.
    9900012    2    1    2    0    0 -0.25684901377E+02  0.28864616910E+02  0.12660395119E+02  0.50528857452E+02  0.29999992712E+02 0.  0.
         12    1    1    2    0    0  0.25684901377E+02 -0.28864616910E+02 -0.12660395119E+02  0.40659142548E+02  0.00000000000E+00 0. -1.
         11    1    3    3    0    0 -0.55451733990E+00  0.12657942535E+02  0.18572040190E+01  0.12805475615E+02  0.51100000000E-03 0. -1.
        -11    1    3    3    0    0 -0.55129885101E+01  0.14058180195E+02  0.97212091407E+01  0.17959047306E+02  0.51100000000E-03 0.  1.
         12    1    3    3    0    0 -0.19617395527E+02  0.21484941800E+01  0.10819819594E+01  0.19764334532E+02  0.00000000000E+00 0. -1.
</event>
<event>
 7    1  0.2755991E-011  0.5052887E+02  0.7816164E-02  0.1300439E+00
        -11   -1    0    0    0    0  0.00000000000E+00  0.00000000000E+00  0.45593999997E+02  0.45594000000E+02  0.51100000000E-03 0.  1.
         11   -1    0    0    0    0 -0.00000000000E+00 -0.00000000000E+00 -0.45593999997E+02  0.45594000000E+02  0.51100000000E-03 0. -1.
    9900012    2    1    2    0    0 -0.57251873908E+01  0.31266188421E+01  0.40132422168E+02  0.50528870335E+02  0.30000031871E+02 0.  0.
         12    1    1    2    0    0  0.57251873908E+01 -0.31266188421E+01 -0.40132422168E+02  0.40659129665E+02  0.00000000000E+00 0. -1.
         11    1    3    3    0    0  0.44310880808E+01 -0.99250627274E+00 -0.60933630558E+00  0.45815828351E+01  0.51100000000E-03 0. -1.
        -11    1    3    3    0    0  0.19363564682E+01  0.10720604689E+01 -0.96609820459E+00  0.24149815782E+01  0.51100000000E-03 0.  1.
        -12    1    3    3    0    0 -0.12092631940E+02  0.30470646459E+01  0.41707856678E+02  0.43532305922E+02  0.00000000000E+00 0.  1.
</event>
<event>
 7    1  0.2755991E-011  0.5052887E+02  0.7816164E-02  0.1300439E+00
        -11   -1    0    0    0    0  0.00000000000E+00  0.00000000000E+00  0.45593999997E+02  0.45594000000E+02  0.51100000000E-03 0. -1.
         11   -1    0    0    0    0 -0.00000000000E+00 -0.00000000000E+00 -0.45593999997E+02  0.45594000000E+02  0.51100000000E-03 0.  1.
    9900012    2    1    2    0    0 -0.29065217582E+02  0.18765649057E+02 -0.21359505998E+02  0.50528868749E+02  0.30000027049E+02 0.  0.
         12    1    1    2    0    0  0.29065217582E+02 -0.18765649057E+02  0.21359505998E+02  0.40659131251E+02  0.00000000000E+00 0. -1.
         11    1    3    3    0    0  0.13396882948E+01  0.81751483097E+01 -0.23397020067E+01  0.86082530373E+01  0.51100000000E-03 0. -1.
        -11    1    3    3    0    0 -0.12734685483E+02 -0.57836750243E+00  0.12422887372E+01  0.12808200688E+02  0.51100000000E-03 0.  1.
        -12    1    3    3    0    0 -0.17670220395E+02  0.11168868249E+02 -0.20262092728E+02  0.29112415023E+02  0.00000000000E+00 0.  1.
</event>
<event>
 7    1  0.2755991E-011  0.5052886E+02  0.7816164E-02  0.1300439E+00
        -11   -1    0    0    0    0  0.00000000000E+00  0.00000000000E+00  0.45593999997E+02  0.45594000000E+02  0.51100000000E-03 0. -1.
         11   -1    0    0    0    0 -0.00000000000E+00 -0.00000000000E+00 -0.45593999997E+02  0.45594000000E+02  0.51100000000E-03 0.  1.
    9900012    2    1    2    0    0  0.31027682579E+02  0.39505200508E+01 -0.25977720981E+02  0.50528859795E+02  0.29999999832E+02 0.  0.
         12    1    1    2    0    0 -0.31027682579E+02 -0.39505200508E+01  0.25977720981E+02  0.40659140205E+02  0.00000000000E+00 0. -1.
         11    1    3    3    0    0  0.21570194991E+02 -0.68837389228E+01 -0.16405819830E+02  0.27960867263E+02  0.51100000000E-03 0. -1.
        -11    1    3    3    0    0  0.98715309825E+01  0.20278856490E+01 -0.76502907055E+00  0.10106666804E+02  0.51100000000E-03 0.  1.
        -12    1    3    3    0    0 -0.41404339522E+00  0.88063733247E+01 -0.88068720805E+01  0.12461325728E+02  0.00000000000E+00 0.  1.
</event>
<event>
 7    1  0.2755991E-011  0.5052877E+02  0.7816164E-02  0.1300439E+00
        -11   -1    0    0    0    0  0.00000000000E+00  0.00000000000E+00  0.45593999997E+02  0.45594000000E+02  0.51100000000E-03 0. -1.
         11   -1    0    0    0    0 -0.00000000000E+00 -0.00000000000E+00 -0.45593999997E+02  0.45594000000E+02  0.51100000000E-03 0.  1.
    9900012    2    1    2    0    0  0.24937298165E+02  0.14650500052E+02 -0.28577387492E+02  0.50528768977E+02  0.29999723781E+02 0.  0.
         12    1    1    2    0    0 -0.24937298165E+02 -0.14650500052E+02  0.28577387492E+02  0.40659231023E+02  0.00000000000E+00 0. -1.
         11    1    3    3    0    0  0.18116100174E+01  0.17578941022E+01  0.18427634878E+01  0.31253639889E+01  0.51100000000E-03 0. -1.
        -11    1    3    3    0    0  0.15487336342E+02  0.11301251536E+02 -0.36464032500E+01  0.19515945537E+02  0.51100000000E-03 0.  1.
        -12    1    3    3    0    0  0.76383518052E+01  0.15913544130E+01 -0.26773747730E+02  0.27887459451E+02  0.00000000000E+00 0.  1.
</event>
<event>
 7    1  0.2755991E-011  0.5052882E+02  0.7816164E-02  0.1300439E+00
        -11   -1    0    0    0    0  0.00000000000E+00  0.00000000000E+00  0.45593999997E+02  0.45594000000E+02  0.51100000000E-03 0.  1.
         11   -1    0    0    0    0 -0.00000000000E+00 -0.00000000000E+00 -0.45593999997E+02  0.45594000000E+02  0.51100000000E-03 0. -1.
    9900012    2    1    2    0    0  0.38626244753E+02 -0.10997019484E+02  0.63440902836E+01  0.50528822650E+02  0.29999886926E+02 0.  0.
         12    1    1    2    0    0 -0.38626244753E+02  0.10997019484E+02 -0.63440902836E+01  0.40659177350E+02  0.00000000000E+00 0. -1.
         11    1    3    3    0    0  0.20603023562E+01 -0.28463778868E+01 -0.81976438704E-01  0.35147451218E+01  0.51100000000E-03 0. -1.
        -11    1    3    3    0    0  0.16926563716E+02 -0.13174179631E+02  0.13729405534E+02  0.25466922562E+02  0.51100000000E-03 0.  1.
         12    1    3    3    0    0  0.19639378681E+02  0.50235380341E+01 -0.73033388116E+01  0.21547154966E+02  0.00000000000E+00 0. -1.
</event>
<event>
 7    1  0.2755991E-011  0.5052886E+02  0.7816164E-02  0.1300439E+00
        -11   -1    0    0    0    0  0.00000000000E+00  0.00000000000E+00  0.45593999997E+02  0.45594000000E+02  0.51100000000E-03 0.  1.
         11   -1    0    0    0    0 -0.00000000000E+00 -0.00000000000E+00 -0.45593999997E+02  0.45594000000E+02  0.51100000000E-03 0. -1.
    9900012    2    1    2    0    0 -0.31463501658E+02  0.25410045370E+02  0.41884975555E+01  0.50528857682E+02  0.29999993409E+02 0.  0.
         12    1    1    2    0    0  0.31463501658E+02 -0.25410045370E+02 -0.41884975555E+01  0.40659142318E+02  0.00000000000E+00 0. -1.
         11    1    3    3    0    0 -0.14586638954E+02  0.14883899136E+02 -0.11207254248E+01  0.20869990781E+02  0.51100000000E-03 0. -1.
        -11    1    3    3    0    0 -0.10853206066E+02  0.16987182910E+02  0.21289856822E+01  0.20270398256E+02  0.51100000000E-03 0.  1.
        -12    1    3    3    0    0 -0.60236566372E+01 -0.64610366762E+01  0.31802372981E+01  0.93884686444E+01  0.00000000000E+00 0.  1.
</event>
<event>
 7    1  0.2755991E-011  0.5052886E+02  0.7816164E-02  0.1300439E+00
        -11   -1    0    0    0    0  0.00000000000E+00  0.00000000000E+00  0.45593999997E+02  0.45594000000E+02  0.51100000000E-03 0.  1.
         11   -1    0    0    0    0 -0.00000000000E+00 -0.00000000000E+00 -0.45593999997E+02  0.45594000000E+02  0.51100000000E-03 0. -1.
    9900012    2    1    2    0    0  0.30781187123E+02 -0.26450543341E+02 -0.24602701292E+01  0.50528860156E+02  0.30000000930E+02 0.  0.
         12    1    1    2    0    0 -0.30781187123E+02  0.26450543341E+02  0.24602701292E+01  0.40659139844E+02  0.00000000000E+00 0. -1.
         11    1    3    3    0    0  0.13397814470E+02  0.19187155230E+01  0.12287794024E+01  0.13590172953E+02  0.51100000000E-03 0. -1.
        -11    1    3    3    0    0  0.99455446040E+01 -0.35691514901E+01 -0.32078370642E+01  0.11042776767E+02  0.51100000000E-03 0.  1.
         12    1    3    3    0    0  0.74378280499E+01 -0.24800107374E+02 -0.48121246740E+00  0.25895910436E+02  0.00000000000E+00 0. -1.
</event>
<event>
 7    1  0.2767420E-011  0.5052886E+02  0.7816164E-02  0.1300439E+00
        -11   -1    0    0    0    0  0.00000000000E+00  0.00000000000E+00  0.45593999997E+02  0.45594000000E+02  0.51100000000E-03 0. -1.
         11   -1    0    0    0    0 -0.00000000000E+00 -0.00000000000E+00 -0.45593999997E+02  0.45594000000E+02  0.51100000000E-03 0.  1.
    9900012    2    1    2    0    0  0.19380029327E+02  0.24838945542E+01 -0.35656838769E+02  0.50528863021E+02  0.30000009639E+02 0.  0.
         12    1    1    2    0    0 -0.19380029327E+02 -0.24838945542E+01  0.35656838769E+02  0.40659136979E+02  0.00000000000E+00 0. -1.
         11    1    3    3    0    0  0.23495321891E+01  0.50728685070E+01 -0.22828900299E+01  0.60386988289E+01  0.51100000000E-03 0. -1.
        -11    1    3    3    0    0 -0.44829930618E+01 -0.13100092711E+01  0.10801729114E+00  0.46717254926E+01  0.51100000000E-03 0.  1.
        -12    1    3    3    0    0  0.21513490200E+02 -0.12789646817E+01 -0.33481966030E+02  0.39818438700E+02  0.00000000000E+00 0.  1.
</event>
<event>
 7    1  0.2755991E-011  0.5052887E+02  0.7816164E-02  0.1300439E+00
        -11   -1    0    0    0    0  0.00000000000E+00  0.00000000000E+00  0.45593999997E+02  0.45594000000E+02  0.51100000000E-03 0.  1.
         11   -1    0    0    0    0 -0.00000000000E+00 -0.00000000000E+00 -0.45593999997E+02  0.45594000000E+02  0.51100000000E-03 0. -1.
    9900012    2    1    2    0    0 -0.77773288966E+00  0.44471575047E+01  0.40407709723E+02  0.50528867159E+02  0.30000022217E+02 0.  0.
         12    1    1    2    0    0  0.77773288966E+00 -0.44471575047E+01 -0.40407709723E+02  0.40659132841E+02  0.00000000000E+00 0. -1.
         11    1    3    3    0    0  0.34732670558E+01  0.25076280352E+01  0.26985935913E+02  0.27323845260E+02  0.51100000000E-03 0. -1.
        -11    1    3    3    0    0  0.48422114231E+01  0.61919118956E+01  0.97321175226E+01  0.12510031819E+02  0.51100000000E-03 0.  1.
         12    1    3    3    0    0 -0.90932113686E+01 -0.42523824260E+01  0.36896562869E+01  0.10694990080E+02  0.00000000000E+00 0. -1.
</event>
<event>
 7    1  0.2755991E-011  0.5052886E+02  0.7816164E-02  0.1300439E+00
        -11   -1    0    0    0    0  0.00000000000E+00  0.00000000000E+00  0.45593999997E+02  0.45594000000E+02  0.51100000000E-03 0. -1.
         11   -1    0    0    0    0 -0.00000000000E+00 -0.00000000000E+00 -0.45593999997E+02  0.45594000000E+02  0.51100000000E-03 0.  1.
    9900012    2    1    2    0    0 -0.34679728629E+02 -0.13366336603E+02 -0.16487061126E+02  0.50528859373E+02  0.29999998551E+02 0.  0.
         12    1    1    2    0    0  0.34679728629E+02  0.13366336603E+02  0.16487061126E+02  0.40659140627E+02  0.00000000000E+00 0. -1.
         11    1    3    3    0    0  0.53410843798E+00  0.19731752972E+01 -0.51951381037E+01  0.55828445039E+01  0.51100000000E-03 0. -1.
        -11    1    3    3    0    0 -0.53678800482E+01 -0.72645513605E+01  0.46498120556E+01  0.10159163110E+02  0.51100000000E-03 0.  1.
        -12    1    3    3    0    0 -0.29845957019E+02 -0.80749605392E+01 -0.15941735077E+02  0.34786851760E+02  0.00000000000E+00 0.  1.
</event>
<event>
 7    1  0.2755991E-011  0.5052885E+02  0.7816164E-02  0.1300439E+00
        -11   -1    0    0    0    0  0.00000000000E+00  0.00000000000E+00  0.45593999997E+02  0.45594000000E+02  0.51100000000E-03 0.  1.
         11   -1    0    0    0    0 -0.00000000000E+00 -0.00000000000E+00 -0.45593999997E+02  0.45594000000E+02  0.51100000000E-03 0. -1.
    9900012    2    1    2    0    0  0.29408501946E+02  0.15025607995E+02  0.23717873417E+02  0.50528850946E+02  0.29999972936E+02 0.  0.
         12    1    1    2    0    0 -0.29408501946E+02 -0.15025607995E+02 -0.23717873417E+02  0.40659149054E+02  0.00000000000E+00 0. -1.
         11    1    3    3    0    0  0.32869689472E+01  0.37694356611E+00  0.55784929272E+00  0.33552119764E+01  0.51100000000E-03 0. -1.
        -11    1    3    3    0    0  0.29398733065E+02  0.15040369432E+02  0.26602111021E+02  0.42404840873E+02  0.51100000000E-03 0.  1.
         12    1    3    3    0    0 -0.32772000666E+01 -0.39170500220E+00 -0.34420868960E+01  0.47687980965E+01  0.00000000000E+00 0. -1.
</event>
<event>
 7    1  0.2755991E-011  0.5052886E+02  0.7816164E-02  0.1300439E+00
        -11   -1    0    0    0    0  0.00000000000E+00  0.00000000000E+00  0.45593999997E+02  0.45594000000E+02  0.51100000000E-03 0.  1.
         11   -1    0    0    0    0 -0.00000000000E+00 -0.00000000000E+00 -0.45593999997E+02  0.45594000000E+02  0.51100000000E-03 0. -1.
    9900012    2    1    2    0    0  0.14939819782E+02  0.10152593021E+02  0.36426534170E+02  0.50528858939E+02  0.29999997232E+02 0.  0.
         12    1    1    2    0    0 -0.14939819782E+02 -0.10152593021E+02 -0.36426534170E+02  0.40659141061E+02  0.00000000000E+00 0. -1.
         11    1    3    3    0    0  0.16468641701E+02  0.68511101340E+01  0.11677887731E+02  0.21319637231E+02  0.51100000000E-03 0. -1.
        -11    1    3    3    0    0  0.56103484056E+01  0.48459327265E+01  0.78383911494E+01  0.10788857645E+02  0.51100000000E-03 0.  1.
        -12    1    3    3    0    0 -0.71391703250E+01 -0.15444498399E+01  0.16910255290E+02  0.18420364063E+02  0.00000000000E+00 0.  1.
</event>
<event>
 7    1  0.2755991E-011  0.5052886E+02  0.7816164E-02  0.1300439E+00
        -11   -1    0    0    0    0  0.00000000000E+00  0.00000000000E+00  0.45593999997E+02  0.45594000000E+02  0.51100000000E-03 0.  1.
         11   -1    0    0    0    0 -0.00000000000E+00 -0.00000000000E+00 -0.45593999997E+02  0.45594000000E+02  0.51100000000E-03 0. -1.
    9900012    2    1    2    0    0  0.26588475764E+02 -0.36303691868E+00  0.30758522609E+02  0.50528861392E+02  0.30000004688E+02 0.  0.
         12    1    1    2    0    0 -0.26588475764E+02  0.36303691868E+00 -0.30758522609E+02  0.40659138608E+02  0.00000000000E+00 0. -1.
         11    1    3    3    0    0 -0.13686081645E+01 -0.45145603884E+01  0.13122365905E+02  0.13944562776E+02  0.51100000000E-03 0. -1.
        -11    1    3    3    0    0  0.38012778605E+01  0.67128751490E+01  0.34161594174E+01  0.84369752616E+01  0.51100000000E-03 0.  1.
         12    1    3    3    0    0  0.24155806067E+02 -0.25613516792E+01  0.14219997287E+02  0.28147323355E+02  0.00000000000E+00 0. -1.
</event>
<event>
 7    1  0.2755991E-011  0.5052886E+02  0.7816164E-02  0.1300439E+00
        -11   -1    0    0    0    0  0.00000000000E+00  0.00000000000E+00  0.45593999997E+02  0.45594000000E+02  0.51100000000E-03 0.  1.
         11   -1    0    0    0    0 -0.00000000000E+00 -0.00000000000E+00 -0.45593999997E+02  0.45594000000E+02  0.51100000000E-03 0. -1.
    9900012    2    1    2    0    0 -0.10431111202E+02 -0.39298302177E+02  0.37842686057E-01  0.50528855063E+02  0.29999985449E+02 0.  0.
         12    1    1    2    0    0  0.10431111202E+02  0.39298302177E+02 -0.37842686057E-01  0.40659144937E+02  0.00000000000E+00 0. -1.
         11    1    3    3    0    0 -0.30956432393E+01 -0.25081992719E+02  0.10853104370E+01  0.25295597736E+02  0.51100000000E-03 0. -1.
        -11    1    3    3    0    0  0.31444136220E+01 -0.14330743027E+02  0.24251228966E+00  0.14673661616E+02  0.51100000000E-03 0.  1.
         12    1    3    3    0    0 -0.10479881585E+02  0.11443356886E+00 -0.12899800406E+01  0.10559595711E+02  0.00000000000E+00 0. -1.
</event>
<event>
 7    1  0.2755991E-011  0.5052886E+02  0.7816164E-02  0.1300439E+00
        -11   -1    0    0    0    0  0.00000000000E+00  0.00000000000E+00  0.45593999997E+02  0.45594000000E+02  0.51100000000E-03 0.  1.
         11   -1    0    0    0    0 -0.00000000000E+00 -0.00000000000E+00 -0.45593999997E+02  0.45594000000E+02  0.51100000000E-03 0. -1.
    9900012    2    1    2    0    0  0.29283630066E+02 -0.52089554414E+00  0.28202183951E+02  0.50528862016E+02  0.30000006583E+02 0.  0.
         12    1    1    2    0    0 -0.29283630066E+02  0.52089554414E+00 -0.28202183951E+02  0.40659137984E+02  0.00000000000E+00 0. -1.
         11    1    3    3    0    0  0.13305349565E+01  0.70852771579E+00  0.98280982680E+01  0.99430302535E+01  0.51100000000E-03 0. -1.
        -11    1    3    3    0    0  0.81821829338E+01 -0.96496474692E+01  0.13595755937E+02  0.18571709496E+02  0.51100000000E-03 0.  1.
         12    1    3    3    0    0  0.19770912176E+02  0.84202242092E+01  0.47783297463E+01  0.22014122267E+02  0.00000000000E+00 0. -1.
</event>
<event>
 7    1  0.2755991E-011  0.5052886E+02  0.7816164E-02  0.1300439E+00
        -11   -1    0    0    0    0  0.00000000000E+00  0.00000000000E+00  0.45593999997E+02  0.45594000000E+02  0.51100000000E-03 0.  1.
         11   -1    0    0    0    0 -0.00000000000E+00 -0.00000000000E+00 -0.45593999997E+02  0.45594000000E+02  0.51100000000E-03 0. -1.
    9900012    2    1    2    0    0 -0.12195681035E+02 -0.35486600020E+02  0.15656699257E+02  0.50528860209E+02  0.30000001091E+02 0.  0.
         12    1    1    2    0    0  0.12195681035E+02  0.35486600020E+02 -0.15656699257E+02  0.40659139791E+02  0.00000000000E+00 0. -1.
         11    1    3    3    0    0 -0.15053769003E+02 -0.29940492553E+02  0.17480045518E+02  0.37796839115E+02  0.51100000000E-03 0. -1.
        -11    1    3    3    0    0 -0.34274569676E+01 -0.60678723788E+00  0.18415731434E+01  0.39378984142E+01  0.51100000000E-03 0.  1.
         12    1    3    3    0    0  0.62855449357E+01 -0.49393202291E+01 -0.36649194041E+01  0.87941226796E+01  0.00000000000E+00 0. -1.
</event>
<event>
 7    1  0.2755991E-011  0.5052886E+02  0.7816164E-02  0.1300439E+00
        -11   -1    0    0    0    0  0.00000000000E+00  0.00000000000E+00  0.45593999997E+02  0.45594000000E+02  0.51100000000E-03 0.  1.
         11   -1    0    0    0    0 -0.00000000000E+00 -0.00000000000E+00 -0.45593999997E+02  0.45594000000E+02  0.51100000000E-03 0. -1.
    9900012    2    1    2    0    0  0.31545761888E+02  0.16434038539E+02  0.19696512805E+02  0.50528864096E+02  0.30000012906E+02 0.  0.
         12    1    1    2    0    0 -0.31545761888E+02 -0.16434038539E+02 -0.19696512805E+02  0.40659135904E+02  0.00000000000E+00 0. -1.
         11    1    3    3    0    0  0.35697230657E+01  0.20768291362E+00 -0.30673710640E+01  0.47111379161E+01  0.51100000000E-03 0. -1.
        -11    1    3    3    0    0  0.23901784890E+01 -0.55799871513E+01  0.45226299155E+01  0.75699003581E+01  0.51100000000E-03 0.  1.
        -12    1    3    3    0    0  0.25585860333E+02  0.21806342776E+02  0.18241253954E+02  0.38247825822E+02  0.00000000000E+00 0.  1.
</event>
<event>
 7    1  0.2755991E-011  0.5052887E+02  0.7816164E-02  0.1300439E+00
        -11   -1    0    0    0    0  0.00000000000E+00  0.00000000000E+00  0.45593999997E+02  0.45594000000E+02  0.51100000000E-03 0. -1.
         11   -1    0    0    0    0 -0.00000000000E+00 -0.00000000000E+00 -0.45593999997E+02  0.45594000000E+02  0.51100000000E-03 0.  1.
    9900012    2    1    2    0    0 -0.16341552690E+02 -0.32823011476E+02 -0.17571807641E+02  0.50528870023E+02  0.30000030923E+02 0.  0.
         12    1    1    2    0    0  0.16341552690E+02  0.32823011476E+02  0.17571807641E+02  0.40659129977E+02  0.00000000000E+00 0. -1.
         11    1    3    3    0    0 -0.29811471272E+01 -0.45859188017E+01 -0.51247002330E+01  0.74953613782E+01  0.51100000000E-03 0. -1.
        -11    1    3    3    0    0  0.63253214864E+01 -0.16790100211E+02 -0.87551777673E+01  0.19964225379E+02  0.51100000000E-03 0.  1.
         12    1    3    3    0    0 -0.19685727050E+02 -0.11446992463E+02 -0.36919296411E+01  0.23069283266E+02  0.00000000000E+00 0. -1.
</event>
<event>
 7    1  0.2755991E-011  0.5052886E+02  0.7816164E-02  0.1300439E+00
        -11   -1    0    0    0    0  0.00000000000E+00  0.00000000000E+00  0.45593999997E+02  0.45594000000E+02  0.51100000000E-03 0.  1.
         11   -1    0    0    0    0 -0.00000000000E+00 -0.00000000000E+00 -0.45593999997E+02  0.45594000000E+02  0.51100000000E-03 0. -1.
    9900012    2    1    2    0    0  0.33120289249E+02  0.20736298925E+02 -0.11234665560E+02  0.50528863717E+02  0.30000011754E+02 0.  0.
         12    1    1    2    0    0 -0.33120289249E+02 -0.20736298925E+02  0.11234665560E+02  0.40659136283E+02  0.00000000000E+00 0. -1.
         11    1    3    3    0    0 -0.21778222733E+01  0.52265930226E+01  0.12685218281E+01  0.58025281014E+01  0.51100000000E-03 0. -1.
        -11    1    3    3    0    0  0.17577872765E+02  0.39575717424E+01  0.33054119653E+01  0.18318562541E+02  0.51100000000E-03 0.  1.
         12    1    3    3    0    0  0.17720238757E+02  0.11552134160E+02 -0.15808599354E+02  0.26407773075E+02  0.00000000000E+00 0. -1.
</event>
<event>
 7    1  0.2755991E-011  0.5052886E+02  0.7816164E-02  0.1300439E+00
        -11   -1    0    0    0    0  0.00000000000E+00  0.00000000000E+00  0.45593999997E+02  0.45594000000E+02  0.51100000000E-03 0.  1.
         11   -1    0    0    0    0 -0.00000000000E+00 -0.00000000000E+00 -0.45593999997E+02  0.45594000000E+02  0.51100000000E-03 0. -1.
    9900012    2    1    2    0    0  0.40364443044E+01  0.39381066271E+02  0.92738759722E+01  0.50528855410E+02  0.29999986503E+02 0.  0.
         12    1    1    2    0    0 -0.40364443044E+01 -0.39381066271E+02 -0.92738759722E+01  0.40659144590E+02  0.00000000000E+00 0. -1.
         11    1    3    3    0    0 -0.15349105520E+01  0.75200491550E+01 -0.60939986353E+01  0.98001994533E+01  0.51100000000E-03 0. -1.
        -11    1    3    3    0    0  0.10641951432E+02  0.23977946124E+02  0.49168694110E+01  0.26690234837E+02  0.51100000000E-03 0.  1.
         12    1    3    3    0    0 -0.50705965753E+01  0.78830709918E+01  0.10451005197E+02  0.14038421119E+02  0.00000000000E+00 0. -1.
</event>
<event>
 7    1  0.2755991E-011  0.5052886E+02  0.7816164E-02  0.1300439E+00
        -11   -1    0    0    0    0  0.00000000000E+00  0.00000000000E+00  0.45593999997E+02  0.45594000000E+02  0.51100000000E-03 0. -1.
         11   -1    0    0    0    0 -0.00000000000E+00 -0.00000000000E+00 -0.45593999997E+02  0.45594000000E+02  0.51100000000E-03 0.  1.
    9900012    2    1    2    0    0  0.21389689365E+02 -0.19785418868E+02 -0.28358141102E+02  0.50528858621E+02  0.29999996265E+02 0.  0.
         12    1    1    2    0    0 -0.21389689365E+02  0.19785418868E+02  0.28358141102E+02  0.40659141379E+02  0.00000000000E+00 0. -1.
         11    1    3    3    0    0 -0.66515484202E+00 -0.13069238342E+02 -0.62640111883E+01  0.14508110084E+02  0.51100000000E-03 0. -1.
        -11    1    3    3    0    0  0.28339498725E+01 -0.81347687652E+00 -0.14063960840E+02  0.14369690716E+02  0.51100000000E-03 0.  1.
        -12    1    3    3    0    0  0.19220894334E+02 -0.59027036504E+01 -0.80301690731E+01  0.21651057820E+02  0.00000000000E+00 0.  1.
</event>
<event>
 7    1  0.2755991E-011  0.5052886E+02  0.7816164E-02  0.1300439E+00
        -11   -1    0    0    0    0  0.00000000000E+00  0.00000000000E+00  0.45593999997E+02  0.45594000000E+02  0.51100000000E-03 0.  1.
         11   -1    0    0    0    0 -0.00000000000E+00 -0.00000000000E+00 -0.45593999997E+02  0.45594000000E+02  0.51100000000E-03 0. -1.
    9900012    2    1    2    0    0  0.18363448163E+02  0.35028685292E+02 -0.94308298938E+01  0.50528861123E+02  0.30000003869E+02 0.  0.
         12    1    1    2    0    0 -0.18363448163E+02 -0.35028685292E+02  0.94308298938E+01  0.40659138877E+02  0.00000000000E+00 0. -1.
         11    1    3    3    0    0  0.54070254997E+01  0.28319387690E+01 -0.55073930532E+01  0.82211422837E+01  0.51100000000E-03 0. -1.
        -11    1    3    3    0    0  0.12656657423E+02  0.12718010736E+02 -0.11603202275E+02  0.21367570697E+02  0.51100000000E-03 0.  1.
        -12    1    3    3    0    0  0.29976524004E+00  0.19478735788E+02  0.76797654344E+01  0.20940148142E+02  0.00000000000E+00 0.  1.
</event>
<event>
 7    1  0.2755991E-011  0.5052886E+02  0.7816164E-02  0.1300439E+00
        -11   -1    0    0    0    0  0.00000000000E+00  0.00000000000E+00  0.45593999997E+02  0.45594000000E+02  0.51100000000E-03 0.  1.
         11   -1    0    0    0    0 -0.00000000000E+00 -0.00000000000E+00 -0.45593999997E+02  0.45594000000E+02  0.51100000000E-03 0. -1.
    9900012    2    1    2    0    0  0.79827190856E+01  0.11271888679E+01  0.39851867213E+02  0.50528859833E+02  0.29999999948E+02 0.  0.
         12    1    1    2    0    0 -0.79827190856E+01 -0.11271888679E+01 -0.39851867213E+02  0.40659140167E+02  0.00000000000E+00 0. -1.
         11    1    3    3    0    0  0.32395673901E+01  0.42368258599E+01 -0.17677789589E+00  0.53363602696E+01  0.51100000000E-03 0. -1.
        -11    1    3    3    0    0 -0.48236518565E+01 -0.82491638597E+01  0.13618611239E+02  0.16636793380E+02  0.51100000000E-03 0.  1.
        -12    1    3    3    0    0  0.95668035520E+01  0.51395268677E+01  0.26410033870E+02  0.28555706184E+02  0.00000000000E+00 0.  1.
</event>
<event>
 7    1  0.2755991E-011  0.5052886E+02  0.7816164E-02  0.1300439E+00
        -11   -1    0    0    0    0  0.00000000000E+00  0.00000000000E+00  0.45593999997E+02  0.45594000000E+02  0.51100000000E-03 0. -1.
         11   -1    0    0    0    0 -0.00000000000E+00 -0.00000000000E+00 -0.45593999997E+02  0.45594000000E+02  0.51100000000E-03 0.  1.
    9900012    2    1    2    0    0 -0.21786384481E+02  0.31687183947E+02  0.13207631328E+02  0.50528859569E+02  0.29999999147E+02 0.  0.
         12    1    1    2    0    0  0.21786384481E+02 -0.31687183947E+02 -0.13207631328E+02  0.40659140431E+02  0.00000000000E+00 0. -1.
         11    1    3    3    0    0 -0.51678037022E+01  0.25188855948E+02  0.96579054475E+01  0.27467431568E+02  0.51100000000E-03 0. -1.
        -11    1    3    3    0    0 -0.12334445472E+02  0.51509329472E+01  0.89132062772E+01  0.16065985862E+02  0.51100000000E-03 0.  1.
        -12    1    3    3    0    0 -0.42841353068E+01  0.13473950523E+01 -0.53634803968E+01  0.69954421390E+01  0.00000000000E+00 0.  1.
</event>
<event>
 7    1  0.2755991E-011  0.5052886E+02  0.7816164E-02  0.1300439E+00
        -11   -1    0    0    0    0  0.00000000000E+00  0.00000000000E+00  0.45593999997E+02  0.45594000000E+02  0.51100000000E-03 0.  1.
         11   -1    0    0    0    0 -0.00000000000E+00 -0.00000000000E+00 -0.45593999997E+02  0.45594000000E+02  0.51100000000E-03 0. -1.
    9900012    2    1    2    0    0  0.39705483371E+02  0.43992143352E+01  0.75688455947E+01  0.50528856870E+02  0.29999990941E+02 0.  0.
         12    1    1    2    0    0 -0.39705483371E+02 -0.43992143352E+01 -0.75688455947E+01  0.40659143130E+02  0.00000000000E+00 0. -1.
         11    1    3    3    0    0  0.22736485074E+01  0.34735359502E+01 -0.28642709574E+01  0.50437067630E+01  0.51100000000E-03 0. -1.
        -11    1    3    3    0    0  0.96578153291E+01  0.25672313315E+01 -0.74028690887E+01  0.12436500498E+02  0.51100000000E-03 0.  1.
        -12    1    3    3    0    0  0.27774019534E+02 -0.16415529466E+01  0.17835985641E+02  0.33048649608E+02  0.00000000000E+00 0.  1.
</event>
<event>
 7    1  0.2755991E-011  0.5052887E+02  0.7816164E-02  0.1300439E+00
        -11   -1    0    0    0    0  0.00000000000E+00  0.00000000000E+00  0.45593999997E+02  0.45594000000E+02  0.51100000000E-03 0.  1.
         11   -1    0    0    0    0 -0.00000000000E+00 -0.00000000000E+00 -0.45593999997E+02  0.45594000000E+02  0.51100000000E-03 0. -1.
    9900012    2    1    2    0    0 -0.36919884595E+02  0.12606351388E+02 -0.11452821516E+02  0.50528867022E+02  0.30000021801E+02 0.  0.
         12    1    1    2    0    0  0.36919884595E+02 -0.12606351388E+02  0.11452821516E+02  0.40659132978E+02  0.00000000000E+00 0. -1.
         11    1    3    3    0    0 -0.14052904424E+02  0.18888007539E+02 -0.49797337770E+01  0.24063222983E+02  0.51100000000E-03 0. -1.
        -11    1    3    3    0    0 -0.13259996514E+02 -0.63382767883E+00  0.56143251221E+00  0.13287003116E+02  0.51100000000E-03 0.  1.
        -12    1    3    3    0    0 -0.96069836566E+01 -0.56478284725E+01 -0.70345202511E+01  0.13178640924E+02  0.00000000000E+00 0.  1.
</event>
<event>
 7    1  0.2755991E-011  0.5052886E+02  0.7816164E-02  0.1300439E+00
        -11   -1    0    0    0    0  0.00000000000E+00  0.00000000000E+00  0.45593999997E+02  0.45594000000E+02  0.51100000000E-03 0. -1.
         11   -1    0    0    0    0 -0.00000000000E+00 -0.00000000000E+00 -0.45593999997E+02  0.45594000000E+02  0.51100000000E-03 0.  1.
    9900012    2    1    2    0    0 -0.74348124690E-01 -0.32706213965E+02 -0.24154985106E+02  0.50528864925E+02  0.30000015427E+02 0.  0.
         12    1    1    2    0    0  0.74348124690E-01  0.32706213965E+02  0.24154985106E+02  0.40659135075E+02  0.00000000000E+00 0. -1.
         11    1    3    3    0    0  0.29686502835E+01 -0.74894407286E+01  0.29735517563E+01  0.85875850646E+01  0.51100000000E-03 0. -1.
        -11    1    3    3    0    0 -0.93671461876E+01 -0.20986615277E+02 -0.14426844768E+02  0.27135130342E+02  0.51100000000E-03 0.  1.
        -12    1    3    3    0    0  0.63241477794E+01 -0.42301579593E+01 -0.12701692094E+02  0.14806149518E+02  0.00000000000E+00 0.  1.
</event>
<event>
 7    1  0.2755991E-011  0.5052886E+02  0.7816164E-02  0.1300439E+00
        -11   -1    0    0    0    0  0.00000000000E+00  0.00000000000E+00  0.45593999997E+02  0.45594000000E+02  0.51100000000E-03 0.  1.
         11   -1    0    0    0    0 -0.00000000000E+00 -0.00000000000E+00 -0.45593999997E+02  0.45594000000E+02  0.51100000000E-03 0. -1.
    9900012    2    1    2    0    0 -0.35557290708E+01  0.39738210546E+02  0.78356542795E+01  0.50528855093E+02  0.29999985539E+02 0.  0.
         12    1    1    2    0    0  0.35557290708E+01 -0.39738210546E+02 -0.78356542795E+01  0.40659144907E+02  0.00000000000E+00 0. -1.
         11    1    3    3    0    0  0.66386600054E+01  0.85641741930E+01 -0.14072401053E+01  0.10926903095E+02  0.51100000000E-03 0. -1.
        -11    1    3    3    0    0 -0.48199035618E+01  0.25980393785E+02 -0.15554224663E+01  0.26469447877E+02  0.51100000000E-03 0.  1.
         12    1    3    3    0    0 -0.53744855145E+01  0.51936425677E+01  0.10798316851E+02  0.13132504121E+02  0.00000000000E+00 0. -1.
</event>
<event>
 7    1  0.2755991E-011  0.5052886E+02  0.7816164E-02  0.1300439E+00
        -11   -1    0    0    0    0  0.00000000000E+00  0.00000000000E+00  0.45593999997E+02  0.45594000000E+02  0.51100000000E-03 0. -1.
         11   -1    0    0    0    0 -0.00000000000E+00 -0.00000000000E+00 -0.45593999997E+02  0.45594000000E+02  0.51100000000E-03 0.  1.
    9900012    2    1    2    0    0  0.34241054525E+02  0.14724552379E+02 -0.16245096335E+02  0.50528863110E+02  0.30000009909E+02 0.  0.
         12    1    1    2    0    0 -0.34241054525E+02 -0.14724552379E+02  0.16245096335E+02  0.40659136890E+02  0.00000000000E+00 0. -1.
         11    1    3    3    0    0  0.20996242753E+00 -0.33664892795E+01 -0.42626974039E+01  0.54358001902E+01  0.51100000000E-03 0. -1.
        -11    1    3    3    0    0  0.12805878370E+02  0.75757222313E+01 -0.15103261784E+02  0.21201193479E+02  0.51100000000E-03 0.  1.
         12    1    3    3    0    0  0.21225213727E+02  0.10515319427E+02  0.31208628533E+01  0.23891869441E+02  0.00000000000E+00 0. -1.
</event>
<event>
 7    1  0.2755991E-011  0.5052886E+02  0.7816164E-02  0.1300439E+00
        -11   -1    0    0    0    0  0.00000000000E+00  0.00000000000E+00  0.45593999997E+02  0.45594000000E+02  0.51100000000E-03 0.  1.
         11   -1    0    0    0    0 -0.00000000000E+00 -0.00000000000E+00 -0.45593999997E+02  0.45594000000E+02  0.51100000000E-03 0. -1.
    9900012    2    1    2    0    0  0.12221236912E+00  0.21626943865E+02  0.34430015509E+02  0.50528860747E+02  0.30000002728E+02 0.  0.
         12    1    1    2    0    0 -0.12221236912E+00 -0.21626943865E+02 -0.34430015509E+02  0.40659139253E+02  0.00000000000E+00 0. -1.
         11    1    3    3    0    0 -0.44695555412E+01  0.35979253111E+01 -0.20376978215E+01  0.60888591668E+01  0.51100000000E-03 0. -1.
        -11    1    3    3    0    0 -0.45021797550E+01  0.92209634031E+01  0.71534448922E+01  0.12508699481E+02  0.51100000000E-03 0.  1.
         12    1    3    3    0    0  0.90939476653E+01  0.88080551504E+01  0.29314268439E+02  0.31931302099E+02  0.00000000000E+00 0. -1.
</event>
<event>
 7    1  0.2755991E-011  0.5052886E+02  0.7816164E-02  0.1300439E+00
        -11   -1    0    0    0    0  0.00000000000E+00  0.00000000000E+00  0.45593999997E+02  0.45594000000E+02  0.51100000000E-03 0.  1.
         11   -1    0    0    0    0 -0.00000000000E+00 -0.00000000000E+00 -0.45593999997E+02  0.45594000000E+02  0.51100000000E-03 0. -1.
    9900012    2    1    2    0    0  0.12626225359E+02  0.19564607432E+02  0.33331214548E+02  0.50528864568E+02  0.30000014342E+02 0.  0.
         12    1    1    2    0    0 -0.12626225359E+02 -0.19564607432E+02 -0.33331214548E+02  0.40659135432E+02  0.00000000000E+00 0. -1.
         11    1    3    3    0    0  0.56560685417E+01  0.22407102085E+01 -0.12168855451E+01  0.62042488891E+01  0.51100000000E-03 0. -1.
        -11    1    3    3    0    0  0.10757290035E+02  0.12869187417E+01  0.99017689244E+01  0.14677209436E+02  0.51100000000E-03 0.  1.
         12    1    3    3    0    0 -0.37871332179E+01  0.16036978482E+02  0.24646331169E+02  0.29647406243E+02  0.00000000000E+00 0. -1.
</event>
<event>
 7    1  0.2755991E-011  0.5052886E+02  0.7816164E-02  0.1300439E+00
        -11   -1    0    0    0    0  0.00000000000E+00  0.00000000000E+00  0.45593999997E+02  0.45594000000E+02  0.51100000000E-03 0.  1.
         11   -1    0    0    0    0 -0.00000000000E+00 -0.00000000000E+00 -0.45593999997E+02  0.45594000000E+02  0.51100000000E-03 0. -1.
    9900012    2    1    2    0    0  0.23120116940E+02 -0.29111213455E+01  0.33318931782E+02  0.50528860193E+02  0.30000001042E+02 0.  0.
         12    1    1    2    0    0 -0.23120116940E+02  0.29111213455E+01 -0.33318931782E+02  0.40659139807E+02  0.00000000000E+00 0. -1.
         11    1    3    3    0    0  0.14098485861E+01 -0.34976706519E+00  0.84341239458E+01  0.85582975544E+01  0.51100000000E-03 0. -1.
        -11    1    3    3    0    0  0.14740530836E+02 -0.44993682618E+01  0.29574463224E+02  0.33349309428E+02  0.51100000000E-03 0.  1.
         12    1    3    3    0    0  0.69697375182E+01  0.19380139815E+01 -0.46896553879E+01  0.86212532106E+01  0.00000000000E+00 0. -1.
</event>
<event>
 7    1  0.2755991E-011  0.5052886E+02  0.7816164E-02  0.1300439E+00
        -11   -1    0    0    0    0  0.00000000000E+00  0.00000000000E+00  0.45593999997E+02  0.45594000000E+02  0.51100000000E-03 0.  1.
         11   -1    0    0    0    0 -0.00000000000E+00 -0.00000000000E+00 -0.45593999997E+02  0.45594000000E+02  0.51100000000E-03 0. -1.
    9900012    2    1    2    0    0  0.34437329432E+02  0.77917596862E+01  0.20162459611E+02  0.50528856441E+02  0.29999989637E+02 0.  0.
         12    1    1    2    0    0 -0.34437329432E+02 -0.77917596862E+01 -0.20162459611E+02  0.40659143559E+02  0.00000000000E+00 0. -1.
         11    1    3    3    0    0  0.76872744432E+01 -0.65794898845E+01  0.69276241263E+01  0.12262783200E+02  0.51100000000E-03 0. -1.
        -11    1    3    3    0    0  0.15401931713E+02 -0.22101362042E+01  0.35432958471E+01  0.15958043371E+02  0.51100000000E-03 0.  1.
        -12    1    3    3    0    0  0.11348123276E+02  0.16581385775E+02  0.96915396377E+01  0.22308029869E+02  0.00000000000E+00 0.  1.
</event>
<event>
 7    1  0.2755991E-011  0.5052881E+02  0.7816164E-02  0.1300439E+00
        -11   -1    0    0    0    0  0.00000000000E+00  0.00000000000E+00  0.45593999997E+02  0.45594000000E+02  0.51100000000E-03 0.  1.
         11   -1    0    0    0    0 -0.00000000000E+00 -0.00000000000E+00 -0.45593999997E+02  0.45594000000E+02  0.51100000000E-03 0. -1.
    9900012    2    1    2    0    0  0.17809862678E+02 -0.40940553515E+00  0.36548751866E+02  0.50528805659E+02  0.29999835281E+02 0.  0.
         12    1    1    2    0    0 -0.17809862678E+02  0.40940553515E+00 -0.36548751866E+02  0.40659194341E+02  0.00000000000E+00 0. -1.
         11    1    3    3    0    0  0.18996452846E+01 -0.11106538427E+01  0.70258313315E+00  0.23099410135E+01  0.51100000000E-03 0. -1.
        -11    1    3    3    0    0  0.11777027635E+01 -0.10996335640E+02  0.22755624607E+02  0.25300688386E+02  0.51100000000E-03 0.  1.
         12    1    3    3    0    0  0.14732514630E+02  0.11697583948E+02  0.13090544126E+02  0.22918176259E+02  0.00000000000E+00 0. -1.
</event>
<event>
 7    1  0.2755991E-011  0.5052886E+02  0.7816164E-02  0.1300439E+00
        -11   -1    0    0    0    0  0.00000000000E+00  0.00000000000E+00  0.45593999997E+02  0.45594000000E+02  0.51100000000E-03 0.  1.
         11   -1    0    0    0    0 -0.00000000000E+00 -0.00000000000E+00 -0.45593999997E+02  0.45594000000E+02  0.51100000000E-03 0. -1.
    9900012    2    1    2    0    0 -0.39082265459E+01  0.39717604071E+02  0.77719458535E+01  0.50528862648E+02  0.30000008503E+02 0.  0.
         12    1    1    2    0    0  0.39082265459E+01 -0.39717604071E+02 -0.77719458535E+01  0.40659137352E+02  0.00000000000E+00 0. -1.
         11    1    3    3    0    0 -0.12643575532E+01 -0.11790288719E+01  0.58802526442E+01  0.61291174344E+01  0.51100000000E-03 0. -1.
        -11    1    3    3    0    0  0.55791782827E+01  0.13840046229E+02 -0.41382044415E+01  0.15485439813E+02  0.51100000000E-03 0.  1.
         12    1    3    3    0    0 -0.82230472753E+01  0.27056586714E+02  0.60298976508E+01  0.28914305401E+02  0.00000000000E+00 0. -1.
</event>
<event>
 7    1  0.2755991E-011  0.5052889E+02  0.7816164E-02  0.1300439E+00
        -11   -1    0    0    0    0  0.00000000000E+00  0.00000000000E+00  0.45593999997E+02  0.45594000000E+02  0.51100000000E-03 0. -1.
         11   -1    0    0    0    0 -0.00000000000E+00 -0.00000000000E+00 -0.45593999997E+02  0.45594000000E+02  0.51100000000E-03 0.  1.
    9900012    2    1    2    0    0  0.11031952458E+02 -0.17792335145E+02 -0.34855304662E+02  0.50528887515E+02  0.30000084091E+02 0.  0.
         12    1    1    2    0    0 -0.11031952458E+02  0.17792335145E+02  0.34855304662E+02  0.40659112485E+02  0.00000000000E+00 0. -1.
         11    1    3    3    0    0 -0.10117769471E+01 -0.48164464731E+01 -0.20589665228E+01  0.53349032439E+01  0.51100000000E-03 0. -1.
        -11    1    3    3    0    0 -0.20257165913E+01 -0.13796759293E+02 -0.65570774415E+01  0.15409391926E+02  0.51100000000E-03 0.  1.
        -12    1    3    3    0    0  0.14069445996E+02  0.82087062064E+00 -0.26239260698E+02  0.29784592345E+02  0.00000000000E+00 0.  1.
</event>
<event>
 7    1  0.2755991E-011  0.5052879E+02  0.7816164E-02  0.1300439E+00
        -11   -1    0    0    0    0  0.00000000000E+00  0.00000000000E+00  0.45593999997E+02  0.45594000000E+02  0.51100000000E-03 0.  1.
         11   -1    0    0    0    0 -0.00000000000E+00 -0.00000000000E+00 -0.45593999997E+02  0.45594000000E+02  0.51100000000E-03 0. -1.
    9900012    2    1    2    0    0 -0.11064274080E+02 -0.57438962963E+01  0.38700919244E+02  0.50528786334E+02  0.29999776541E+02 0.  0.
         12    1    1    2    0    0  0.11064274080E+02  0.57438962963E+01 -0.38700919244E+02  0.40659213666E+02  0.00000000000E+00 0. -1.
         11    1    3    3    0    0  0.17827903299E+01 -0.62588182941E+01 -0.11676828399E+01  0.66117041127E+01  0.51100000000E-03 0. -1.
        -11    1    3    3    0    0 -0.60819744401E-01  0.12745428136E+01 -0.64295837218E+00  0.14288296450E+01  0.51100000000E-03 0.  1.
        -12    1    3    3    0    0 -0.12786244666E+02 -0.75962081586E+00  0.40511560456E+02  0.42488252577E+02  0.00000000000E+00 0.  1.
</event>
<event>
 7    1  0.2755991E-011  0.5052886E+02  0.7816164E-02  0.1300439E+00
        -11   -1    0    0    0    0  0.00000000000E+00  0.00000000000E+00  0.45593999997E+02  0.45594000000E+02  0.51100000000E-03 0. -1.
         11   -1    0    0    0    0 -0.00000000000E+00 -0.00000000000E+00 -0.45593999997E+02  0.45594000000E+02  0.51100000000E-03 0.  1.
    9900012    2    1    2    0    0 -0.34631389039E+02 -0.43549566838E+01 -0.20853468051E+02  0.50528857310E+02  0.29999992280E+02 0.  0.
         12    1    1    2    0    0  0.34631389039E+02  0.43549566838E+01  0.20853468051E+02  0.40659142690E+02  0.00000000000E+00 0. -1.
         11    1    3    3    0    0 -0.11984832894E+02  0.40146990654E+01 -0.16628669166E+02  0.20886997548E+02  0.51100000000E-03 0. -1.
        -11    1    3    3    0    0 -0.36655476199E+01 -0.29264494434E+01 -0.82495868195E+01  0.94897854903E+01  0.51100000000E-03 0.  1.
         12    1    3    3    0    0 -0.18981008526E+02 -0.54432063058E+01  0.40247879347E+01  0.20152074272E+02  0.00000000000E+00 0. -1.
</event>
<event>
 7    1  0.2755991E-011  0.5052885E+02  0.7816164E-02  0.1300439E+00
        -11   -1    0    0    0    0  0.00000000000E+00  0.00000000000E+00  0.45593999997E+02  0.45594000000E+02  0.51100000000E-03 0.  1.
         11   -1    0    0    0    0 -0.00000000000E+00 -0.00000000000E+00 -0.45593999997E+02  0.45594000000E+02  0.51100000000E-03 0. -1.
    9900012    2    1    2    0    0  0.14005152383E+02 -0.14458369176E+02  0.35326723296E+02  0.50528854518E+02  0.29999983793E+02 0.  0.
         12    1    1    2    0    0 -0.14005152383E+02  0.14458369176E+02 -0.35326723296E+02  0.40659145482E+02  0.00000000000E+00 0. -1.
         11    1    3    3    0    0  0.13217164738E+02 -0.79000255774E+01  0.25118864720E+02  0.29462878558E+02  0.51100000000E-03 0. -1.
        -11    1    3    3    0    0  0.72416536381E+01  0.18093528871E+01  0.64037342599E+01  0.98347912035E+01  0.51100000000E-03 0.  1.
         12    1    3    3    0    0 -0.64536659930E+01 -0.83676964855E+01  0.38041243160E+01  0.11231184757E+02  0.00000000000E+00 0. -1.
</event>
<event>
 7    1  0.2755991E-011  0.5052887E+02  0.7816164E-02  0.1300439E+00
        -11   -1    0    0    0    0  0.00000000000E+00  0.00000000000E+00  0.45593999997E+02  0.45594000000E+02  0.51100000000E-03 0.  1.
         11   -1    0    0    0    0 -0.00000000000E+00 -0.00000000000E+00 -0.45593999997E+02  0.45594000000E+02  0.51100000000E-03 0. -1.
    9900012    2    1    2    0    0  0.24466800510E+02 -0.12539475808E+02  0.29954999689E+02  0.50528870802E+02  0.30000033290E+02 0.  0.
         12    1    1    2    0    0 -0.24466800510E+02  0.12539475808E+02 -0.29954999689E+02  0.40659129198E+02  0.00000000000E+00 0. -1.
         11    1    3    3    0    0  0.13279144190E+02 -0.21362993353E+02  0.16951222065E+02  0.30332442783E+02  0.51100000000E-03 0.  1.
        -11    1    3    3    0    0  0.14519902584E+01  0.17795300956E+01  0.56726893252E+01  0.61200006138E+01  0.51100000000E-03 0. -1.
        -12    1    3    3    0    0  0.97356660621E+01  0.70439874491E+01  0.73310882993E+01  0.14076427406E+02  0.00000000000E+00 0.  1.
</event>
<event>
 7    1  0.2755991E-011  0.5052886E+02  0.7816164E-02  0.1300439E+00
        -11   -1    0    0    0    0  0.00000000000E+00  0.00000000000E+00  0.45593999997E+02  0.45594000000E+02  0.51100000000E-03 0. -1.
         11   -1    0    0    0    0 -0.00000000000E+00 -0.00000000000E+00 -0.45593999997E+02  0.45594000000E+02  0.51100000000E-03 0.  1.
    9900012    2    1    2    0    0  0.90665331631E+01 -0.81781469239E+01 -0.38782491621E+02  0.50528858752E+02  0.29999996661E+02 0.  0.
         12    1    1    2    0    0 -0.90665331631E+01  0.81781469239E+01  0.38782491621E+02  0.40659141248E+02  0.00000000000E+00 0. -1.
         11    1    3    3    0    0 -0.54608493363E+01  0.48015679351E+01 -0.70800737850E+01  0.10149057846E+02  0.51100000000E-03 0. -1.
        -11    1    3    3    0    0 -0.21499306339E+01 -0.31846922798E+01 -0.80152153045E+00  0.39251628848E+01  0.51100000000E-03 0.  1.
        -12    1    3    3    0    0  0.16677313133E+02 -0.97950225792E+01 -0.30900896306E+02  0.36454638020E+02  0.00000000000E+00 0.  1.
</event>
<event>
 7    1  0.2755991E-011  0.5052885E+02  0.7816164E-02  0.1300439E+00
        -11   -1    0    0    0    0  0.00000000000E+00  0.00000000000E+00  0.45593999997E+02  0.45594000000E+02  0.51100000000E-03 0.  1.
         11   -1    0    0    0    0 -0.00000000000E+00 -0.00000000000E+00 -0.45593999997E+02  0.45594000000E+02  0.51100000000E-03 0. -1.
    9900012    2    1    2    0    0 -0.39585128643E+02  0.92753304655E+01  0.39048255027E+00  0.50528847997E+02  0.29999963973E+02 0.  0.
         12    1    1    2    0    0  0.39585128643E+02 -0.92753304655E+01 -0.39048255027E+00  0.40659152003E+02  0.00000000000E+00 0. -1.
         11    1    3    3    0    0 -0.66269148542E+01 -0.38385754009E+01  0.62703115270E+01  0.98978517114E+01  0.51100000000E-03 0. -1.
        -11    1    3    3    0    0  0.17030674608E+01  0.39323566554E+01 -0.13288221167E+01  0.44866063032E+01  0.51100000000E-03 0.  1.
         12    1    3    3    0    0 -0.34661281250E+02  0.91815492110E+01 -0.45510068600E+01  0.36144389983E+02  0.00000000000E+00 0. -1.
</event>
<event>
 7    1  0.2755991E-011  0.5052884E+02  0.7816164E-02  0.1300439E+00
        -11   -1    0    0    0    0  0.00000000000E+00  0.00000000000E+00  0.45593999997E+02  0.45594000000E+02  0.51100000000E-03 0.  1.
         11   -1    0    0    0    0 -0.00000000000E+00 -0.00000000000E+00 -0.45593999997E+02  0.45594000000E+02  0.51100000000E-03 0. -1.
    9900012    2    1    2    0    0  0.30183431332E+02  0.13650627716E+02  0.23575158158E+02  0.50528840562E+02  0.29999941372E+02 0.  0.
         12    1    1    2    0    0 -0.30183431332E+02 -0.13650627716E+02 -0.23575158158E+02  0.40659159438E+02  0.00000000000E+00 0. -1.
         11    1    3    3    0    0 -0.12960171094E+01 -0.99348172492E+00 -0.36342933069E+01  0.39843135403E+01  0.51100000000E-03 0. -1.
        -11    1    3    3    0    0  0.25341302010E+02  0.84727632477E+01  0.12607632389E+02  0.29545248338E+02  0.51100000000E-03 0.  1.
         12    1    3    3    0    0  0.61381464316E+01  0.61713461936E+01  0.14601819076E+02  0.16999278684E+02  0.00000000000E+00 0. -1.
</event>
<event>
 7    1  0.2755991E-011  0.5052882E+02  0.7816164E-02  0.1300439E+00
        -11   -1    0    0    0    0  0.00000000000E+00  0.00000000000E+00  0.45593999997E+02  0.45594000000E+02  0.51100000000E-03 0. -1.
         11   -1    0    0    0    0 -0.00000000000E+00 -0.00000000000E+00 -0.45593999997E+02  0.45594000000E+02  0.51100000000E-03 0.  1.
    9900012    2    1    2    0    0 -0.23088558786E+01 -0.57783278711E+01 -0.40180207811E+02  0.50528819141E+02  0.29999876260E+02 0.  0.
         12    1    1    2    0    0  0.23088558786E+01  0.57783278711E+01  0.40180207811E+02  0.40659180859E+02  0.00000000000E+00 0. -1.
         11    1    3    3    0    0  0.61235714821E+01 -0.28857940054E+01 -0.24021120494E+02  0.24956765912E+02  0.51100000000E-03 0. -1.
        -11    1    3    3    0    0 -0.24746842132E+01 -0.44521870173E+01 -0.18343515570E+02  0.19037610011E+02  0.51100000000E-03 0.  1.
         12    1    3    3    0    0 -0.59577431475E+01  0.15596531515E+01  0.21844282539E+01  0.65344432174E+01  0.00000000000E+00 0. -1.
</event>
<event>
 7    1  0.2755991E-011  0.5052886E+02  0.7816164E-02  0.1300439E+00
        -11   -1    0    0    0    0  0.00000000000E+00  0.00000000000E+00  0.45593999997E+02  0.45594000000E+02  0.51100000000E-03 0.  1.
         11   -1    0    0    0    0 -0.00000000000E+00 -0.00000000000E+00 -0.45593999997E+02  0.45594000000E+02  0.51100000000E-03 0. -1.
    9900012    2    1    2    0    0  0.39744894254E+02  0.85737487074E+01 -0.48725091763E-02  0.50528858224E+02  0.29999995059E+02 0.  0.
         12    1    1    2    0    0 -0.39744894254E+02 -0.85737487074E+01  0.48725091763E-02  0.40659141776E+02  0.00000000000E+00 0. -1.
         11    1    3    3    0    0  0.56019385739E+00  0.19509575421E+01  0.36576387684E+01  0.41831057972E+01  0.51100000000E-03 0. -1.
        -11    1    3    3    0    0 -0.26807013694E+00 -0.19399748701E+01  0.47228542935E+01  0.51127993344E+01  0.51100000000E-03 0.  1.
        -12    1    3    3    0    0  0.39452770534E+02  0.85627660354E+01 -0.83853655711E+01  0.41232953093E+02  0.00000000000E+00 0.  1.
</event>
<event>
 7    1  0.2755991E-011  0.5052882E+02  0.7816164E-02  0.1300439E+00
        -11   -1    0    0    0    0  0.00000000000E+00  0.00000000000E+00  0.45593999997E+02  0.45594000000E+02  0.51100000000E-03 0.  1.
         11   -1    0    0    0    0 -0.00000000000E+00 -0.00000000000E+00 -0.45593999997E+02  0.45594000000E+02  0.51100000000E-03 0. -1.
    9900012    2    1    2    0    0 -0.19614666732E+01 -0.18354187889E+02  0.36227685231E+02  0.50528822171E+02  0.29999885470E+02 0.  0.
         12    1    1    2    0    0  0.19614666732E+01  0.18354187889E+02 -0.36227685231E+02  0.40659177829E+02  0.00000000000E+00 0. -1.
         11    1    3    3    0    0  0.23814440884E+01  0.40515474800E+01  0.66657759986E+01  0.81559109150E+01  0.51100000000E-03 0. -1.
        -11    1    3    3    0    0 -0.68544509706E+00  0.38177513867E+01  0.38955190261E+01  0.54972838180E+01  0.51100000000E-03 0.  1.
        -12    1    3    3    0    0 -0.36574656645E+01 -0.26223486756E+02  0.25666390206E+02  0.36875627438E+02  0.00000000000E+00 0.  1.
</event>
<event>
 7    1  0.2755991E-011  0.5052887E+02  0.7816164E-02  0.1300439E+00
        -11   -1    0    0    0    0  0.00000000000E+00  0.00000000000E+00  0.45593999997E+02  0.45594000000E+02  0.51100000000E-03 0. -1.
         11   -1    0    0    0    0 -0.00000000000E+00 -0.00000000000E+00 -0.45593999997E+02  0.45594000000E+02  0.51100000000E-03 0.  1.
    9900012    2    1    2    0    0  0.36113402291E+02 -0.15860263078E+02 -0.98711381929E+01  0.50528866473E+02  0.30000020132E+02 0.  0.
         12    1    1    2    0    0 -0.36113402291E+02  0.15860263078E+02  0.98711381929E+01  0.40659133527E+02  0.00000000000E+00 0. -1.
         11    1    3    3    0    0  0.48299735651E+01  0.42881591658E+01 -0.52308555345E+01  0.83113659259E+01  0.51100000000E-03 0. -1.
        -11    1    3    3    0    0  0.65622107455E+01 -0.19165629883E+01 -0.88826890266E+01  0.11208835272E+02  0.51100000000E-03 0.  1.
         12    1    3    3    0    0  0.24721217980E+02 -0.18231859256E+02  0.42424063682E+01  0.31008665275E+02  0.00000000000E+00 0. -1.
</event>
<event>
 7    1  0.2755991E-011  0.5052884E+02  0.7816164E-02  0.1300439E+00
        -11   -1    0    0    0    0  0.00000000000E+00  0.00000000000E+00  0.45593999997E+02  0.45594000000E+02  0.51100000000E-03 0.  1.
         11   -1    0    0    0    0 -0.00000000000E+00 -0.00000000000E+00 -0.45593999997E+02  0.45594000000E+02  0.51100000000E-03 0. -1.
    9900012    2    1    2    0    0  0.39800746889E+01  0.39789019632E+02  0.73593594685E+01  0.50528840520E+02  0.29999941244E+02 0.  0.
         12    1    1    2    0    0 -0.39800746889E+01 -0.39789019632E+02 -0.73593594685E+01  0.40659159480E+02  0.00000000000E+00 0. -1.
         11    1    3    3    0    0  0.16561818536E+01  0.12706429163E+02 -0.91792010464E+01  0.15762424068E+02  0.51100000000E-03 0. -1.
        -11    1    3    3    0    0 -0.22872421535E+01  0.50421712757E+01 -0.16970181433E+01  0.57909272731E+01  0.51100000000E-03 0.  1.
        -12    1    3    3    0    0  0.46111349887E+01  0.22040419194E+02  0.18235578658E+02  0.28975489179E+02  0.00000000000E+00 0.  1.
</event>
<event>
 7    1  0.2755991E-011  0.5052886E+02  0.7816164E-02  0.1300439E+00
        -11   -1    0    0    0    0  0.00000000000E+00  0.00000000000E+00  0.45593999997E+02  0.45594000000E+02  0.51100000000E-03 0.  1.
         11   -1    0    0    0    0 -0.00000000000E+00 -0.00000000000E+00 -0.45593999997E+02  0.45594000000E+02  0.51100000000E-03 0. -1.
    9900012    2    1    2    0    0 -0.28790746400E+02  0.10878918756E+02  0.26568930534E+02  0.50528855625E+02  0.29999987158E+02 0.  0.
         12    1    1    2    0    0  0.28790746400E+02 -0.10878918756E+02 -0.26568930534E+02  0.40659144375E+02  0.00000000000E+00 0. -1.
         11    1    3    3    0    0 -0.16376198808E+02 -0.12221892888E+01  0.71411406944E+01  0.17907247827E+02  0.51100000000E-03 0. -1.
        -11    1    3    3    0    0 -0.17444522373E+02  0.64963411682E+01  0.12815367971E+02  0.22599722695E+02  0.51100000000E-03 0.  1.
        -12    1    3    3    0    0  0.50299747814E+01  0.56047668769E+01  0.66124218691E+01  0.10021885103E+02  0.00000000000E+00 0.  1.
</event>
<event>
 7    1  0.2755991E-011  0.5052890E+02  0.7816164E-02  0.1300439E+00
        -11   -1    0    0    0    0  0.00000000000E+00  0.00000000000E+00  0.45593999997E+02  0.45594000000E+02  0.51100000000E-03 0.  1.
         11   -1    0    0    0    0 -0.00000000000E+00 -0.00000000000E+00 -0.45593999997E+02  0.45594000000E+02  0.51100000000E-03 0. -1.
    9900012    2    1    2    0    0  0.37253694460E+02  0.61060209267E+01  0.15101037649E+02  0.50528897937E+02  0.30000115770E+02 0.  0.
         12    1    1    2    0    0 -0.37253694460E+02 -0.61060209267E+01 -0.15101037649E+02  0.40659102063E+02  0.00000000000E+00 0. -1.
         11    1    3    3    0    0  0.11323682608E+02  0.13342706198E+02  0.44910191135E+01  0.18067176023E+02  0.51100000000E-03 0. -1.
        -11    1    3    3    0    0  0.91491297292E+01 -0.16538144265E+01 -0.34000733616E+01  0.98996048448E+01  0.51100000000E-03 0.  1.
        -12    1    3    3    0    0  0.16780882122E+02 -0.55828708452E+01  0.14010091897E+02  0.22562117069E+02  0.00000000000E+00 0.  1.
</event>
<event>
 7    1  0.2755991E-011  0.5052886E+02  0.7816164E-02  0.1300439E+00
        -11   -1    0    0    0    0  0.00000000000E+00  0.00000000000E+00  0.45593999997E+02  0.45594000000E+02  0.51100000000E-03 0.  1.
         11   -1    0    0    0    0 -0.00000000000E+00 -0.00000000000E+00 -0.45593999997E+02  0.45594000000E+02  0.51100000000E-03 0. -1.
    9900012    2    1    2    0    0  0.29001623654E+02 -0.21527798762E+02  0.18671506567E+02  0.50528862631E+02  0.30000008453E+02 0.  0.
         12    1    1    2    0    0 -0.29001623654E+02  0.21527798762E+02 -0.18671506567E+02  0.40659137369E+02  0.00000000000E+00 0. -1.
         11    1    3    3    0    0  0.20201084529E+02 -0.14678919468E+02  0.45471226491E+01  0.25381702416E+02  0.51100000000E-03 0. -1.
        -11    1    3    3    0    0  0.63284371499E+01 -0.12555772192E+02  0.12258751990E+02  0.18654048695E+02  0.51100000000E-03 0.  1.
         12    1    3    3    0    0  0.24721019750E+01  0.57068928975E+01  0.18656319280E+01  0.64931115199E+01  0.00000000000E+00 0. -1.
</event>
<event>
 7    1  0.2755991E-011  0.5052886E+02  0.7816164E-02  0.1300439E+00
        -11   -1    0    0    0    0  0.00000000000E+00  0.00000000000E+00  0.45593999997E+02  0.45594000000E+02  0.51100000000E-03 0.  1.
         11   -1    0    0    0    0 -0.00000000000E+00 -0.00000000000E+00 -0.45593999997E+02  0.45594000000E+02  0.51100000000E-03 0. -1.
    9900012    2    1    2    0    0  0.23060009717E+02  0.33364005056E+02  0.28713368133E+01  0.50528862569E+02  0.30000008264E+02 0.  0.
         12    1    1    2    0    0 -0.23060009717E+02 -0.33364005056E+02 -0.28713368133E+01  0.40659137431E+02  0.00000000000E+00 0. -1.
         11    1    3    3    0    0  0.60957483671E+01  0.17028731936E+02  0.68061040413E+01  0.19325085045E+02  0.51100000000E-03 0. -1.
        -11    1    3    3    0    0  0.11683606983E+02  0.19951768122E+02  0.96829790624E+00  0.23141247253E+02  0.51100000000E-03 0.  1.
         12    1    3    3    0    0  0.52806543676E+01 -0.36164950024E+01 -0.49030651343E+01  0.80625302705E+01  0.00000000000E+00 0. -1.
</event>
<event>
 7    1  0.2755991E-011  0.5052886E+02  0.7816164E-02  0.1300439E+00
        -11   -1    0    0    0    0  0.00000000000E+00  0.00000000000E+00  0.45593999997E+02  0.45594000000E+02  0.51100000000E-03 0. -1.
         11   -1    0    0    0    0 -0.00000000000E+00 -0.00000000000E+00 -0.45593999997E+02  0.45594000000E+02  0.51100000000E-03 0.  1.
    9900012    2    1    2    0    0  0.22302951684E+02 -0.33670504337E+02 -0.46948198559E+01  0.50528857736E+02  0.29999993575E+02 0.  0.
         12    1    1    2    0    0 -0.22302951684E+02  0.33670504337E+02  0.46948198559E+01  0.40659142264E+02  0.00000000000E+00 0. -1.
         11    1    3    3    0    0  0.39527261829E+01 -0.41535936238E+01  0.91137013923E+00  0.58057712718E+01  0.51100000000E-03 0. -1.
        -11    1    3    3    0    0  0.37247089700E+00 -0.24412647516E+02 -0.84148205988E+01  0.25824896888E+02  0.51100000000E-03 0.  1.
        -12    1    3    3    0    0  0.17977754604E+02 -0.51042631977E+01  0.28086306036E+01  0.18898189577E+02  0.00000000000E+00 0.  1.
</event>
<event>
 7    1  0.2755991E-011  0.5052886E+02  0.7816164E-02  0.1300439E+00
        -11   -1    0    0    0    0  0.00000000000E+00  0.00000000000E+00  0.45593999997E+02  0.45594000000E+02  0.51100000000E-03 0.  1.
         11   -1    0    0    0    0 -0.00000000000E+00 -0.00000000000E+00 -0.45593999997E+02  0.45594000000E+02  0.51100000000E-03 0. -1.
    9900012    2    1    2    0    0 -0.16638041891E+02  0.26209215382E+02  0.26256773141E+02  0.50528861486E+02  0.30000004973E+02 0.  0.
         12    1    1    2    0    0  0.16638041891E+02 -0.26209215382E+02 -0.26256773141E+02  0.40659138514E+02  0.00000000000E+00 0. -1.
         11    1    3    3    0    0  0.97689920992E-01 -0.33532882798E+01 -0.16944152001E+01  0.37583412218E+01  0.51100000000E-03 0. -1.
        -11    1    3    3    0    0 -0.62962605438E+01  0.24528293596E+02  0.22846160558E+02  0.34106115816E+02  0.51100000000E-03 0.  1.
         12    1    3    3    0    0 -0.10439471269E+02  0.50342100659E+01  0.51050277835E+01  0.12664404448E+02  0.00000000000E+00 0. -1.
</event>
<event>
 7    1  0.2755991E-011  0.5052886E+02  0.7816164E-02  0.1300439E+00
        -11   -1    0    0    0    0  0.00000000000E+00  0.00000000000E+00  0.45593999997E+02  0.45594000000E+02  0.51100000000E-03 0. -1.
         11   -1    0    0    0    0 -0.00000000000E+00 -0.00000000000E+00 -0.45593999997E+02  0.45594000000E+02  0.51100000000E-03 0.  1.
    9900012    2    1    2    0    0  0.11921283372E+02  0.27663800829E+02 -0.27308659071E+02  0.50528859161E+02  0.29999997905E+02 0.  0.
         12    1    1    2    0    0 -0.11921283372E+02 -0.27663800829E+02  0.27308659071E+02  0.40659140839E+02  0.00000000000E+00 0. -1.
         11    1    3    3    0    0  0.95407603987E+01  0.19874416382E+02 -0.13462168840E+02  0.25831154168E+02  0.51100000000E-03 0. -1.
        -11    1    3    3    0    0  0.19755533711E+01  0.12054355931E+02 -0.15814862182E+02  0.19982997125E+02  0.51100000000E-03 0.  1.
         12    1    3    3    0    0  0.40496960210E+00 -0.42649714839E+01  0.19683719506E+01  0.47147078672E+01  0.00000000000E+00 0. -1.
</event>
<event>
 7    1  0.2755991E-011  0.5052886E+02  0.7816164E-02  0.1300439E+00
        -11   -1    0    0    0    0  0.00000000000E+00  0.00000000000E+00  0.45593999997E+02  0.45594000000E+02  0.51100000000E-03 0. -1.
         11   -1    0    0    0    0 -0.00000000000E+00 -0.00000000000E+00 -0.45593999997E+02  0.45594000000E+02  0.51100000000E-03 0.  1.
    9900012    2    1    2    0    0 -0.11636988565E+02  0.34935654751E+02 -0.17240831195E+02  0.50528859133E+02  0.29999997822E+02 0.  0.
         12    1    1    2    0    0  0.11636988565E+02 -0.34935654751E+02  0.17240831195E+02  0.40659140867E+02  0.00000000000E+00 0. -1.
         11    1    3    3    0    0 -0.44832224356E+01  0.33086420260E+01 -0.15372385439E+02  0.16351043692E+02  0.51100000000E-03 0. -1.
        -11    1    3    3    0    0 -0.11927733504E+01  0.24634470607E+01 -0.34085714293E+01  0.43714573240E+01  0.51100000000E-03 0.  1.
        -12    1    3    3    0    0 -0.59609927786E+01  0.29163565664E+02  0.15401256732E+01  0.29806358118E+02  0.00000000000E+00 0.  1.
</event>
<event>
 7    1  0.2755991E-011  0.5052886E+02  0.7816164E-02  0.1300439E+00
        -11   -1    0    0    0    0  0.00000000000E+00  0.00000000000E+00  0.45593999997E+02  0.45594000000E+02  0.51100000000E-03 0. -1.
         11   -1    0    0    0    0 -0.00000000000E+00 -0.00000000000E+00 -0.45593999997E+02  0.45594000000E+02  0.51100000000E-03 0.  1.
    9900012    2    1    2    0    0  0.63589254809E+01 -0.35768411692E+02 -0.18257898252E+02  0.50528855188E+02  0.29999985829E+02 0.  0.
         12    1    1    2    0    0 -0.63589254809E+01  0.35768411692E+02  0.18257898252E+02  0.40659144812E+02  0.00000000000E+00 0. -1.
         11    1    3    3    0    0  0.60651444445E+01 -0.22317310548E+01 -0.42883184403E+00  0.64769203828E+01  0.51100000000E-03 0. -1.
        -11    1    3    3    0    0  0.47203665442E+01  0.68532388509E+00 -0.57974064938E+01  0.75074264202E+01  0.51100000000E-03 0.  1.
         12    1    3    3    0    0 -0.44265855077E+01 -0.34222004522E+02 -0.12031659914E+02  0.36544508385E+02  0.00000000000E+00 0. -1.
</event>
<event>
 7    1  0.2755991E-011  0.5052886E+02  0.7816164E-02  0.1300439E+00
        -11   -1    0    0    0    0  0.00000000000E+00  0.00000000000E+00  0.45593999997E+02  0.45594000000E+02  0.51100000000E-03 0.  1.
         11   -1    0    0    0    0 -0.00000000000E+00 -0.00000000000E+00 -0.45593999997E+02  0.45594000000E+02  0.51100000000E-03 0. -1.
    9900012    2    1    2    0    0 -0.11483572710E+02 -0.35896219384E+02  0.15256303006E+02  0.50528858473E+02  0.29999995816E+02 0.  0.
         12    1    1    2    0    0  0.11483572710E+02  0.35896219384E+02 -0.15256303006E+02  0.40659141527E+02  0.00000000000E+00 0. -1.
         11    1    3    3    0    0 -0.68984428450E+01 -0.10893925457E+02  0.52841507244E+01  0.13935148894E+02  0.51100000000E-03 0. -1.
        -11    1    3    3    0    0 -0.12608321683E+02 -0.12193135346E+02 -0.15214225337E+01  0.17605597179E+02  0.51100000000E-03 0.  1.
        -12    1    3    3    0    0  0.80231918181E+01 -0.12809158581E+02  0.11493574816E+02  0.18988112401E+02  0.00000000000E+00 0.  1.
</event>
<event>
 7    1  0.2755991E-011  0.5052887E+02  0.7816164E-02  0.1300439E+00
        -11   -1    0    0    0    0  0.00000000000E+00  0.00000000000E+00  0.45593999997E+02  0.45594000000E+02  0.51100000000E-03 0.  1.
         11   -1    0    0    0    0 -0.00000000000E+00 -0.00000000000E+00 -0.45593999997E+02  0.45594000000E+02  0.51100000000E-03 0. -1.
    9900012    2    1    2    0    0 -0.20745064437E+02 -0.10076332377E+02  0.33485437498E+02  0.50528871910E+02  0.30000036656E+02 0.  0.
         12    1    1    2    0    0  0.20745064437E+02  0.10076332377E+02 -0.33485437498E+02  0.40659128090E+02  0.00000000000E+00 0. -1.
         11    1    3    3    0    0 -0.16256871521E+02 -0.37253834129E+01  0.30128507767E+02  0.34436772987E+02  0.51100000000E-03 0. -1.
        -11    1    3    3    0    0  0.59792667404E+00  0.40677383389E+01  0.42569123860E+00  0.41334277293E+01  0.51100000000E-03 0.  1.
         12    1    3    3    0    0 -0.50861195904E+01 -0.10418687303E+02  0.29312384918E+01  0.11958671193E+02  0.00000000000E+00 0. -1.
</event>
<event>
 7    1  0.2755991E-011  0.5052885E+02  0.7816164E-02  0.1300439E+00
        -11   -1    0    0    0    0  0.00000000000E+00  0.00000000000E+00  0.45593999997E+02  0.45594000000E+02  0.51100000000E-03 0. -1.
         11   -1    0    0    0    0 -0.00000000000E+00 -0.00000000000E+00 -0.45593999997E+02  0.45594000000E+02  0.51100000000E-03 0.  1.
    9900012    2    1    2    0    0  0.17949000467E+02 -0.86137743620E+01 -0.35451410035E+02  0.50528853428E+02  0.29999980479E+02 0.  0.
         12    1    1    2    0    0 -0.17949000467E+02  0.86137743620E+01  0.35451410035E+02  0.40659146572E+02  0.00000000000E+00 0. -1.
         11    1    3    3    0    0  0.39961921905E+01  0.51876894123E+01 -0.45336300887E+01  0.79646390693E+01  0.51100000000E-03 0. -1.
        -11    1    3    3    0    0  0.18481019517E+02 -0.78397592321E+01 -0.15286564069E+02  0.25232696021E+02  0.51100000000E-03 0.  1.
        -12    1    3    3    0    0 -0.45282112402E+01 -0.59617045422E+01 -0.15631215877E+02  0.17331518337E+02  0.00000000000E+00 0.  1.
</event>
<event>
 7    1  0.2755991E-011  0.5052886E+02  0.7816164E-02  0.1300439E+00
        -11   -1    0    0    0    0  0.00000000000E+00  0.00000000000E+00  0.45593999997E+02  0.45594000000E+02  0.51100000000E-03 0. -1.
         11   -1    0    0    0    0 -0.00000000000E+00 -0.00000000000E+00 -0.45593999997E+02  0.45594000000E+02  0.51100000000E-03 0.  1.
    9900012    2    1    2    0    0  0.19750436180E+02  0.25572463426E+02 -0.24680664771E+02  0.50528857996E+02  0.29999994364E+02 0.  0.
         12    1    1    2    0    0 -0.19750436180E+02 -0.25572463426E+02  0.24680664771E+02  0.40659142004E+02  0.00000000000E+00 0. -1.
         11    1    3    3    0    0  0.94820938720E+01  0.90516990650E+00 -0.50937975204E+01  0.10801676268E+02  0.51100000000E-03 0. -1.
        -11    1    3    3    0    0  0.78215055366E+01  0.14939227531E+02 -0.23530345034E+02  0.28948810093E+02  0.51100000000E-03 0.  1.
         12    1    3    3    0    0  0.24468367719E+01  0.97280659887E+01  0.39434777841E+01  0.10778371635E+02  0.00000000000E+00 0. -1.
</event>
<event>
 7    1  0.2755991E-011  0.5052886E+02  0.7816164E-02  0.1300439E+00
        -11   -1    0    0    0    0  0.00000000000E+00  0.00000000000E+00  0.45593999997E+02  0.45594000000E+02  0.51100000000E-03 0. -1.
         11   -1    0    0    0    0 -0.00000000000E+00 -0.00000000000E+00 -0.45593999997E+02  0.45594000000E+02  0.51100000000E-03 0.  1.
    9900012    2    1    2    0    0  0.15766460253E+02  0.69557185424E+01 -0.36826652902E+02  0.50528860151E+02  0.30000000914E+02 0.  0.
         12    1    1    2    0    0 -0.15766460253E+02 -0.69557185424E+01  0.36826652902E+02  0.40659139849E+02  0.00000000000E+00 0. -1.
         11    1    3    3    0    0  0.90563800197E+01  0.89935385584E+01 -0.72722193047E+01  0.14689687837E+02  0.51100000000E-03 0. -1.
        -11    1    3    3    0    0  0.11866660362E+02 -0.56511811248E+01 -0.24347139016E+02  0.27668333068E+02  0.51100000000E-03 0.  1.
        -12    1    3    3    0    0 -0.51565801290E+01  0.36133611087E+01 -0.52072945814E+01  0.81708392461E+01  0.00000000000E+00 0.  1.
</event>
<event>
 7    1  0.2755991E-011  0.5052875E+02  0.7816164E-02  0.1300439E+00
        -11   -1    0    0    0    0  0.00000000000E+00  0.00000000000E+00  0.45593999997E+02  0.45594000000E+02  0.51100000000E-03 0.  1.
         11   -1    0    0    0    0 -0.00000000000E+00 -0.00000000000E+00 -0.45593999997E+02  0.45594000000E+02  0.51100000000E-03 0. -1.
    9900012    2    1    2    0    0 -0.25103435573E+02  0.23378548458E+02  0.21827402613E+02  0.50528751232E+02  0.29999669842E+02 0.  0.
         12    1    1    2    0    0  0.25103435573E+02 -0.23378548458E+02 -0.21827402613E+02  0.40659248768E+02  0.00000000000E+00 0. -1.
         11    1    3    3    0    0 -0.48904751080E+01  0.40715769394E+01 -0.37023034344E+01  0.73621692820E+01  0.51100000000E-03 0. -1.
        -11    1    3    3    0    0 -0.91570381602E+01  0.95132393039E+01 -0.52712880461E+00  0.13214799846E+02  0.51100000000E-03 0.  1.
        -12    1    3    3    0    0 -0.11055922305E+02  0.97937322147E+01  0.26056834852E+02  0.29951782104E+02  0.00000000000E+00 0.  1.
</event>
<event>
 7    1  0.2755991E-011  0.5052887E+02  0.7816164E-02  0.1300439E+00
        -11   -1    0    0    0    0  0.00000000000E+00  0.00000000000E+00  0.45593999997E+02  0.45594000000E+02  0.51100000000E-03 0. -1.
         11   -1    0    0    0    0 -0.00000000000E+00 -0.00000000000E+00 -0.45593999997E+02  0.45594000000E+02  0.51100000000E-03 0.  1.
    9900012    2    1    2    0    0  0.11745331776E+02 -0.16405724151E+02 -0.35299638455E+02  0.50528867219E+02  0.30000022400E+02 0.  0.
         12    1    1    2    0    0 -0.11745331776E+02  0.16405724151E+02  0.35299638455E+02  0.40659132781E+02  0.00000000000E+00 0. -1.
         11    1    3    3    0    0  0.71523146799E+01 -0.14339776103E+02 -0.18231554537E+02  0.24272914227E+02  0.51100000000E-03 0. -1.
        -11    1    3    3    0    0  0.10466852828E+02 -0.38155203951E+01 -0.16752931029E+02  0.20118993571E+02  0.51100000000E-03 0.  1.
        -12    1    3    3    0    0 -0.58738357311E+01  0.17495723474E+01 -0.31515288917E+00  0.61369594213E+01  0.00000000000E+00 0.  1.
</event>
<event>
 7    1  0.2755991E-011  0.5052885E+02  0.7816164E-02  0.1300439E+00
        -11   -1    0    0    0    0  0.00000000000E+00  0.00000000000E+00  0.45593999997E+02  0.45594000000E+02  0.51100000000E-03 0.  1.
         11   -1    0    0    0    0 -0.00000000000E+00 -0.00000000000E+00 -0.45593999997E+02  0.45594000000E+02  0.51100000000E-03 0. -1.
    9900012    2    1    2    0    0 -0.11475913366E+02  0.54649590420E+00  0.39002191099E+02  0.50528853970E+02  0.29999982127E+02 0.  0.
         12    1    1    2    0    0  0.11475913366E+02 -0.54649590420E+00 -0.39002191099E+02  0.40659146030E+02  0.00000000000E+00 0. -1.
         11    1    3    3    0    0 -0.15337121181E+01  0.10683627519E+02  0.24382225701E+01  0.11065129886E+02  0.51100000000E-03 0. -1.
        -11    1    3    3    0    0 -0.22806924058E+01 -0.71805388443E+00  0.34808166912E+01  0.42229426150E+01  0.51100000000E-03 0.  1.
        -12    1    3    3    0    0 -0.76615088419E+01 -0.94190777303E+01  0.33083151838E+02  0.35240781469E+02  0.00000000000E+00 0.  1.
</event>
<event>
 7    1  0.2755991E-011  0.5052883E+02  0.7816164E-02  0.1300439E+00
        -11   -1    0    0    0    0  0.00000000000E+00  0.00000000000E+00  0.45593999997E+02  0.45594000000E+02  0.51100000000E-03 0. -1.
         11   -1    0    0    0    0 -0.00000000000E+00 -0.00000000000E+00 -0.45593999997E+02  0.45594000000E+02  0.51100000000E-03 0.  1.
    9900012    2    1    2    0    0  0.27045211255E+02 -0.32473084899E+01 -0.30185755651E+02  0.50528827499E+02  0.29999901666E+02 0.  0.
         12    1    1    2    0    0 -0.27045211255E+02  0.32473084899E+01  0.30185755651E+02  0.40659172501E+02  0.00000000000E+00 0. -1.
         11    1    3    3    0    0  0.25613041468E+01 -0.27000219286E+01  0.32973545265E+01  0.49722172602E+01  0.51100000000E-03 0. -1.
        -11    1    3    3    0    0  0.76118692674E+01 -0.83091390706E+01 -0.18642533948E+02  0.21783627294E+02  0.51100000000E-03 0.  1.
        -12    1    3    3    0    0  0.16872037840E+02  0.77618525093E+01 -0.14840576230E+02  0.23772982945E+02  0.00000000000E+00 0.  1.
</event>
<event>
 7    1  0.2755991E-011  0.5052886E+02  0.7816164E-02  0.1300439E+00
        -11   -1    0    0    0    0  0.00000000000E+00  0.00000000000E+00  0.45593999997E+02  0.45594000000E+02  0.51100000000E-03 0. -1.
         11   -1    0    0    0    0 -0.00000000000E+00 -0.00000000000E+00 -0.45593999997E+02  0.45594000000E+02  0.51100000000E-03 0.  1.
    9900012    2    1    2    0    0  0.26314677213E+02  0.23240219411E+02  0.20508433276E+02  0.50528857479E+02  0.29999992794E+02 0.  0.
         12    1    1    2    0    0 -0.26314677213E+02 -0.23240219411E+02 -0.20508433276E+02  0.40659142521E+02  0.00000000000E+00 0. -1.
         11    1    3    3    0    0  0.21546598311E+02  0.20976177526E+02  0.12478689022E+02  0.32557235791E+02  0.51100000000E-03 0. -1.
        -11    1    3    3    0    0  0.78060095768E+01  0.66410390965E+01  0.73248309636E+01  0.12597235201E+02  0.51100000000E-03 0.  1.
         12    1    3    3    0    0 -0.30379306745E+01 -0.43769972116E+01  0.70491329050E+00  0.53743864878E+01  0.00000000000E+00 0. -1.
</event>
<event>
 7    1  0.2755991E-011  0.5052886E+02  0.7816164E-02  0.1300439E+00
        -11   -1    0    0    0    0  0.00000000000E+00  0.00000000000E+00  0.45593999997E+02  0.45594000000E+02  0.51100000000E-03 0. -1.
         11   -1    0    0    0    0 -0.00000000000E+00 -0.00000000000E+00 -0.45593999997E+02  0.45594000000E+02  0.51100000000E-03 0.  1.
    9900012    2    1    2    0    0  0.18148440028E+02 -0.35336899775E+02  0.86662292350E+01  0.50528857236E+02  0.29999992054E+02 0.  0.
         12    1    1    2    0    0 -0.18148440028E+02  0.35336899775E+02 -0.86662292350E+01  0.40659142764E+02  0.00000000000E+00 0. -1.
         11    1    3    3    0    0  0.41582814532E+01  0.12035066858E+01  0.95863284691E+01  0.10518432714E+02  0.51100000000E-03 0. -1.
        -11    1    3    3    0    0  0.15430249094E+01 -0.38106639974E+00 -0.77538106010E+00  0.17684325041E+01  0.51100000000E-03 0.  1.
        -12    1    3    3    0    0  0.12447133666E+02 -0.36159340061E+02 -0.14471817398E+00  0.38241992018E+02  0.00000000000E+00 0.  1.
</event>
<event>
 7    1  0.2755991E-011  0.5052887E+02  0.7816164E-02  0.1300439E+00
        -11   -1    0    0    0    0  0.00000000000E+00  0.00000000000E+00  0.45593999997E+02  0.45594000000E+02  0.51100000000E-03 0. -1.
         11   -1    0    0    0    0 -0.00000000000E+00 -0.00000000000E+00 -0.45593999997E+02  0.45594000000E+02  0.51100000000E-03 0.  1.
    9900012    2    1    2    0    0 -0.21686308437E+02  0.32063001451E+02 -0.12443173016E+02  0.50528873222E+02  0.30000040644E+02 0.  0.
         12    1    1    2    0    0  0.21686308437E+02 -0.32063001451E+02  0.12443173016E+02  0.40659126778E+02  0.00000000000E+00 0. -1.
         11    1    3    3    0    0 -0.12647168901E+02  0.70026405935E+01 -0.59889044195E+00  0.14468812201E+02  0.51100000000E-03 0. -1.
        -11    1    3    3    0    0 -0.12930413317E+02  0.21080114159E+02 -0.15696491736E+02  0.29290726426E+02  0.51100000000E-03 0.  1.
         12    1    3    3    0    0  0.38912737811E+01  0.39802466986E+01  0.38522091618E+01  0.67693345941E+01  0.00000000000E+00 0. -1.
</event>
<event>
 7    1  0.2755991E-011  0.5052886E+02  0.7816164E-02  0.1300439E+00
        -11   -1    0    0    0    0  0.00000000000E+00  0.00000000000E+00  0.45593999997E+02  0.45594000000E+02  0.51100000000E-03 0. -1.
         11   -1    0    0    0    0 -0.00000000000E+00 -0.00000000000E+00 -0.45593999997E+02  0.45594000000E+02  0.51100000000E-03 0.  1.
    9900012    2    1    2    0    0  0.15309720704E+02 -0.11373474035E+02 -0.35908522546E+02  0.50528862637E+02  0.30000008472E+02 0.  0.
         12    1    1    2    0    0 -0.15309720704E+02  0.11373474035E+02  0.35908522546E+02  0.40659137363E+02  0.00000000000E+00 0. -1.
         11    1    3    3    0    0 -0.32094554108E+01  0.24836470464E+01 -0.12940410451E+02  0.13561833563E+02  0.51100000000E-03 0. -1.
        -11    1    3    3    0    0  0.11167522773E+02 -0.10466565719E+02 -0.24343365815E+02  0.28755208612E+02  0.51100000000E-03 0.  1.
         12    1    3    3    0    0  0.73516533416E+01 -0.33905553621E+01  0.13752537199E+01  0.82118204628E+01  0.00000000000E+00 0. -1.
</event>
<event>
 7    1  0.2755991E-011  0.5052891E+02  0.7816164E-02  0.1300439E+00
        -11   -1    0    0    0    0  0.00000000000E+00  0.00000000000E+00  0.45593999997E+02  0.45594000000E+02  0.51100000000E-03 0.  1.
         11   -1    0    0    0    0 -0.00000000000E+00 -0.00000000000E+00 -0.45593999997E+02  0.45594000000E+02  0.51100000000E-03 0. -1.
    9900012    2    1    2    0    0  0.10248965043E+02 -0.16132071980E+02  0.35886994627E+02  0.50528912280E+02  0.30000159367E+02 0.  0.
         12    1    1    2    0    0 -0.10248965043E+02  0.16132071980E+02 -0.35886994627E+02  0.40659087720E+02  0.00000000000E+00 0. -1.
         11    1    3    3    0    0 -0.49509370123E+01  0.30967033703E+00 -0.83817139435E-01  0.49613202468E+01  0.51100000000E-03 0. -1.
        -11    1    3    3    0    0  0.14931738275E+02 -0.87333830770E+01  0.13909741750E+02  0.22197065204E+02  0.51100000000E-03 0.  1.
         12    1    3    3    0    0  0.26816378043E+00 -0.77083592400E+01  0.22061070017E+02  0.23370526829E+02  0.00000000000E+00 0. -1.
</event>
<event>
 7    1  0.2755991E-011  0.5052886E+02  0.7816164E-02  0.1300439E+00
        -11   -1    0    0    0    0  0.00000000000E+00  0.00000000000E+00  0.45593999997E+02  0.45594000000E+02  0.51100000000E-03 0. -1.
         11   -1    0    0    0    0 -0.00000000000E+00 -0.00000000000E+00 -0.45593999997E+02  0.45594000000E+02  0.51100000000E-03 0.  1.
    9900012    2    1    2    0    0  0.22592775411E+02 -0.33760749485E+02 -0.17158199574E+01  0.50528859026E+02  0.29999997497E+02 0.  0.
         12    1    1    2    0    0 -0.22592775411E+02  0.33760749485E+02  0.17158199574E+01  0.40659140974E+02  0.00000000000E+00 0. -1.
         11    1    3    3    0    0  0.21690858870E+01 -0.26126567466E+01  0.33532260760E+01  0.47723195868E+01  0.51100000000E-03 0. -1.
        -11    1    3    3    0    0  0.19549369164E+02 -0.78517551340E+01  0.25716974336E+01  0.21223607642E+02  0.51100000000E-03 0.  1.
         12    1    3    3    0    0  0.87432036065E+00 -0.23296337604E+02 -0.76407434670E+01  0.24532931798E+02  0.00000000000E+00 0. -1.
</event>
<event>
 7    1  0.2755991E-011  0.5052885E+02  0.7816164E-02  0.1300439E+00
        -11   -1    0    0    0    0  0.00000000000E+00  0.00000000000E+00  0.45593999997E+02  0.45594000000E+02  0.51100000000E-03 0.  1.
         11   -1    0    0    0    0 -0.00000000000E+00 -0.00000000000E+00 -0.45593999997E+02  0.45594000000E+02  0.51100000000E-03 0. -1.
    9900012    2    1    2    0    0  0.32045105893E+02  0.23509419094E+02 -0.85781399188E+01  0.50528854875E+02  0.29999984878E+02 0.  0.
         12    1    1    2    0    0 -0.32045105893E+02 -0.23509419094E+02  0.85781399188E+01  0.40659145125E+02  0.00000000000E+00 0. -1.
         11    1    3    3    0    0  0.44440141932E+01  0.99597472159E+00 -0.28841035834E+01  0.53906661496E+01  0.51100000000E-03 0. -1.
        -11    1    3    3    0    0  0.88824926177E+01 -0.98314079819E+00  0.81184432396E+01  0.12073705389E+02  0.51100000000E-03 0.  1.
        -12    1    3    3    0    0  0.18718599082E+02  0.23496585171E+02 -0.13812479575E+02  0.33064483336E+02  0.00000000000E+00 0.  1.
</event>
<event>
 7    1  0.2755991E-011  0.5052887E+02  0.7816164E-02  0.1300439E+00
        -11   -1    0    0    0    0  0.00000000000E+00  0.00000000000E+00  0.45593999997E+02  0.45594000000E+02  0.51100000000E-03 0.  1.
         11   -1    0    0    0    0 -0.00000000000E+00 -0.00000000000E+00 -0.45593999997E+02  0.45594000000E+02  0.51100000000E-03 0. -1.
    9900012    2    1    2    0    0  0.29734603507E+02  0.77182315070E+01  0.26635443286E+02  0.50528873320E+02  0.30000040944E+02 0.  0.
         12    1    1    2    0    0 -0.29734603507E+02 -0.77182315070E+01 -0.26635443286E+02  0.40659126680E+02  0.00000000000E+00 0. -1.
         11    1    3    3    0    0  0.71128647998E+01  0.43552325553E+01  0.17674708549E+02  0.19543700234E+02  0.51100000000E-03 0. -1.
        -11    1    3    3    0    0  0.11177974460E+02  0.73733403199E+01  0.12536007915E+02  0.18342975637E+02  0.51100000000E-03 0.  1.
         12    1    3    3    0    0  0.11443764248E+02 -0.40103413683E+01 -0.35752731786E+01  0.12642197449E+02  0.00000000000E+00 0. -1.
</event>
<event>
 7    1  0.2755991E-011  0.5052886E+02  0.7816164E-02  0.1300439E+00
        -11   -1    0    0    0    0  0.00000000000E+00  0.00000000000E+00  0.45593999997E+02  0.45594000000E+02  0.51100000000E-03 0.  1.
         11   -1    0    0    0    0 -0.00000000000E+00 -0.00000000000E+00 -0.45593999997E+02  0.45594000000E+02  0.51100000000E-03 0. -1.
    9900012    2    1    2    0    0 -0.19661663247E+02  0.80611857104E+01  0.34664131298E+02  0.50528859388E+02  0.29999998595E+02 0.  0.
         12    1    1    2    0    0  0.19661663247E+02 -0.80611857104E+01 -0.34664131298E+02  0.40659140612E+02  0.00000000000E+00 0. -1.
         11    1    3    3    0    0  0.80640527263E+00 -0.17255771442E+01  0.56803631049E+01  0.59911961417E+01  0.51100000000E-03 0. -1.
        -11    1    3    3    0    0 -0.62487174655E+01  0.55527672880E+01  0.28492209894E+02  0.29693193150E+02  0.51100000000E-03 0.  1.
        -12    1    3    3    0    0 -0.14219351054E+02  0.42339955666E+01  0.49155829824E+00  0.14844470096E+02  0.00000000000E+00 0.  1.
</event>
<event>
 7    1  0.2755991E-011  0.5052886E+02  0.7816164E-02  0.1300439E+00
        -11   -1    0    0    0    0  0.00000000000E+00  0.00000000000E+00  0.45593999997E+02  0.45594000000E+02  0.51100000000E-03 0. -1.
         11   -1    0    0    0    0 -0.00000000000E+00 -0.00000000000E+00 -0.45593999997E+02  0.45594000000E+02  0.51100000000E-03 0.  1.
    9900012    2    1    2    0    0 -0.32503973600E+02 -0.17638287520E+02 -0.16898164222E+02  0.50528862768E+02  0.30000008869E+02 0.  0.
         12    1    1    2    0    0  0.32503973600E+02  0.17638287520E+02  0.16898164222E+02  0.40659137232E+02  0.00000000000E+00 0. -1.
         11    1    3    3    0    0 -0.12942113283E+02 -0.12571532781E+02 -0.18385302748E+02  0.25759679542E+02  0.51100000000E-03 0.  1.
        -11    1    3    3    0    0 -0.92289019984E+01  0.42600894467E+01 -0.21336213051E+01  0.10386208852E+02  0.51100000000E-03 0. -1.
         12    1    3    3    0    0 -0.10332958318E+02 -0.93268441852E+01  0.36207598316E+01  0.14382974373E+02  0.00000000000E+00 0. -1.
</event>
<event>
 7    1  0.2755991E-011  0.5052886E+02  0.7816164E-02  0.1300439E+00
        -11   -1    0    0    0    0  0.00000000000E+00  0.00000000000E+00  0.45593999997E+02  0.45594000000E+02  0.51100000000E-03 0. -1.
         11   -1    0    0    0    0 -0.00000000000E+00 -0.00000000000E+00 -0.45593999997E+02  0.45594000000E+02  0.51100000000E-03 0.  1.
    9900012    2    1    2    0    0 -0.19952491762E+02  0.28917262587E+02 -0.20465955416E+02  0.50528864075E+02  0.30000012843E+02 0.  0.
         12    1    1    2    0    0  0.19952491762E+02 -0.28917262587E+02  0.20465955416E+02  0.40659135925E+02  0.00000000000E+00 0. -1.
         11    1    3    3    0    0 -0.99964215786E+01  0.20837813650E+02 -0.19989948629E+02  0.30557175402E+02  0.51100000000E-03 0. -1.
        -11    1    3    3    0    0 -0.22759125110E+01  0.47982882936E+01 -0.74100945205E+01  0.91166248891E+01  0.51100000000E-03 0.  1.
         12    1    3    3    0    0 -0.76801576729E+01  0.32811606433E+01  0.69340877337E+01  0.10855063784E+02  0.00000000000E+00 0. -1.
</event>
<event>
 7    1  0.2755991E-011  0.5052886E+02  0.7816164E-02  0.1300439E+00
        -11   -1    0    0    0    0  0.00000000000E+00  0.00000000000E+00  0.45593999997E+02  0.45594000000E+02  0.51100000000E-03 0. -1.
         11   -1    0    0    0    0 -0.00000000000E+00 -0.00000000000E+00 -0.45593999997E+02  0.45594000000E+02  0.51100000000E-03 0.  1.
    9900012    2    1    2    0    0 -0.26776240735E+02 -0.10470802053E+02  0.28749969860E+02  0.50528861661E+02  0.30000005503E+02 0.  0.
         12    1    1    2    0    0  0.26776240735E+02  0.10470802053E+02 -0.28749969860E+02  0.40659138339E+02  0.00000000000E+00 0. -1.
         11    1    3    3    0    0 -0.15365709102E+02 -0.10899965066E+02  0.69024682582E+01  0.20063856134E+02  0.51100000000E-03 0. -1.
        -11    1    3    3    0    0 -0.51261724397E+01 -0.16920077159E+01 -0.19660064525E+01  0.57450601063E+01  0.51100000000E-03 0.  1.
         12    1    3    3    0    0 -0.62843591936E+01  0.21211707286E+01  0.23813508055E+02  0.24719945421E+02  0.00000000000E+00 0. -1.
</event>
<event>
 7    1  0.2755991E-011  0.5052884E+02  0.7816164E-02  0.1300439E+00
        -11   -1    0    0    0    0  0.00000000000E+00  0.00000000000E+00  0.45593999997E+02  0.45594000000E+02  0.51100000000E-03 0.  1.
         11   -1    0    0    0    0 -0.00000000000E+00 -0.00000000000E+00 -0.45593999997E+02  0.45594000000E+02  0.51100000000E-03 0. -1.
    9900012    2    1    2    0    0 -0.38706105839E+02 -0.64442166173E+00  0.12433395131E+02  0.50528840848E+02  0.29999942241E+02 0.  0.
         12    1    1    2    0    0  0.38706105839E+02  0.64442166173E+00 -0.12433395131E+02  0.40659159152E+02  0.00000000000E+00 0. -1.
         11    1    3    3    0    0 -0.55945371742E+01 -0.38381510422E+01 -0.99249729066E+00  0.68567704315E+01  0.51100000000E-03 0. -1.
        -11    1    3    3    0    0 -0.23210012566E+02 -0.79690012071E+01  0.14849321950E+02  0.28682957068E+02  0.51100000000E-03 0.  1.
        -12    1    3    3    0    0 -0.99015560981E+01  0.11162730588E+02 -0.14234295276E+01  0.14989113348E+02  0.00000000000E+00 0.  1.
</event>
<event>
 7    1  0.2755991E-011  0.5052885E+02  0.7816164E-02  0.1300439E+00
        -11   -1    0    0    0    0  0.00000000000E+00  0.00000000000E+00  0.45593999997E+02  0.45594000000E+02  0.51100000000E-03 0. -1.
         11   -1    0    0    0    0 -0.00000000000E+00 -0.00000000000E+00 -0.45593999997E+02  0.45594000000E+02  0.51100000000E-03 0.  1.
    9900012    2    1    2    0    0  0.81403089166E+01 -0.38368231238E+02 -0.10713584172E+02  0.50528847483E+02  0.29999962410E+02 0.  0.
         12    1    1    2    0    0 -0.81403089166E+01  0.38368231238E+02  0.10713584172E+02  0.40659152517E+02  0.00000000000E+00 0. -1.
         11    1    3    3    0    0 -0.99973404533E+00 -0.22340141681E+01 -0.18906174146E+01  0.30926884639E+01  0.51100000000E-03 0. -1.
        -11    1    3    3    0    0 -0.60436356033E+01 -0.17826820616E+02 -0.13541325269E+02  0.23188112361E+02  0.51100000000E-03 0.  1.
         12    1    3    3    0    0  0.15183678565E+02 -0.18307396454E+02  0.47183585116E+01  0.24248046658E+02  0.00000000000E+00 0. -1.
</event>
<event>
 7    1  0.2755991E-011  0.5052885E+02  0.7816164E-02  0.1300439E+00
        -11   -1    0    0    0    0  0.00000000000E+00  0.00000000000E+00  0.45593999997E+02  0.45594000000E+02  0.51100000000E-03 0. -1.
         11   -1    0    0    0    0 -0.00000000000E+00 -0.00000000000E+00 -0.45593999997E+02  0.45594000000E+02  0.51100000000E-03 0.  1.
    9900012    2    1    2    0    0 -0.31517029273E+02 -0.25123573278E+02 -0.53525336877E+01  0.50528847459E+02  0.29999962336E+02 0.  0.
         12    1    1    2    0    0  0.31517029273E+02  0.25123573278E+02  0.53525336877E+01  0.40659152541E+02  0.00000000000E+00 0. -1.
         11    1    3    3    0    0 -0.24053511949E+02 -0.23902806345E+02  0.72343305918E+01  0.34673493156E+02  0.51100000000E-03 0. -1.
        -11    1    3    3    0    0 -0.29877997524E+01 -0.22730236326E+00 -0.64693100662E+00  0.30654744679E+01  0.51100000000E-03 0.  1.
         12    1    3    3    0    0 -0.44757175717E+01 -0.99346456995E+00 -0.11939933273E+02  0.12789879835E+02  0.00000000000E+00 0. -1.
</event>
<event>
 7    1  0.2755991E-011  0.5052888E+02  0.7816164E-02  0.1300439E+00
        -11   -1    0    0    0    0  0.00000000000E+00  0.00000000000E+00  0.45593999997E+02  0.45594000000E+02  0.51100000000E-03 0.  1.
         11   -1    0    0    0    0 -0.00000000000E+00 -0.00000000000E+00 -0.45593999997E+02  0.45594000000E+02  0.51100000000E-03 0. -1.
    9900012    2    1    2    0    0  0.16283781973E+02 -0.26859825553E+02  0.25817678318E+02  0.50528876820E+02  0.30000051581E+02 0.  0.
         12    1    1    2    0    0 -0.16283781973E+02  0.26859825553E+02 -0.25817678318E+02  0.40659123180E+02  0.00000000000E+00 0. -1.
         11    1    3    3    0    0  0.73442689224E+01 -0.14769448350E+02  0.24866726572E+02  0.29840056656E+02  0.51100000000E-03 0. -1.
        -11    1    3    3    0    0  0.90574771160E+01 -0.11982594838E+02  0.56047567755E+01  0.16032272750E+02  0.51100000000E-03 0.  1.
         12    1    3    3    0    0 -0.11796406589E+00 -0.10778236448E+00 -0.46538050294E+01  0.46565474131E+01  0.00000000000E+00 0. -1.
</event>
<event>
 7    1  0.2755991E-011  0.5052884E+02  0.7816164E-02  0.1300439E+00
        -11   -1    0    0    0    0  0.00000000000E+00  0.00000000000E+00  0.45593999997E+02  0.45594000000E+02  0.51100000000E-03 0. -1.
         11   -1    0    0    0    0 -0.00000000000E+00 -0.00000000000E+00 -0.45593999997E+02  0.45594000000E+02  0.51100000000E-03 0.  1.
    9900012    2    1    2    0    0 -0.96856337950E+01 -0.31450718096E+02 -0.23879031689E+02  0.50528839591E+02  0.29999938421E+02 0.  0.
         12    1    1    2    0    0  0.96856337950E+01  0.31450718096E+02  0.23879031689E+02  0.40659160409E+02  0.00000000000E+00 0. -1.
         11    1    3    3    0    0 -0.11432669461E+02 -0.16029682277E+02 -0.14119710872E+02  0.24228555059E+02  0.51100000000E-03 0. -1.
        -11    1    3    3    0    0 -0.51163756588E+01 -0.10340042845E+02 -0.12803547708E+02  0.17234402226E+02  0.51100000000E-03 0.  1.
         12    1    3    3    0    0  0.68634113244E+01 -0.50809929743E+01  0.30442268912E+01  0.90658823055E+01  0.00000000000E+00 0. -1.
</event>
<event>
 7    1  0.2755991E-011  0.5052886E+02  0.7816164E-02  0.1300439E+00
        -11   -1    0    0    0    0  0.00000000000E+00  0.00000000000E+00  0.45593999997E+02  0.45594000000E+02  0.51100000000E-03 0. -1.
         11   -1    0    0    0    0 -0.00000000000E+00 -0.00000000000E+00 -0.45593999997E+02  0.45594000000E+02  0.51100000000E-03 0.  1.
    9900012    2    1    2    0    0 -0.38776425419E+02  0.10306921415E+02  0.65819479649E+01  0.50528857900E+02  0.29999994072E+02 0.  0.
         12    1    1    2    0    0  0.38776425419E+02 -0.10306921415E+02 -0.65819479649E+01  0.40659142100E+02  0.00000000000E+00 0. -1.
         11    1    3    3    0    0 -0.76005601151E+01  0.11390346101E+02 -0.62713225697E+00  0.13707727510E+02  0.51100000000E-03 0. -1.
        -11    1    3    3    0    0 -0.65270957147E+01  0.18002057764E+01 -0.56972049407E+01  0.88488340308E+01  0.51100000000E-03 0.  1.
         12    1    3    3    0    0 -0.24648769589E+02 -0.28836304621E+01  0.12906285163E+02  0.27972296359E+02  0.00000000000E+00 0. -1.
</event>
<event>
 7    1  0.2755991E-011  0.5052886E+02  0.7816164E-02  0.1300439E+00
        -11   -1    0    0    0    0  0.00000000000E+00  0.00000000000E+00  0.45593999997E+02  0.45594000000E+02  0.51100000000E-03 0.  1.
         11   -1    0    0    0    0 -0.00000000000E+00 -0.00000000000E+00 -0.45593999997E+02  0.45594000000E+02  0.51100000000E-03 0. -1.
    9900012    2    1    2    0    0 -0.21945854069E+02 -0.33335879141E+02  0.77630129833E+01  0.50528859337E+02  0.29999998440E+02 0.  0.
         12    1    1    2    0    0  0.21945854069E+02  0.33335879141E+02 -0.77630129833E+01  0.40659140663E+02  0.00000000000E+00 0. -1.
         11    1    3    3    0    0 -0.91669379483E+01 -0.30933255039E+02  0.93552167319E+01  0.33591949914E+02  0.51100000000E-03 0. -1.
        -11    1    3    3    0    0 -0.27818206234E+01 -0.54421486962E+01 -0.21344374951E+01  0.64738962066E+01  0.51100000000E-03 0.  1.
        -12    1    3    3    0    0 -0.99970954970E+01  0.30395245941E+01  0.54223374642E+00  0.10463013217E+02  0.00000000000E+00 0.  1.
</event>
<event>
 7    1  0.2755991E-011  0.5052886E+02  0.7816164E-02  0.1300439E+00
        -11   -1    0    0    0    0  0.00000000000E+00  0.00000000000E+00  0.45593999997E+02  0.45594000000E+02  0.51100000000E-03 0.  1.
         11   -1    0    0    0    0 -0.00000000000E+00 -0.00000000000E+00 -0.45593999997E+02  0.45594000000E+02  0.51100000000E-03 0. -1.
    9900012    2    1    2    0    0 -0.38024937034E+02 -0.24210317484E+00  0.14394836636E+02  0.50528858689E+02  0.29999996471E+02 0.  0.
         12    1    1    2    0    0  0.38024937034E+02  0.24210317484E+00 -0.14394836636E+02  0.40659141311E+02  0.00000000000E+00 0. -1.
         11    1    3    3    0    0 -0.25331105187E+02 -0.58915829917E+01  0.14146911436E+02  0.29605924130E+02  0.51100000000E-03 0. -1.
        -11    1    3    3    0    0 -0.15349741768E+02  0.34077720850E+01 -0.31794914068E+01  0.16041715893E+02  0.51100000000E-03 0.  1.
        -12    1    3    3    0    0  0.26559099217E+01  0.22417077319E+01  0.34274166066E+01  0.48812186657E+01  0.00000000000E+00 0.  1.
</event>
<event>
 7    1  0.2755991E-011  0.5052882E+02  0.7816164E-02  0.1300439E+00
        -11   -1    0    0    0    0  0.00000000000E+00  0.00000000000E+00  0.45593999997E+02  0.45594000000E+02  0.51100000000E-03 0.  1.
         11   -1    0    0    0    0 -0.00000000000E+00 -0.00000000000E+00 -0.45593999997E+02  0.45594000000E+02  0.51100000000E-03 0. -1.
    9900012    2    1    2    0    0  0.38500410639E+02  0.38299621880E+01  0.12498762456E+02  0.50528815396E+02  0.29999864877E+02 0.  0.
         12    1    1    2    0    0 -0.38500410639E+02 -0.38299621880E+01 -0.12498762456E+02  0.40659184604E+02  0.00000000000E+00 0. -1.
         11    1    3    3    0    0  0.67786658805E+01  0.29349541575E+01  0.59942226090E+01  0.95128845243E+01  0.51100000000E-03 0. -1.
        -11    1    3    3    0    0  0.21015826482E+02 -0.32205299587E+00  0.16187629300E+02  0.26529380383E+02  0.51100000000E-03 0.  1.
        -12    1    3    3    0    0  0.10705918277E+02  0.12170610264E+01 -0.96830894538E+01  0.14486550489E+02  0.00000000000E+00 0.  1.
</event>
<event>
 7    1  0.2755991E-011  0.5052887E+02  0.7816164E-02  0.1300439E+00
        -11   -1    0    0    0    0  0.00000000000E+00  0.00000000000E+00  0.45593999997E+02  0.45594000000E+02  0.51100000000E-03 0. -1.
         11   -1    0    0    0    0 -0.00000000000E+00 -0.00000000000E+00 -0.45593999997E+02  0.45594000000E+02  0.51100000000E-03 0.  1.
    9900012    2    1    2    0    0 -0.99619512304E+01  0.32977369610E+02 -0.21596701722E+02  0.50528869365E+02  0.30000028921E+02 0.  0.
         12    1    1    2    0    0  0.99619512304E+01 -0.32977369610E+02  0.21596701722E+02  0.40659130635E+02  0.00000000000E+00 0. -1.
         11    1    3    3    0    0 -0.44221936645E+01  0.14045581939E+02 -0.73532943768E+01  0.16459195219E+02  0.51100000000E-03 0. -1.
        -11    1    3    3    0    0 -0.14475985855E+02  0.14960223684E+02 -0.72357814750E+01  0.22039033395E+02  0.51100000000E-03 0.  1.
         12    1    3    3    0    0  0.89362282887E+01  0.39715639870E+01 -0.70076258706E+01  0.12030640751E+02  0.00000000000E+00 0. -1.
</event>
<event>
 7    1  0.2755991E-011  0.5052889E+02  0.7816164E-02  0.1300439E+00
        -11   -1    0    0    0    0  0.00000000000E+00  0.00000000000E+00  0.45593999997E+02  0.45594000000E+02  0.51100000000E-03 0.  1.
         11   -1    0    0    0    0 -0.00000000000E+00 -0.00000000000E+00 -0.45593999997E+02  0.45594000000E+02  0.51100000000E-03 0. -1.
    9900012    2    1    2    0    0 -0.49182889459E+01  0.20992999358E+02  0.34471263147E+02  0.50528885755E+02  0.30000078741E+02 0.  0.
         12    1    1    2    0    0  0.49182889459E+01 -0.20992999358E+02 -0.34471263147E+02  0.40659114245E+02  0.00000000000E+00 0. -1.
         11    1    3    3    0    0  0.35765368673E+01  0.16383400331E+02  0.12199039103E+02  0.20737019499E+02  0.51100000000E-03 0. -1.
        -11    1    3    3    0    0 -0.12357842219E+02  0.42612069040E+01  0.87642405268E+01  0.15738045014E+02  0.51100000000E-03 0.  1.
        -12    1    3    3    0    0  0.38630164056E+01  0.34839212293E+00  0.13507983517E+02  0.14053821243E+02  0.00000000000E+00 0.  1.
</event>
<event>
 7    1  0.2755991E-011  0.5052885E+02  0.7816164E-02  0.1300439E+00
        -11   -1    0    0    0    0  0.00000000000E+00  0.00000000000E+00  0.45593999997E+02  0.45594000000E+02  0.51100000000E-03 0. -1.
         11   -1    0    0    0    0 -0.00000000000E+00 -0.00000000000E+00 -0.45593999997E+02  0.45594000000E+02  0.51100000000E-03 0.  1.
    9900012    2    1    2    0    0 -0.12148298016E+02  0.32939253572E+02 -0.20508319161E+02  0.50528846967E+02  0.29999960841E+02 0.  0.
         12    1    1    2    0    0  0.12148298016E+02 -0.32939253572E+02  0.20508319161E+02  0.40659153033E+02  0.00000000000E+00 0. -1.
         11    1    3    3    0    0 -0.99931736771E+00  0.85529575009E+01 -0.14572787946E+02  0.16926838630E+02  0.51100000000E-03 0. -1.
        -11    1    3    3    0    0 -0.15269964151E+02  0.12486976905E+02 -0.70794336612E+01  0.20957451625E+02  0.51100000000E-03 0.  1.
         12    1    3    3    0    0  0.41209835029E+01  0.11899319166E+02  0.11439024465E+01  0.12644556712E+02  0.00000000000E+00 0. -1.
</event>
<event>
 7    1  0.2755991E-011  0.5052886E+02  0.7816164E-02  0.1300439E+00
        -11   -1    0    0    0    0  0.00000000000E+00  0.00000000000E+00  0.45593999997E+02  0.45594000000E+02  0.51100000000E-03 0.  1.
         11   -1    0    0    0    0 -0.00000000000E+00 -0.00000000000E+00 -0.45593999997E+02  0.45594000000E+02  0.51100000000E-03 0. -1.
    9900012    2    1    2    0    0  0.84409828077E+01  0.34253736306E+01  0.39625525002E+02  0.50528860720E+02  0.30000002645E+02 0.  0.
         12    1    1    2    0    0 -0.84409828077E+01 -0.34253736306E+01 -0.39625525002E+02  0.40659139280E+02  0.00000000000E+00 0. -1.
         11    1    3    3    0    0  0.41442328923E+00 -0.25737154889E+01  0.11847241429E+02  0.12130659001E+02  0.51100000000E-03 0. -1.
        -11    1    3    3    0    0 -0.79272150855E+01  0.16058168436E+01  0.16490581324E+02  0.18367325864E+02  0.51100000000E-03 0.  1.
         12    1    3    3    0    0  0.15953774604E+02  0.43932722758E+01  0.11287702250E+02  0.20030875854E+02  0.00000000000E+00 0. -1.
</event>
<event>
 7    1  0.2755991E-011  0.5052886E+02  0.7816164E-02  0.1300439E+00
        -11   -1    0    0    0    0  0.00000000000E+00  0.00000000000E+00  0.45593999997E+02  0.45594000000E+02  0.51100000000E-03 0.  1.
         11   -1    0    0    0    0 -0.00000000000E+00 -0.00000000000E+00 -0.45593999997E+02  0.45594000000E+02  0.51100000000E-03 0. -1.
    9900012    2    1    2    0    0  0.83239841979E+01  0.16685534730E+02  0.36131285215E+02  0.50528861378E+02  0.30000004646E+02 0.  0.
         12    1    1    2    0    0 -0.83239841979E+01 -0.16685534730E+02 -0.36131285215E+02  0.40659138622E+02  0.00000000000E+00 0. -1.
         11    1    3    3    0    0  0.13117278499E+02  0.23256056386E+01  0.69039202043E+01  0.15004517695E+02  0.51100000000E-03 0. -1.
        -11    1    3    3    0    0  0.45567858143E+01  0.49156326704E+01  0.12250898188E+02  0.13964678592E+02  0.51100000000E-03 0.  1.
         12    1    3    3    0    0 -0.93500801155E+01  0.94442964209E+01  0.16976466823E+02  0.21559665091E+02  0.00000000000E+00 0. -1.
</event>
<event>
 7    1  0.2755991E-011  0.5052886E+02  0.7816164E-02  0.1300439E+00
        -11   -1    0    0    0    0  0.00000000000E+00  0.00000000000E+00  0.45593999997E+02  0.45594000000E+02  0.51100000000E-03 0.  1.
         11   -1    0    0    0    0 -0.00000000000E+00 -0.00000000000E+00 -0.45593999997E+02  0.45594000000E+02  0.51100000000E-03 0. -1.
    9900012    2    1    2    0    0 -0.12650892008E+02 -0.36328202565E+02  0.13167463729E+02  0.50528862389E+02  0.30000007718E+02 0.  0.
         12    1    1    2    0    0  0.12650892008E+02  0.36328202565E+02 -0.13167463729E+02  0.40659137611E+02  0.00000000000E+00 0. -1.
         11    1    3    3    0    0 -0.14313795324E+01 -0.17723470643E+01  0.26658339781E+01  0.35066697224E+01  0.51100000000E-03 0. -1.
        -11    1    3    3    0    0 -0.13215249695E+02 -0.23611567006E+01  0.13479152094E+01  0.13492025835E+02  0.51100000000E-03 0.  1.
         12    1    3    3    0    0  0.19957372191E+01 -0.32194698800E+02  0.91537145415E+01  0.33530166832E+02  0.00000000000E+00 0. -1.
</event>
<event>
 7    1  0.2755991E-011  0.5052884E+02  0.7816164E-02  0.1300439E+00
        -11   -1    0    0    0    0  0.00000000000E+00  0.00000000000E+00  0.45593999997E+02  0.45594000000E+02  0.51100000000E-03 0.  1.
         11   -1    0    0    0    0 -0.00000000000E+00 -0.00000000000E+00 -0.45593999997E+02  0.45594000000E+02  0.51100000000E-03 0. -1.
    9900012    2    1    2    0    0 -0.22184141672E+02 -0.33504149186E+02  0.62050750619E+01  0.50528842226E+02  0.29999946429E+02 0.  0.
         12    1    1    2    0    0  0.22184141672E+02  0.33504149186E+02 -0.62050750619E+01  0.40659157774E+02  0.00000000000E+00 0. -1.
         11    1    3    3    0    0 -0.38551811541E+01 -0.11756723418E+02  0.48934571880E+01  0.13305220433E+02  0.51100000000E-03 0. -1.
        -11    1    3    3    0    0 -0.18348205486E+02 -0.26043933087E+02  0.40711106371E+01  0.32117238942E+02  0.51100000000E-03 0.  1.
         12    1    3    3    0    0  0.19244968632E-01  0.42965073185E+01 -0.27594927631E+01  0.51063828506E+01  0.00000000000E+00 0. -1.
</event>
<event>
 7    1  0.2755991E-011  0.5052886E+02  0.7816164E-02  0.1300439E+00
        -11   -1    0    0    0    0  0.00000000000E+00  0.00000000000E+00  0.45593999997E+02  0.45594000000E+02  0.51100000000E-03 0.  1.
         11   -1    0    0    0    0 -0.00000000000E+00 -0.00000000000E+00 -0.45593999997E+02  0.45594000000E+02  0.51100000000E-03 0. -1.
    9900012    2    1    2    0    0  0.80276859489E+01 -0.36761195366E+02 -0.15405723343E+02  0.50528861567E+02  0.30000005218E+02 0.  0.
         12    1    1    2    0    0 -0.80276859489E+01  0.36761195366E+02  0.15405723343E+02  0.40659138433E+02  0.00000000000E+00 0. -1.
         11    1    3    3    0    0 -0.46784052691E+01 -0.15926808916E+01 -0.74063332138E+01  0.89038126788E+01  0.51100000000E-03 0. -1.
        -11    1    3    3    0    0  0.94713631642E+01 -0.26546096059E+02 -0.13118671673E+02  0.31088606963E+02  0.51100000000E-03 0.  1.
         12    1    3    3    0    0  0.32347280539E+01 -0.86224184154E+01  0.51192815439E+01  0.10536441925E+02  0.00000000000E+00 0. -1.
</event>
<event>
 7    1  0.2755991E-011  0.5052885E+02  0.7816164E-02  0.1300439E+00
        -11   -1    0    0    0    0  0.00000000000E+00  0.00000000000E+00  0.45593999997E+02  0.45594000000E+02  0.51100000000E-03 0.  1.
         11   -1    0    0    0    0 -0.00000000000E+00 -0.00000000000E+00 -0.45593999997E+02  0.45594000000E+02  0.51100000000E-03 0. -1.
    9900012    2    1    2    0    0 -0.35942644353E+02  0.14950018476E+02  0.11738387135E+02  0.50528850132E+02  0.29999970460E+02 0.  0.
         12    1    1    2    0    0  0.35942644353E+02 -0.14950018476E+02 -0.11738387135E+02  0.40659149868E+02  0.00000000000E+00 0. -1.
         11    1    3    3    0    0 -0.17210760360E+02  0.67884988013E+01  0.13434432186E+02  0.22864338096E+02  0.51100000000E-03 0. -1.
        -11    1    3    3    0    0 -0.14353146951E+02  0.98561499817E+01  0.61963472458E+01  0.18481104927E+02  0.51100000000E-03 0.  1.
         12    1    3    3    0    0 -0.43787370415E+01 -0.16946303072E+01 -0.78923922968E+01  0.91834071087E+01  0.00000000000E+00 0. -1.
</event>
<event>
 7    1  0.2755991E-011  0.5052886E+02  0.7816164E-02  0.1300439E+00
        -11   -1    0    0    0    0  0.00000000000E+00  0.00000000000E+00  0.45593999997E+02  0.45594000000E+02  0.51100000000E-03 0. -1.
         11   -1    0    0    0    0 -0.00000000000E+00 -0.00000000000E+00 -0.45593999997E+02  0.45594000000E+02  0.51100000000E-03 0.  1.
    9900012    2    1    2    0    0  0.19006895372E+02  0.10666965852E+01 -0.35927223025E+02  0.50528864894E+02  0.30000015332E+02 0.  0.
         12    1    1    2    0    0 -0.19006895372E+02 -0.10666965852E+01  0.35927223025E+02  0.40659135106E+02  0.00000000000E+00 0. -1.
         11    1    3    3    0    0 -0.42418101777E+01  0.23491579219E+01 -0.12053143300E+02  0.12991911337E+02  0.51100000000E-03 0. -1.
        -11    1    3    3    0    0  0.19879734797E+01  0.61334057005E+01 -0.54930995827E+01  0.84702330151E+01  0.51100000000E-03 0.  1.
        -12    1    3    3    0    0  0.21260732070E+02 -0.74158670373E+01 -0.18380980143E+02  0.29066720542E+02  0.00000000000E+00 0.  1.
</event>
<event>
 7    1  0.2755991E-011  0.5052886E+02  0.7816164E-02  0.1300439E+00
        -11   -1    0    0    0    0  0.00000000000E+00  0.00000000000E+00  0.45593999997E+02  0.45594000000E+02  0.51100000000E-03 0. -1.
         11   -1    0    0    0    0 -0.00000000000E+00 -0.00000000000E+00 -0.45593999997E+02  0.45594000000E+02  0.51100000000E-03 0.  1.
    9900012    2    1    2    0    0 -0.38133891073E+02 -0.12988478632E+02 -0.55019569507E+01  0.50528858890E+02  0.29999997082E+02 0.  0.
         12    1    1    2    0    0  0.38133891073E+02  0.12988478632E+02  0.55019569507E+01  0.40659141110E+02  0.00000000000E+00 0. -1.
         11    1    3    3    0    0 -0.39694027277E+01  0.15153050372E+01  0.30339916207E+01  0.52208632223E+01  0.51100000000E-03 0. -1.
        -11    1    3    3    0    0  0.21360349781E+01  0.27711911281E+01 -0.32229106204E+01  0.47570262585E+01  0.51100000000E-03 0.  1.
         12    1    3    3    0    0 -0.36300523323E+02 -0.17274974797E+02 -0.53130379509E+01  0.40550969409E+02  0.00000000000E+00 0. -1.
</event>
<event>
 7    1  0.2755991E-011  0.5052886E+02  0.7816164E-02  0.1300439E+00
        -11   -1    0    0    0    0  0.00000000000E+00  0.00000000000E+00  0.45593999997E+02  0.45594000000E+02  0.51100000000E-03 0.  1.
         11   -1    0    0    0    0 -0.00000000000E+00 -0.00000000000E+00 -0.45593999997E+02  0.45594000000E+02  0.51100000000E-03 0. -1.
    9900012    2    1    2    0    0  0.30950876433E+02 -0.48095130994E+01  0.25924460839E+02  0.50528857878E+02  0.29999994007E+02 0.  0.
         12    1    1    2    0    0 -0.30950876433E+02  0.48095130994E+01 -0.25924460839E+02  0.40659142122E+02  0.00000000000E+00 0. -1.
         11    1    3    3    0    0  0.94085525719E+01  0.78123253025E+01  0.89748806035E+01  0.15169105782E+02  0.51100000000E-03 0. -1.
        -11    1    3    3    0    0  0.15715387693E+02  0.13525444143E+01  0.10190761648E+02  0.18779095025E+02  0.51100000000E-03 0.  1.
         12    1    3    3    0    0  0.58269361688E+01 -0.13974382816E+02  0.67588185879E+01  0.16580657071E+02  0.00000000000E+00 0. -1.
</event>
<event>
 7    1  0.2755991E-011  0.5052886E+02  0.7816164E-02  0.1300439E+00
        -11   -1    0    0    0    0  0.00000000000E+00  0.00000000000E+00  0.45593999997E+02  0.45594000000E+02  0.51100000000E-03 0.  1.
         11   -1    0    0    0    0 -0.00000000000E+00 -0.00000000000E+00 -0.45593999997E+02  0.45594000000E+02  0.51100000000E-03 0. -1.
    9900012    2    1    2    0    0 -0.95659680921E+01  0.18408342049E+02  0.34968431814E+02  0.50528855567E+02  0.29999986980E+02 0.  0.
         12    1    1    2    0    0  0.95659680921E+01 -0.18408342049E+02 -0.34968431814E+02  0.40659144433E+02  0.00000000000E+00 0. -1.
         11    1    3    3    0    0 -0.13746146682E+00  0.11893350523E+02  0.39835272645E+00  0.11900813732E+02  0.51100000000E-03 0.  1.
        -11    1    3    3    0    0  0.27464364156E+01 -0.12250593040E+00  0.26161277463E+01  0.37950026790E+01  0.51100000000E-03 0. -1.
        -12    1    3    3    0    0 -0.12174943041E+02  0.66374974565E+01  0.31953951341E+02  0.34833039156E+02  0.00000000000E+00 0.  1.
</event>
<event>
 7    1  0.2755991E-011  0.5052885E+02  0.7816164E-02  0.1300439E+00
        -11   -1    0    0    0    0  0.00000000000E+00  0.00000000000E+00  0.45593999997E+02  0.45594000000E+02  0.51100000000E-03 0. -1.
         11   -1    0    0    0    0 -0.00000000000E+00 -0.00000000000E+00 -0.45593999997E+02  0.45594000000E+02  0.51100000000E-03 0.  1.
    9900012    2    1    2    0    0  0.30181358897E+02  0.24730887805E+02 -0.11429586335E+02  0.50528847521E+02  0.29999962525E+02 0.  0.
         12    1    1    2    0    0 -0.30181358897E+02 -0.24730887805E+02  0.11429586335E+02  0.40659152479E+02  0.00000000000E+00 0. -1.
         11    1    3    3    0    0  0.79777668258E+01  0.10882887113E+02  0.15321020267E+01  0.13580476144E+02  0.51100000000E-03 0. -1.
        -11    1    3    3    0    0  0.24212585508E+02  0.11624862309E+02 -0.35755990768E+01  0.27095601667E+02  0.51100000000E-03 0.  1.
         12    1    3    3    0    0 -0.20089934363E+01  0.22231383842E+01 -0.93860892845E+01  0.98527697100E+01  0.00000000000E+00 0. -1.
</event>
<event>
 7    1  0.2755991E-011  0.5052887E+02  0.7816164E-02  0.1300439E+00
        -11   -1    0    0    0    0  0.00000000000E+00  0.00000000000E+00  0.45593999997E+02  0.45594000000E+02  0.51100000000E-03 0. -1.
         11   -1    0    0    0    0 -0.00000000000E+00 -0.00000000000E+00 -0.45593999997E+02  0.45594000000E+02  0.51100000000E-03 0.  1.
    9900012    2    1    2    0    0 -0.66765853746E+00 -0.25085112575E+02 -0.31991501306E+02  0.50528870685E+02  0.30000032935E+02 0.  0.
         12    1    1    2    0    0  0.66765853746E+00  0.25085112575E+02  0.31991501306E+02  0.40659129315E+02  0.00000000000E+00 0. -1.
         11    1    3    3    0    0  0.70812944881E+01 -0.12227087598E+02 -0.59036106548E+01  0.15313360891E+02  0.51100000000E-03 0. -1.
        -11    1    3    3    0    0 -0.32623779185E+01 -0.12519320233E+02 -0.53581128728E+01  0.14003066186E+02  0.51100000000E-03 0.  1.
        -12    1    3    3    0    0 -0.44865751071E+01 -0.33870474373E+00 -0.20729777779E+02  0.21212443608E+02  0.00000000000E+00 0.  1.
</event>
<event>
 7    1  0.2755991E-011  0.5052885E+02  0.7816164E-02  0.1300439E+00
        -11   -1    0    0    0    0  0.00000000000E+00  0.00000000000E+00  0.45593999997E+02  0.45594000000E+02  0.51100000000E-03 0. -1.
         11   -1    0    0    0    0 -0.00000000000E+00 -0.00000000000E+00 -0.45593999997E+02  0.45594000000E+02  0.51100000000E-03 0.  1.
    9900012    2    1    2    0    0 -0.20078288625E+01  0.25969224630E+00 -0.40608716860E+02  0.50528847256E+02  0.29999961721E+02 0.  0.
         12    1    1    2    0    0  0.20078288625E+01 -0.25969224630E+00  0.40608716860E+02  0.40659152744E+02  0.00000000000E+00 0. -1.
         11    1    3    3    0    0 -0.97175607255E-01  0.15485985363E+01 -0.80113249120E+00  0.17462571560E+01  0.51100000000E-03 0. -1.
        -11    1    3    3    0    0 -0.10848992357E+02  0.90914484072E+01 -0.16421873831E+02  0.21680244687E+02  0.51100000000E-03 0.  1.
         12    1    3    3    0    0  0.89383391020E+01 -0.10380354697E+02 -0.23385710538E+02  0.27102345414E+02  0.00000000000E+00 0. -1.
</event>
<event>
 7    1  0.2755991E-011  0.5052885E+02  0.7816164E-02  0.1300439E+00
        -11   -1    0    0    0    0  0.00000000000E+00  0.00000000000E+00  0.45593999997E+02  0.45594000000E+02  0.51100000000E-03 0.  1.
         11   -1    0    0    0    0 -0.00000000000E+00 -0.00000000000E+00 -0.45593999997E+02  0.45594000000E+02  0.51100000000E-03 0. -1.
    9900012    2    1    2    0    0 -0.45424067839E+00  0.39949262045E+02 -0.75509204411E+01  0.50528852542E+02  0.29999977785E+02 0.  0.
         12    1    1    2    0    0  0.45424067839E+00 -0.39949262045E+02  0.75509204411E+01  0.40659147458E+02  0.00000000000E+00 0. -1.
         11    1    3    3    0    0  0.65470558209E+01  0.13725450544E+02 -0.48450773046E+01  0.15960159990E+02  0.51100000000E-03 0. -1.
        -11    1    3    3    0    0 -0.43231406620E+01  0.15594179073E+01  0.66247158574E+01  0.80627656449E+01  0.51100000000E-03 0.  1.
         12    1    3    3    0    0 -0.26781558374E+01  0.24664393594E+02 -0.93305589940E+01  0.26505926907E+02  0.00000000000E+00 0. -1.
</event>
<event>
 7    1  0.2755991E-011  0.5052885E+02  0.7816164E-02  0.1300439E+00
        -11   -1    0    0    0    0  0.00000000000E+00  0.00000000000E+00  0.45593999997E+02  0.45594000000E+02  0.51100000000E-03 0.  1.
         11   -1    0    0    0    0 -0.00000000000E+00 -0.00000000000E+00 -0.45593999997E+02  0.45594000000E+02  0.51100000000E-03 0. -1.
    9900012    2    1    2    0    0  0.36706797941E+01 -0.40174247043E+02 -0.50717633664E+01  0.50528846058E+02  0.29999958078E+02 0.  0.
         12    1    1    2    0    0 -0.36706797941E+01  0.40174247043E+02  0.50717633664E+01  0.40659153942E+02  0.00000000000E+00 0. -1.
         11    1    3    3    0    0  0.19737486874E+00 -0.92580024080E+01  0.95641087222E+01  0.13312465637E+02  0.51100000000E-03 0. -1.
        -11    1    3    3    0    0 -0.10916771020E+01  0.63646840498E+00  0.10888883257E+01  0.16680914161E+01  0.51100000000E-03 0.  1.
         12    1    3    3    0    0  0.45649820274E+01 -0.31552713040E+02 -0.15724760414E+02  0.35548289005E+02  0.00000000000E+00 0. -1.
</event>
<event>
 7    1  0.2755991E-011  0.5052886E+02  0.7816164E-02  0.1300439E+00
        -11   -1    0    0    0    0  0.00000000000E+00  0.00000000000E+00  0.45593999997E+02  0.45594000000E+02  0.51100000000E-03 0.  1.
         11   -1    0    0    0    0 -0.00000000000E+00 -0.00000000000E+00 -0.45593999997E+02  0.45594000000E+02  0.51100000000E-03 0. -1.
    9900012    2    1    2    0    0  0.15760670468E+02 -0.64428547458E+01  0.36922307266E+02  0.50528857305E+02  0.29999992263E+02 0.  0.
         12    1    1    2    0    0 -0.15760670468E+02  0.64428547458E+01 -0.36922307266E+02  0.40659142695E+02  0.00000000000E+00 0. -1.
         11    1    3    3    0    0  0.16499784230E+02  0.76606295050E+01  0.20294775426E+02  0.27254468146E+02  0.51100000000E-03 0.  1.
        -11    1    3    3    0    0  0.44306612440E+00 -0.32891754382E+01 -0.10014362376E+00  0.33203932991E+01  0.51100000000E-03 0. -1.
        -12    1    3    3    0    0 -0.11821798858E+01 -0.10814308813E+02  0.16727675463E+02  0.19953995860E+02  0.00000000000E+00 0.  1.
</event>
<event>
 7    1  0.2755991E-011  0.5052883E+02  0.7816164E-02  0.1300439E+00
        -11   -1    0    0    0    0  0.00000000000E+00  0.00000000000E+00  0.45593999997E+02  0.45594000000E+02  0.51100000000E-03 0.  1.
         11   -1    0    0    0    0 -0.00000000000E+00 -0.00000000000E+00 -0.45593999997E+02  0.45594000000E+02  0.51100000000E-03 0. -1.
    9900012    2    1    2    0    0 -0.25242215561E+02  0.25549565227E+02  0.19058286676E+02  0.50528831037E+02  0.29999912421E+02 0.  0.
         12    1    1    2    0    0  0.25242215561E+02 -0.25549565227E+02 -0.19058286676E+02  0.40659168963E+02  0.00000000000E+00 0. -1.
         11    1    3    3    0    0  0.21835413382E+01  0.74440186828E+01  0.86487365840E+01  0.11618171615E+02  0.51100000000E-03 0. -1.
        -11    1    3    3    0    0 -0.64382867570E+01  0.12949771935E+02  0.94543109315E+01  0.17278082214E+02  0.51100000000E-03 0.  1.
        -12    1    3    3    0    0 -0.20987470143E+02  0.51557746085E+01  0.95523916048E+00  0.21632577208E+02  0.00000000000E+00 0.  1.
</event>
<event>
 7    1  0.2755991E-011  0.5052886E+02  0.7816164E-02  0.1300439E+00
        -11   -1    0    0    0    0  0.00000000000E+00  0.00000000000E+00  0.45593999997E+02  0.45594000000E+02  0.51100000000E-03 0.  1.
         11   -1    0    0    0    0 -0.00000000000E+00 -0.00000000000E+00 -0.45593999997E+02  0.45594000000E+02  0.51100000000E-03 0. -1.
    9900012    2    1    2    0    0 -0.87006582556E+01 -0.13480234468E+02  0.37359708092E+02  0.50528856329E+02  0.29999989296E+02 0.  0.
         12    1    1    2    0    0  0.87006582556E+01  0.13480234468E+02 -0.37359708092E+02  0.40659143671E+02  0.00000000000E+00 0. -1.
         11    1    3    3    0    0  0.17345422175E+01  0.23582918080E+01  0.74165126925E+01  0.79733830797E+01  0.51100000000E-03 0. -1.
        -11    1    3    3    0    0  0.42297467236E+01 -0.70078742781E+01  0.22400101333E+02  0.23848807082E+02  0.51100000000E-03 0.  1.
         12    1    3    3    0    0 -0.14664947197E+02 -0.88306519979E+01  0.75430940662E+01  0.18706666167E+02  0.00000000000E+00 0. -1.
</event>
<event>
 7    1  0.2755991E-011  0.5052886E+02  0.7816164E-02  0.1300439E+00
        -11   -1    0    0    0    0  0.00000000000E+00  0.00000000000E+00  0.45593999997E+02  0.45594000000E+02  0.51100000000E-03 0. -1.
         11   -1    0    0    0    0 -0.00000000000E+00 -0.00000000000E+00 -0.45593999997E+02  0.45594000000E+02  0.51100000000E-03 0.  1.
    9900012    2    1    2    0    0 -0.22782741292E+02  0.84077985101E+01 -0.32610142479E+02  0.50528858727E+02  0.29999996588E+02 0.  0.
         12    1    1    2    0    0  0.22782741292E+02 -0.84077985101E+01  0.32610142479E+02  0.40659141273E+02  0.00000000000E+00 0. -1.
         11    1    3    3    0    0  0.11837142855E+01 -0.24348882461E+01  0.23491868632E+01  0.35844859409E+01  0.51100000000E-03 0.  1.
        -11    1    3    3    0    0  0.22577223444E+01 -0.38083383978E+00 -0.54034577378E+01  0.58685347731E+01  0.51100000000E-03 0. -1.
        -12    1    3    3    0    0 -0.26224177922E+02  0.11223520596E+02 -0.29555871604E+02  0.41075838013E+02  0.00000000000E+00 0.  1.
</event>
<event>
 7    1  0.2755991E-011  0.5052886E+02  0.7816164E-02  0.1300439E+00
        -11   -1    0    0    0    0  0.00000000000E+00  0.00000000000E+00  0.45593999997E+02  0.45594000000E+02  0.51100000000E-03 0.  1.
         11   -1    0    0    0    0 -0.00000000000E+00 -0.00000000000E+00 -0.45593999997E+02  0.45594000000E+02  0.51100000000E-03 0. -1.
    9900012    2    1    2    0    0  0.88400110509E-01 -0.14216096031E+01  0.40634185566E+02  0.50528858038E+02  0.29999994494E+02 0.  0.
         12    1    1    2    0    0 -0.88400110509E-01  0.14216096031E+01 -0.40634185566E+02  0.40659141962E+02  0.00000000000E+00 0. -1.
         11    1    3    3    0    0  0.67402412779E+01 -0.53467179927E+01  0.30127230155E+01  0.91156319587E+01  0.51100000000E-03 0. -1.
        -11    1    3    3    0    0  0.22449117441E+01  0.38521004427E+01  0.23559126442E+01  0.50426809544E+01  0.51100000000E-03 0.  1.
         12    1    3    3    0    0 -0.88967529114E+01  0.73007946969E-01  0.35265549906E+02  0.36370545125E+02  0.00000000000E+00 0. -1.
</event>
<event>
 7    1  0.2755991E-011  0.5052886E+02  0.7816164E-02  0.1300439E+00
        -11   -1    0    0    0    0  0.00000000000E+00  0.00000000000E+00  0.45593999997E+02  0.45594000000E+02  0.51100000000E-03 0.  1.
         11   -1    0    0    0    0 -0.00000000000E+00 -0.00000000000E+00 -0.45593999997E+02  0.45594000000E+02  0.51100000000E-03 0. -1.
    9900012    2    1    2    0    0  0.39510550448E+01  0.10026740565E+02  0.39204832790E+02  0.50528864785E+02  0.30000015001E+02 0.  0.
         12    1    1    2    0    0 -0.39510550448E+01 -0.10026740565E+02 -0.39204832790E+02  0.40659135215E+02  0.00000000000E+00 0. -1.
         11    1    3    3    0    0  0.11079984013E+02  0.42202631029E+01  0.19799677815E+02  0.23078212848E+02  0.51100000000E-03 0. -1.
        -11    1    3    3    0    0 -0.11279389634E+01  0.11171506004E+02  0.12891630260E+02  0.17095874465E+02  0.51100000000E-03 0.  1.
         12    1    3    3    0    0 -0.60009900053E+01 -0.53650285414E+01  0.65135247145E+01  0.10354777472E+02  0.00000000000E+00 0. -1.
</event>
<event>
 7    1  0.2755991E-011  0.5052885E+02  0.7816164E-02  0.1300439E+00
        -11   -1    0    0    0    0  0.00000000000E+00  0.00000000000E+00  0.45593999997E+02  0.45594000000E+02  0.51100000000E-03 0. -1.
         11   -1    0    0    0    0 -0.00000000000E+00 -0.00000000000E+00 -0.45593999997E+02  0.45594000000E+02  0.51100000000E-03 0.  1.
    9900012    2    1    2    0    0  0.14739483650E+02  0.24057009973E+02 -0.29277533820E+02  0.50528854735E+02  0.29999984451E+02 0.  0.
         12    1    1    2    0    0 -0.14739483650E+02 -0.24057009973E+02  0.29277533820E+02  0.40659145265E+02  0.00000000000E+00 0. -1.
         11    1    3    3    0    0 -0.67469995986E+01  0.12210076408E+02 -0.13985485508E+02  0.19753525625E+02  0.51100000000E-03 0. -1.
        -11    1    3    3    0    0  0.70777454467E+01 -0.59802984338E+00 -0.14844382045E+01  0.72564231785E+01  0.51100000000E-03 0.  1.
        -12    1    3    3    0    0  0.14408737802E+02  0.12444963409E+02 -0.13807610107E+02  0.23518905931E+02  0.00000000000E+00 0.  1.
</event>
<event>
 7    1  0.2755991E-011  0.5052886E+02  0.7816164E-02  0.1300439E+00
        -11   -1    0    0    0    0  0.00000000000E+00  0.00000000000E+00  0.45593999997E+02  0.45594000000E+02  0.51100000000E-03 0.  1.
         11   -1    0    0    0    0 -0.00000000000E+00 -0.00000000000E+00 -0.45593999997E+02  0.45594000000E+02  0.51100000000E-03 0. -1.
    9900012    2    1    2    0    0  0.16316686102E+02  0.90651158852E+00  0.37230488341E+02  0.50528864855E+02  0.30000015214E+02 0.  0.
         12    1    1    2    0    0 -0.16316686102E+02 -0.90651158852E+00 -0.37230488341E+02  0.40659135145E+02  0.00000000000E+00 0. -1.
         11    1    3    3    0    0  0.97581556260E-01 -0.24886746227E+01  0.64903002475E+01  0.69517638842E+01  0.51100000000E-03 0.  1.
        -11    1    3    3    0    0  0.12604442276E+01 -0.49579870012E+01 -0.28600327049E+01  0.58608994266E+01  0.51100000000E-03 0. -1.
        -12    1    3    3    0    0  0.14958660318E+02  0.83531732124E+01  0.33600220798E+02  0.37716201544E+02  0.00000000000E+00 0.  1.
</event>
<event>
 7    1  0.2755991E-011  0.5052886E+02  0.7816164E-02  0.1300439E+00
        -11   -1    0    0    0    0  0.00000000000E+00  0.00000000000E+00  0.45593999997E+02  0.45594000000E+02  0.51100000000E-03 0.  1.
         11   -1    0    0    0    0 -0.00000000000E+00 -0.00000000000E+00 -0.45593999997E+02  0.45594000000E+02  0.51100000000E-03 0. -1.
    9900012    2    1    2    0    0 -0.20544991660E+02 -0.12375672855E+02  0.32831559518E+02  0.50528864971E+02  0.30000015566E+02 0.  0.
         12    1    1    2    0    0  0.20544991660E+02  0.12375672855E+02 -0.32831559518E+02  0.40659135029E+02  0.00000000000E+00 0. -1.
         11    1    3    3    0    0 -0.11706690949E+00 -0.22060741899E+01  0.56226755507E+01  0.60411049156E+01  0.51100000000E-03 0. -1.
        -11    1    3    3    0    0 -0.17923226501E+02 -0.18899221089E+02  0.18931436954E+02  0.32199719119E+02  0.51100000000E-03 0.  1.
        -12    1    3    3    0    0 -0.25046982494E+01  0.87296224239E+01  0.82774470136E+01  0.12288040936E+02  0.00000000000E+00 0.  1.
</event>
<event>
 7    1  0.2755991E-011  0.5052886E+02  0.7816164E-02  0.1300439E+00
        -11   -1    0    0    0    0  0.00000000000E+00  0.00000000000E+00  0.45593999997E+02  0.45594000000E+02  0.51100000000E-03 0. -1.
         11   -1    0    0    0    0 -0.00000000000E+00 -0.00000000000E+00 -0.45593999997E+02  0.45594000000E+02  0.51100000000E-03 0.  1.
    9900012    2    1    2    0    0 -0.29436541133E+02  0.25177730964E+02  0.12358707220E+02  0.50528859152E+02  0.29999997877E+02 0.  0.
         12    1    1    2    0    0  0.29436541133E+02 -0.25177730964E+02 -0.12358707220E+02  0.40659140848E+02  0.00000000000E+00 0. -1.
         11    1    3    3    0    0 -0.26562597521E+01  0.23780290635E+01  0.11016199781E+02  0.11578747599E+02  0.51100000000E-03 0. -1.
        -11    1    3    3    0    0 -0.20766581490E+02  0.12963453108E+02  0.78536813832E+01  0.25709576714E+02  0.51100000000E-03 0.  1.
        -12    1    3    3    0    0 -0.60136998904E+01  0.98362487929E+01 -0.65111739435E+01  0.13240534838E+02  0.00000000000E+00 0.  1.
</event>
<event>
 7    1  0.2755991E-011  0.5052887E+02  0.7816164E-02  0.1300439E+00
        -11   -1    0    0    0    0  0.00000000000E+00  0.00000000000E+00  0.45593999997E+02  0.45594000000E+02  0.51100000000E-03 0.  1.
         11   -1    0    0    0    0 -0.00000000000E+00 -0.00000000000E+00 -0.45593999997E+02  0.45594000000E+02  0.51100000000E-03 0. -1.
    9900012    2    1    2    0    0  0.40215887987E+02  0.33997790261E+01  0.49283815314E+01  0.50528867096E+02  0.30000022026E+02 0.  0.
         12    1    1    2    0    0 -0.40215887987E+02 -0.33997790261E+01 -0.49283815314E+01  0.40659132904E+02  0.00000000000E+00 0. -1.
         11    1    3    3    0    0  0.14745299491E+02 -0.80988463043E+00 -0.79546662581E+01  0.16773684322E+02  0.51100000000E-03 0. -1.
        -11    1    3    3    0    0  0.19291234951E+02 -0.51128779649E+01  0.92377968471E+01  0.21991592891E+02  0.51100000000E-03 0.  1.
        -12    1    3    3    0    0  0.61793535437E+01  0.93225416214E+01  0.36452509423E+01  0.11763589883E+02  0.00000000000E+00 0.  1.
</event>
<event>
 7    1  0.2755991E-011  0.5052886E+02  0.7816164E-02  0.1300439E+00
        -11   -1    0    0    0    0  0.00000000000E+00  0.00000000000E+00  0.45593999997E+02  0.45594000000E+02  0.51100000000E-03 0.  1.
         11   -1    0    0    0    0 -0.00000000000E+00 -0.00000000000E+00 -0.45593999997E+02  0.45594000000E+02  0.51100000000E-03 0. -1.
    9900012    2    1    2    0    0  0.58809995531E+01  0.35160799288E+02  0.19552444970E+02  0.50528855067E+02  0.29999985462E+02 0.  0.
         12    1    1    2    0    0 -0.58809995531E+01 -0.35160799288E+02 -0.19552444970E+02  0.40659144933E+02  0.00000000000E+00 0. -1.
         11    1    3    3    0    0 -0.21338689748E+01  0.14646626981E+02 -0.15239895114E+01  0.14879503454E+02  0.51100000000E-03 0. -1.
        -11    1    3    3    0    0 -0.51374419207E+01  0.10847329588E+02  0.12002504021E+02  0.16974038168E+02  0.51100000000E-03 0.  1.
        -12    1    3    3    0    0  0.13152310449E+02  0.96668427186E+01  0.90739304604E+01  0.18675313445E+02  0.00000000000E+00 0.  1.
</event>
<event>
 7    1  0.2755991E-011  0.5052898E+02  0.7816164E-02  0.1300438E+00
        -11   -1    0    0    0    0  0.00000000000E+00  0.00000000000E+00  0.45593999997E+02  0.45594000000E+02  0.51100000000E-03 0.  1.
         11   -1    0    0    0    0 -0.00000000000E+00 -0.00000000000E+00 -0.45593999997E+02  0.45594000000E+02  0.51100000000E-03 0. -1.
    9900012    2    1    2    0    0 -0.36231874185E+02 -0.72059630097E+01 -0.16984744801E+02  0.50528976822E+02  0.30000355546E+02 0.  0.
         12    1    1    2    0    0  0.36231874185E+02  0.72059630097E+01  0.16984744801E+02  0.40659023178E+02  0.00000000000E+00 0. -1.
         11    1    3    3    0    0 -0.17546938118E+00  0.14514223831E+01 -0.27196019505E+01  0.30876611647E+01  0.51100000000E-03 0. -1.
        -11    1    3    3    0    0 -0.22833378064E+01 -0.20691042248E+01  0.65409308273E+01  0.72303941926E+01  0.51100000000E-03 0.  1.
         12    1    3    3    0    0 -0.33773066997E+02 -0.65882811680E+01 -0.20806073678E+02  0.40210921465E+02  0.00000000000E+00 0. -1.
</event>
<event>
 7    1  0.2755991E-011  0.5052886E+02  0.7816164E-02  0.1300439E+00
        -11   -1    0    0    0    0  0.00000000000E+00  0.00000000000E+00  0.45593999997E+02  0.45594000000E+02  0.51100000000E-03 0. -1.
         11   -1    0    0    0    0 -0.00000000000E+00 -0.00000000000E+00 -0.45593999997E+02  0.45594000000E+02  0.51100000000E-03 0.  1.
    9900012    2    1    2    0    0  0.28270017512E+02 -0.27406226282E+02  0.10142498671E+02  0.50528863161E+02  0.30000010065E+02 0.  0.
         12    1    1    2    0    0 -0.28270017512E+02  0.27406226282E+02 -0.10142498671E+02  0.40659136839E+02  0.00000000000E+00 0. -1.
         11    1    3    3    0    0  0.98871421028E+01 -0.34754735470E+01  0.45538072809E+01  0.11426795542E+02  0.51100000000E-03 0.  1.
        -11    1    3    3    0    0  0.20299792774E+02 -0.23676136308E+02  0.11223051698E+02  0.33145103813E+02  0.51100000000E-03 0. -1.
        -12    1    3    3    0    0 -0.19169173639E+01 -0.25461642738E+00 -0.56343603081E+01  0.59569638061E+01  0.00000000000E+00 0.  1.
</event>
<event>
 7    1  0.2755991E-011  0.5052888E+02  0.7816164E-02  0.1300439E+00
        -11   -1    0    0    0    0  0.00000000000E+00  0.00000000000E+00  0.45593999997E+02  0.45594000000E+02  0.51100000000E-03 0.  1.
         11   -1    0    0    0    0 -0.00000000000E+00 -0.00000000000E+00 -0.45593999997E+02  0.45594000000E+02  0.51100000000E-03 0. -1.
    9900012    2    1    2    0    0  0.26112847240E+02  0.15275335666E+02  0.27165185708E+02  0.50528880663E+02  0.30000063263E+02 0.  0.
         12    1    1    2    0    0 -0.26112847240E+02 -0.15275335666E+02 -0.27165185708E+02  0.40659119337E+02  0.00000000000E+00 0. -1.
         11    1    3    3    0    0  0.20433713812E+01  0.45102384950E+01 -0.50997175853E+01  0.71080755197E+01  0.51100000000E-03 0. -1.
        -11    1    3    3    0    0  0.18390403968E+01  0.47780911880E+01  0.22480153670E+01  0.55915828110E+01  0.51100000000E-03 0.  1.
         12    1    3    3    0    0  0.22230435462E+02  0.59870059833E+01  0.30016887926E+02  0.37829222332E+02  0.00000000000E+00 0. -1.
</event>
<event>
 7    1  0.2755991E-011  0.5052885E+02  0.7816164E-02  0.1300439E+00
        -11   -1    0    0    0    0  0.00000000000E+00  0.00000000000E+00  0.45593999997E+02  0.45594000000E+02  0.51100000000E-03 0. -1.
         11   -1    0    0    0    0 -0.00000000000E+00 -0.00000000000E+00 -0.45593999997E+02  0.45594000000E+02  0.51100000000E-03 0.  1.
    9900012    2    1    2    0    0  0.21478823320E+02  0.15618253911E+02 -0.30787928324E+02  0.50528852973E+02  0.29999979097E+02 0.  0.
         12    1    1    2    0    0 -0.21478823320E+02 -0.15618253911E+02  0.30787928324E+02  0.40659147027E+02  0.00000000000E+00 0. -1.
         11    1    3    3    0    0  0.52139659082E+01 -0.20102264495E+01 -0.60486123816E+01  0.82348140765E+01  0.51100000000E-03 0. -1.
        -11    1    3    3    0    0 -0.56591585265E+01  0.60064709608E+00 -0.10217244996E+01  0.57819350892E+01  0.51100000000E-03 0.  1.
        -12    1    3    3    0    0  0.21924015939E+02  0.17027833265E+02 -0.23717591443E+02  0.36512103807E+02  0.00000000000E+00 0.  1.
</event>
<event>
 7    1  0.2755991E-011  0.5052886E+02  0.7816164E-02  0.1300439E+00
        -11   -1    0    0    0    0  0.00000000000E+00  0.00000000000E+00  0.45593999997E+02  0.45594000000E+02  0.51100000000E-03 0.  1.
         11   -1    0    0    0    0 -0.00000000000E+00 -0.00000000000E+00 -0.45593999997E+02  0.45594000000E+02  0.51100000000E-03 0. -1.
    9900012    2    1    2    0    0 -0.56565938593E+01 -0.34989583955E+02  0.19922284423E+02  0.50528862576E+02  0.30000008285E+02 0.  0.
         12    1    1    2    0    0  0.56565938593E+01  0.34989583955E+02 -0.19922284423E+02  0.40659137424E+02  0.00000000000E+00 0. -1.
         11    1    3    3    0    0  0.56760173899E+01  0.48046448979E+00  0.44495466457E+01  0.72281730160E+01  0.51100000000E-03 0. -1.
        -11    1    3    3    0    0 -0.39778945578E+01 -0.81299039091E+01  0.11617929234E+02  0.14727364416E+02  0.51100000000E-03 0.  1.
        -12    1    3    3    0    0 -0.73547166914E+01 -0.27340144536E+02  0.38548085432E+01  0.28573325144E+02  0.00000000000E+00 0.  1.
</event>
<event>
 7    1  0.2755991E-011  0.5052885E+02  0.7816164E-02  0.1300439E+00
        -11   -1    0    0    0    0  0.00000000000E+00  0.00000000000E+00  0.45593999997E+02  0.45594000000E+02  0.51100000000E-03 0. -1.
         11   -1    0    0    0    0 -0.00000000000E+00 -0.00000000000E+00 -0.45593999997E+02  0.45594000000E+02  0.51100000000E-03 0.  1.
    9900012    2    1    2    0    0 -0.36968955823E+02 -0.13286022645E+02  0.10485454432E+02  0.50528845471E+02  0.29999956294E+02 0.  0.
         12    1    1    2    0    0  0.36968955823E+02  0.13286022645E+02 -0.10485454432E+02  0.40659154529E+02  0.00000000000E+00 0. -1.
         11    1    3    3    0    0 -0.13229021303E+02 -0.43692302536E+01 -0.23583431250E+01  0.14130072902E+02  0.51100000000E-03 0. -1.
        -11    1    3    3    0    0 -0.17279604670E+02 -0.92342193509E+01 -0.24964637153E+01  0.19750642417E+02  0.51100000000E-03 0.  1.
         12    1    3    3    0    0 -0.64603298502E+01  0.31742695995E+00  0.15340261272E+02  0.16648130152E+02  0.00000000000E+00 0. -1.
</event>
<event>
 7    1  0.2755991E-011  0.5052886E+02  0.7816164E-02  0.1300439E+00
        -11   -1    0    0    0    0  0.00000000000E+00  0.00000000000E+00  0.45593999997E+02  0.45594000000E+02  0.51100000000E-03 0.  1.
         11   -1    0    0    0    0 -0.00000000000E+00 -0.00000000000E+00 -0.45593999997E+02  0.45594000000E+02  0.51100000000E-03 0. -1.
    9900012    2    1    2    0    0 -0.24055678796E+02 -0.31604099327E+02  0.86989191378E+01  0.50528856246E+02  0.29999989046E+02 0.  0.
         12    1    1    2    0    0  0.24055678796E+02  0.31604099327E+02 -0.86989191378E+01  0.40659143754E+02  0.00000000000E+00 0. -1.
         11    1    3    3    0    0 -0.16168995014E+02 -0.95074433438E+01  0.68671577557E+01  0.19974627271E+02  0.51100000000E-03 0. -1.
        -11    1    3    3    0    0 -0.10481704763E+02 -0.14818035244E+02 -0.64169323203E+01  0.19251423945E+02  0.51100000000E-03 0.  1.
        -12    1    3    3    0    0  0.25950209817E+01 -0.72786207393E+01  0.82486937024E+01  0.11302805030E+02  0.00000000000E+00 0.  1.
</event>
<event>
 7    1  0.2755991E-011  0.5052886E+02  0.7816164E-02  0.1300439E+00
        -11   -1    0    0    0    0  0.00000000000E+00  0.00000000000E+00  0.45593999997E+02  0.45594000000E+02  0.51100000000E-03 0.  1.
         11   -1    0    0    0    0 -0.00000000000E+00 -0.00000000000E+00 -0.45593999997E+02  0.45594000000E+02  0.51100000000E-03 0. -1.
    9900012    2    1    2    0    0  0.11614194976E+02  0.14666362325E+02  0.36099498544E+02  0.50528861988E+02  0.30000006497E+02 0.  0.
         12    1    1    2    0    0 -0.11614194976E+02 -0.14666362325E+02 -0.36099498544E+02  0.40659138012E+02  0.00000000000E+00 0. -1.
         11    1    3    3    0    0  0.36518844156E+01  0.22164041267E+01  0.19387228690E+02  0.19852288119E+02  0.51100000000E-03 0. -1.
        -11    1    3    3    0    0  0.35911889895E+01  0.63162047166E+01  0.20852269389E+02  0.22081852714E+02  0.51100000000E-03 0.  1.
         12    1    3    3    0    0  0.43711215709E+01  0.61337534821E+01 -0.41399995347E+01  0.85947211540E+01  0.00000000000E+00 0. -1.
</event>
<event>
 7    1  0.2755991E-011  0.5052886E+02  0.7816164E-02  0.1300439E+00
        -11   -1    0    0    0    0  0.00000000000E+00  0.00000000000E+00  0.45593999997E+02  0.45594000000E+02  0.51100000000E-03 0.  1.
         11   -1    0    0    0    0 -0.00000000000E+00 -0.00000000000E+00 -0.45593999997E+02  0.45594000000E+02  0.51100000000E-03 0. -1.
    9900012    2    1    2    0    0  0.14091633048E+01 -0.27996751885E+02  0.29451009512E+02  0.50528858118E+02  0.29999994735E+02 0.  0.
         12    1    1    2    0    0 -0.14091633048E+01  0.27996751885E+02 -0.29451009512E+02  0.40659141882E+02  0.00000000000E+00 0. -1.
         11    1    3    3    0    0 -0.82220585056E+01 -0.13895936310E+02  0.27608961628E+02  0.31983652926E+02  0.51100000000E-03 0. -1.
        -11    1    3    3    0    0  0.95958598427E+00  0.18988260364E+00  0.15426251038E+01  0.18266234249E+01  0.51100000000E-03 0.  1.
         12    1    3    3    0    0  0.86716358261E+01 -0.14290698178E+02  0.29942278015E+00  0.16718581767E+02  0.00000000000E+00 0. -1.
</event>
<event>
 7    1  0.2755991E-011  0.5052886E+02  0.7816164E-02  0.1300439E+00
        -11   -1    0    0    0    0  0.00000000000E+00  0.00000000000E+00  0.45593999997E+02  0.45594000000E+02  0.51100000000E-03 0. -1.
         11   -1    0    0    0    0 -0.00000000000E+00 -0.00000000000E+00 -0.45593999997E+02  0.45594000000E+02  0.51100000000E-03 0.  1.
    9900012    2    1    2    0    0 -0.41247191518E+01  0.26991424188E+02 -0.30126661387E+02  0.50528855714E+02  0.29999987427E+02 0.  0.
         12    1    1    2    0    0  0.41247191518E+01 -0.26991424188E+02  0.30126661387E+02  0.40659144286E+02  0.00000000000E+00 0. -1.
         11    1    3    3    0    0 -0.79113870244E+01  0.17904433834E+02 -0.14119292572E+02  0.24135310617E+02  0.51100000000E-03 0. -1.
        -11    1    3    3    0    0  0.74296848301E+01  0.12737397195E+02 -0.77512251728E+01  0.16659021457E+02  0.51100000000E-03 0.  1.
        -12    1    3    3    0    0 -0.36430169575E+01 -0.36504068407E+01 -0.82561436414E+01  0.97345236392E+01  0.00000000000E+00 0.  1.
</event>
<event>
 7    1  0.2755991E-011  0.5052886E+02  0.7816164E-02  0.1300439E+00
        -11   -1    0    0    0    0  0.00000000000E+00  0.00000000000E+00  0.45593999997E+02  0.45594000000E+02  0.51100000000E-03 0. -1.
         11   -1    0    0    0    0 -0.00000000000E+00 -0.00000000000E+00 -0.45593999997E+02  0.45594000000E+02  0.51100000000E-03 0.  1.
    9900012    2    1    2    0    0 -0.22508976235E+02  0.14653600495E+02 -0.30525127792E+02  0.50528862709E+02  0.30000008689E+02 0.  0.
         12    1    1    2    0    0  0.22508976235E+02 -0.14653600495E+02  0.30525127792E+02  0.40659137291E+02  0.00000000000E+00 0. -1.
         11    1    3    3    0    0  0.29713878042E+01  0.43211832540E+01 -0.12607895180E+01  0.53936407618E+01  0.51100000000E-03 0. -1.
        -11    1    3    3    0    0 -0.19824289632E+01  0.10377580121E+02 -0.11927028344E+02  0.15933555759E+02  0.51100000000E-03 0.  1.
        -12    1    3    3    0    0 -0.23497935076E+02 -0.45162880535E-01 -0.17337309930E+02  0.29201666187E+02  0.00000000000E+00 0.  1.
</event>
<event>
 7    1  0.2755991E-011  0.5052885E+02  0.7816164E-02  0.1300439E+00
        -11   -1    0    0    0    0  0.00000000000E+00  0.00000000000E+00  0.45593999997E+02  0.45594000000E+02  0.51100000000E-03 0.  1.
         11   -1    0    0    0    0 -0.00000000000E+00 -0.00000000000E+00 -0.45593999997E+02  0.45594000000E+02  0.51100000000E-03 0. -1.
    9900012    2    1    2    0    0  0.79019293488E+01  0.30615468908E+02  0.25562056679E+02  0.50528853851E+02  0.29999981766E+02 0.  0.
         12    1    1    2    0    0 -0.79019293488E+01 -0.30615468908E+02 -0.25562056679E+02  0.40659146149E+02  0.00000000000E+00 0. -1.
         11    1    3    3    0    0 -0.30196844099E+01  0.10896439267E+02  0.10765444768E+02  0.15612356772E+02  0.51100000000E-03 0. -1.
        -11    1    3    3    0    0  0.55891108191E+00  0.16732169442E+02  0.17054169718E+02  0.23898171078E+02  0.51100000000E-03 0.  1.
        -12    1    3    3    0    0  0.10362702677E+02  0.29868601982E+01 -0.22575578075E+01  0.11018326001E+02  0.00000000000E+00 0.  1.
</event>
<event>
 7    1  0.2755991E-011  0.5052888E+02  0.7816164E-02  0.1300439E+00
        -11   -1    0    0    0    0  0.00000000000E+00  0.00000000000E+00  0.45593999997E+02  0.45594000000E+02  0.51100000000E-03 0. -1.
         11   -1    0    0    0    0 -0.00000000000E+00 -0.00000000000E+00 -0.45593999997E+02  0.45594000000E+02  0.51100000000E-03 0.  1.
    9900012    2    1    2    0    0  0.37630015602E+01 -0.43902457492E+01 -0.40245867427E+02  0.50528876997E+02  0.30000052119E+02 0.  0.
         12    1    1    2    0    0 -0.37630015602E+01  0.43902457492E+01  0.40245867427E+02  0.40659123003E+02  0.00000000000E+00 0. -1.
         11    1    3    3    0    0  0.53585087312E+01  0.98266574397E+01 -0.28746627142E+02  0.30848750129E+02  0.51100000000E-03 0. -1.
        -11    1    3    3    0    0  0.10843119751E+01 -0.58777975549E+01 -0.85616117522E+01  0.10441524439E+02  0.51100000000E-03 0.  1.
        -12    1    3    3    0    0 -0.26798191462E+01 -0.83391056340E+01 -0.29376285326E+01  0.92386024282E+01  0.00000000000E+00 0.  1.
</event>
<event>
 7    1  0.2755991E-011  0.5052886E+02  0.7816164E-02  0.1300439E+00
        -11   -1    0    0    0    0  0.00000000000E+00  0.00000000000E+00  0.45593999997E+02  0.45594000000E+02  0.51100000000E-03 0. -1.
         11   -1    0    0    0    0 -0.00000000000E+00 -0.00000000000E+00 -0.45593999997E+02  0.45594000000E+02  0.51100000000E-03 0.  1.
    9900012    2    1    2    0    0  0.32380621404E+02  0.18265947186E+02 -0.16462570829E+02  0.50528859485E+02  0.29999998891E+02 0.  0.
         12    1    1    2    0    0 -0.32380621404E+02 -0.18265947186E+02  0.16462570829E+02  0.40659140515E+02  0.00000000000E+00 0. -1.
         11    1    3    3    0    0  0.10993748708E+02  0.46944977746E+01 -0.43832898930E+01  0.12732401602E+02  0.51100000000E-03 0. -1.
        -11    1    3    3    0    0  0.22647813541E+02  0.18900794311E+02 -0.13012373297E+02  0.32241050586E+02  0.51100000000E-03 0.  1.
         12    1    3    3    0    0 -0.12609408455E+01 -0.53293449001E+01  0.93309236099E+00  0.55554072968E+01  0.00000000000E+00 0. -1.
</event>
<event>
 7    1  0.2755991E-011  0.5052887E+02  0.7816164E-02  0.1300439E+00
        -11   -1    0    0    0    0  0.00000000000E+00  0.00000000000E+00  0.45593999997E+02  0.45594000000E+02  0.51100000000E-03 0.  1.
         11   -1    0    0    0    0 -0.00000000000E+00 -0.00000000000E+00 -0.45593999997E+02  0.45594000000E+02  0.51100000000E-03 0. -1.
    9900012    2    1    2    0    0 -0.28156119671E+02 -0.44218019671E+01  0.28997328497E+02  0.50528874732E+02  0.30000045237E+02 0.  0.
         12    1    1    2    0    0  0.28156119671E+02  0.44218019671E+01 -0.28997328497E+02  0.40659125268E+02  0.00000000000E+00 0. -1.
         11    1    3    3    0    0 -0.10634966536E+01 -0.43377395785E+01  0.12077245443E+02  0.12876601552E+02  0.51100000000E-03 0. -1.
        -11    1    3    3    0    0 -0.90026333638E+01 -0.36512944434E+01  0.16573170236E+02  0.19210656692E+02  0.51100000000E-03 0.  1.
         12    1    3    3    0    0 -0.18089989654E+02  0.35672320548E+01  0.34691281793E+00  0.18441616489E+02  0.00000000000E+00 0. -1.
</event>
<event>
 7    1  0.2755991E-011  0.5052886E+02  0.7816164E-02  0.1300439E+00
        -11   -1    0    0    0    0  0.00000000000E+00  0.00000000000E+00  0.45593999997E+02  0.45594000000E+02  0.51100000000E-03 0.  1.
         11   -1    0    0    0    0 -0.00000000000E+00 -0.00000000000E+00 -0.45593999997E+02  0.45594000000E+02  0.51100000000E-03 0. -1.
    9900012    2    1    2    0    0 -0.28069301442E+02 -0.17777025911E+02  0.23436240038E+02  0.50528859813E+02  0.29999999887E+02 0.  0.
         12    1    1    2    0    0  0.28069301442E+02  0.17777025911E+02 -0.23436240038E+02  0.40659140187E+02  0.00000000000E+00 0. -1.
         11    1    3    3    0    0 -0.40943789739E+01 -0.76065432232E+01 -0.15407540940E+01  0.87748140965E+01  0.51100000000E-03 0. -1.
        -11    1    3    3    0    0 -0.64057591067E+01  0.21824228328E+01 -0.21991950429E+01  0.71156994211E+01  0.51100000000E-03 0.  1.
        -12    1    3    3    0    0 -0.17569163361E+02 -0.12352905521E+02  0.27176189175E+02  0.34638346295E+02  0.00000000000E+00 0.  1.
</event>
<event>
 7    1  0.2755991E-011  0.5052885E+02  0.7816164E-02  0.1300439E+00
        -11   -1    0    0    0    0  0.00000000000E+00  0.00000000000E+00  0.45593999997E+02  0.45594000000E+02  0.51100000000E-03 0.  1.
         11   -1    0    0    0    0 -0.00000000000E+00 -0.00000000000E+00 -0.45593999997E+02  0.45594000000E+02  0.51100000000E-03 0. -1.
    9900012    2    1    2    0    0  0.28894321544E+02 -0.14674515549E+02  0.24554895651E+02  0.50528854355E+02  0.29999983298E+02 0.  0.
         12    1    1    2    0    0 -0.28894321544E+02  0.14674515549E+02 -0.24554895651E+02  0.40659145645E+02  0.00000000000E+00 0. -1.
         11    1    3    3    0    0  0.18820128133E+02 -0.47521883282E+01  0.11087260183E+01  0.19442473878E+02  0.51100000000E-03 0. -1.
        -11    1    3    3    0    0  0.71849555652E+01 -0.78944595332E+01  0.41224899913E+01  0.11442945503E+02  0.51100000000E-03 0.  1.
        -12    1    3    3    0    0  0.28892378458E+01 -0.20278676879E+01  0.19323679642E+02  0.19643434974E+02  0.00000000000E+00 0.  1.
</event>
<event>
 7    1  0.2755991E-011  0.5052886E+02  0.7816164E-02  0.1300439E+00
        -11   -1    0    0    0    0  0.00000000000E+00  0.00000000000E+00  0.45593999997E+02  0.45594000000E+02  0.51100000000E-03 0.  1.
         11   -1    0    0    0    0 -0.00000000000E+00 -0.00000000000E+00 -0.45593999997E+02  0.45594000000E+02  0.51100000000E-03 0. -1.
    9900012    2    1    2    0    0  0.12143559040E+02 -0.10767156093E+02  0.37279590796E+02  0.50528861219E+02  0.30000004161E+02 0.  0.
         12    1    1    2    0    0 -0.12143559040E+02  0.10767156093E+02 -0.37279590796E+02  0.40659138781E+02  0.00000000000E+00 0. -1.
         11    1    3    3    0    0  0.51135588987E+01 -0.11628343847E+02  0.11631357209E+02  0.17223685320E+02  0.51100000000E-03 0.  1.
        -11    1    3    3    0    0  0.87787789336E+01 -0.59038118101E+01  0.53848743210E+01  0.11870923518E+02  0.51100000000E-03 0. -1.
         12    1    3    3    0    0 -0.17487787921E+01  0.67649995638E+01  0.20263359266E+02  0.21434252380E+02  0.00000000000E+00 0. -1.
</event>
<event>
 7    1  0.2755991E-011  0.5052886E+02  0.7816164E-02  0.1300439E+00
        -11   -1    0    0    0    0  0.00000000000E+00  0.00000000000E+00  0.45593999997E+02  0.45594000000E+02  0.51100000000E-03 0.  1.
         11   -1    0    0    0    0 -0.00000000000E+00 -0.00000000000E+00 -0.45593999997E+02  0.45594000000E+02  0.51100000000E-03 0. -1.
    9900012    2    1    2    0    0  0.21887432240E+02  0.75326045725E+01  0.33427024553E+02  0.50528858443E+02  0.29999995722E+02 0.  0.
         12    1    1    2    0    0 -0.21887432240E+02 -0.75326045725E+01 -0.33427024553E+02  0.40659141557E+02  0.00000000000E+00 0. -1.
         11    1    3    3    0    0  0.13864661778E+02  0.13891712361E+02  0.17469566234E+02  0.26275354674E+02  0.51100000000E-03 0. -1.
        -11    1    3    3    0    0  0.93872286879E+01  0.21075192735E+01  0.73918586699E+01  0.12132653246E+02  0.51100000000E-03 0.  1.
         12    1    3    3    0    0 -0.13644582265E+01 -0.84666270618E+01  0.85655996491E+01  0.12120850523E+02  0.00000000000E+00 0. -1.
</event>
<event>
 7    1  0.2755991E-011  0.5052886E+02  0.7816164E-02  0.1300439E+00
        -11   -1    0    0    0    0  0.00000000000E+00  0.00000000000E+00  0.45593999997E+02  0.45594000000E+02  0.51100000000E-03 0.  1.
         11   -1    0    0    0    0 -0.00000000000E+00 -0.00000000000E+00 -0.45593999997E+02  0.45594000000E+02  0.51100000000E-03 0. -1.
    9900012    2    1    2    0    0 -0.22088053821E+02 -0.33181368302E+02 -0.80174954719E+01  0.50528861327E+02  0.30000004490E+02 0.  0.
         12    1    1    2    0    0  0.22088053821E+02  0.33181368302E+02  0.80174954719E+01  0.40659138673E+02  0.00000000000E+00 0. -1.
         11    1    3    3    0    0 -0.84306541559E+00 -0.99403603607E+01 -0.22967191394E+00  0.99786909385E+01  0.51100000000E-03 0. -1.
        -11    1    3    3    0    0  0.40630902317E+01 -0.89435633973E+01  0.17087594324E+01  0.99707516031E+01  0.51100000000E-03 0.  1.
         12    1    3    3    0    0 -0.25308078637E+02 -0.14297444544E+02 -0.94965829904E+01  0.30579418786E+02  0.00000000000E+00 0. -1.
</event>
<event>
 7    1  0.2755991E-011  0.5052886E+02  0.7816164E-02  0.1300439E+00
        -11   -1    0    0    0    0  0.00000000000E+00  0.00000000000E+00  0.45593999997E+02  0.45594000000E+02  0.51100000000E-03 0.  1.
         11   -1    0    0    0    0 -0.00000000000E+00 -0.00000000000E+00 -0.45593999997E+02  0.45594000000E+02  0.51100000000E-03 0. -1.
    9900012    2    1    2    0    0 -0.26199250888E+02  0.21301948385E+02  0.22649323931E+02  0.50528860478E+02  0.30000001910E+02 0.  0.
         12    1    1    2    0    0  0.26199250888E+02 -0.21301948385E+02 -0.22649323931E+02  0.40659139522E+02  0.00000000000E+00 0. -1.
         11    1    3    3    0    0 -0.18466780888E+02  0.73684400184E+01  0.18712258330E+02  0.27303196090E+02  0.51100000000E-03 0. -1.
        -11    1    3    3    0    0 -0.88489530748E+01  0.10384932637E+02  0.94344106191E+01  0.16587914287E+02  0.51100000000E-03 0.  1.
         12    1    3    3    0    0  0.11164830743E+01  0.35485757294E+01 -0.54973450180E+01  0.66377501014E+01  0.00000000000E+00 0. -1.
</event>
<event>
 7    1  0.2755991E-011  0.5052886E+02  0.7816164E-02  0.1300439E+00
        -11   -1    0    0    0    0  0.00000000000E+00  0.00000000000E+00  0.45593999997E+02  0.45594000000E+02  0.51100000000E-03 0.  1.
         11   -1    0    0    0    0 -0.00000000000E+00 -0.00000000000E+00 -0.45593999997E+02  0.45594000000E+02  0.51100000000E-03 0. -1.
    9900012    2    1    2    0    0 -0.14020290785E+02 -0.33284238761E+02  0.18675020389E+02  0.50528862158E+02  0.30000007014E+02 0.  0.
         12    1    1    2    0    0  0.14020290785E+02  0.33284238761E+02 -0.18675020389E+02  0.40659137842E+02  0.00000000000E+00 0. -1.
         11    1    3    3    0    0 -0.39378017912E+01 -0.22303189163E+02  0.69816120797E+01  0.23699819351E+02  0.51100000000E-03 0. -1.
        -11    1    3    3    0    0 -0.17519110440E+01  0.30053785525E+01  0.98492382471E+01  0.10445524729E+02  0.51100000000E-03 0.  1.
         12    1    3    3    0    0 -0.83305779501E+01 -0.13986428150E+02  0.18441700617E+01  0.16383518077E+02  0.00000000000E+00 0. -1.
</event>
<event>
 7    1  0.2755991E-011  0.5052895E+02  0.7816164E-02  0.1300438E+00
        -11   -1    0    0    0    0  0.00000000000E+00  0.00000000000E+00  0.45593999997E+02  0.45594000000E+02  0.51100000000E-03 0.  1.
         11   -1    0    0    0    0 -0.00000000000E+00 -0.00000000000E+00 -0.45593999997E+02  0.45594000000E+02  0.51100000000E-03 0. -1.
    9900012    2    1    2    0    0  0.60009710501E+01  0.16083446378E+02  0.36857422127E+02  0.50528948526E+02  0.30000269538E+02 0.  0.
         12    1    1    2    0    0 -0.60009710501E+01 -0.16083446378E+02 -0.36857422127E+02  0.40659051474E+02  0.00000000000E+00 0. -1.
         11    1    3    3    0    0  0.34262336809E+01  0.94704773206E+01  0.12002583764E+02  0.15668153535E+02  0.51100000000E-03 0. -1.
        -11    1    3    3    0    0  0.72817824617E+01  0.12210180831E+02  0.76011033304E+01  0.16121093134E+02  0.51100000000E-03 0.  1.
         12    1    3    3    0    0 -0.47070450925E+01 -0.55972117727E+01  0.17253735032E+02  0.18739701857E+02  0.00000000000E+00 0. -1.
</event>
<event>
 7    1  0.2755991E-011  0.5052885E+02  0.7816164E-02  0.1300439E+00
        -11   -1    0    0    0    0  0.00000000000E+00  0.00000000000E+00  0.45593999997E+02  0.45594000000E+02  0.51100000000E-03 0.  1.
         11   -1    0    0    0    0 -0.00000000000E+00 -0.00000000000E+00 -0.45593999997E+02  0.45594000000E+02  0.51100000000E-03 0. -1.
    9900012    2    1    2    0    0 -0.37572651167E+02  0.43166379906E+01  0.14927448517E+02  0.50528853446E+02  0.29999980536E+02 0.  0.
         12    1    1    2    0    0  0.37572651167E+02 -0.43166379906E+01 -0.14927448517E+02  0.40659146554E+02  0.00000000000E+00 0. -1.
         11    1    3    3    0    0 -0.40440172483E+01 -0.44739146218E+01  0.11279135566E+02  0.12790187134E+02  0.51100000000E-03 0. -1.
        -11    1    3    3    0    0 -0.29190190727E+01 -0.29235332746E+01  0.27289802723E+01  0.49512677915E+01  0.51100000000E-03 0.  1.
         12    1    3    3    0    0 -0.30609614846E+02  0.11714085887E+02  0.91933267852E+00  0.32787398520E+02  0.00000000000E+00 0. -1.
</event>
<event>
 7    1  0.2755991E-011  0.5052874E+02  0.7816164E-02  0.1300439E+00
        -11   -1    0    0    0    0  0.00000000000E+00  0.00000000000E+00  0.45593999997E+02  0.45594000000E+02  0.51100000000E-03 0.  1.
         11   -1    0    0    0    0 -0.00000000000E+00 -0.00000000000E+00 -0.45593999997E+02  0.45594000000E+02  0.51100000000E-03 0. -1.
    9900012    2    1    2    0    0  0.27143431904E+02 -0.22491145516E+02  0.20262226127E+02  0.50528741156E+02  0.29999639215E+02 0.  0.
         12    1    1    2    0    0 -0.27143431904E+02  0.22491145516E+02 -0.20262226127E+02  0.40659258844E+02  0.00000000000E+00 0. -1.
         11    1    3    3    0    0  0.17076569723E+02 -0.24073766993E+02  0.10788958418E+02  0.31425421472E+02  0.51100000000E-03 0. -1.
        -11    1    3    3    0    0  0.65016080530E+01 -0.49798196966E+01  0.80828664763E+01  0.11506617323E+02  0.51100000000E-03 0.  1.
         12    1    3    3    0    0  0.35652541287E+01  0.65624411737E+01  0.13904012329E+01  0.75967023602E+01  0.00000000000E+00 0. -1.
</event>
<event>
 7    1  0.2755991E-011  0.5052886E+02  0.7816164E-02  0.1300439E+00
        -11   -1    0    0    0    0  0.00000000000E+00  0.00000000000E+00  0.45593999997E+02  0.45594000000E+02  0.51100000000E-03 0.  1.
         11   -1    0    0    0    0 -0.00000000000E+00 -0.00000000000E+00 -0.45593999997E+02  0.45594000000E+02  0.51100000000E-03 0. -1.
    9900012    2    1    2    0    0 -0.25665254808E+02 -0.38211565221E+01  0.31302704071E+02  0.50528858056E+02  0.29999994546E+02 0.  0.
         12    1    1    2    0    0  0.25665254808E+02  0.38211565221E+01 -0.31302704071E+02  0.40659141944E+02  0.00000000000E+00 0. -1.
         11    1    3    3    0    0 -0.63262443637E+01 -0.72369019146E+01  0.76451549997E+01  0.12281795972E+02  0.51100000000E-03 0. -1.
        -11    1    3    3    0    0 -0.23559138205E+01 -0.43827344439E+01 -0.29106441642E+01  0.57645937279E+01  0.51100000000E-03 0.  1.
        -12    1    3    3    0    0 -0.16983096624E+02  0.77984798364E+01  0.26568193235E+02  0.32482468356E+02  0.00000000000E+00 0.  1.
</event>
<event>
 7    1  0.2755991E-011  0.5052887E+02  0.7816164E-02  0.1300439E+00
        -11   -1    0    0    0    0  0.00000000000E+00  0.00000000000E+00  0.45593999997E+02  0.45594000000E+02  0.51100000000E-03 0. -1.
         11   -1    0    0    0    0 -0.00000000000E+00 -0.00000000000E+00 -0.45593999997E+02  0.45594000000E+02  0.51100000000E-03 0.  1.
    9900012    2    1    2    0    0 -0.82386546279E+01 -0.38416997116E+02 -0.10460595840E+02  0.50528866182E+02  0.30000019246E+02 0.  0.
         12    1    1    2    0    0  0.82386546279E+01  0.38416997116E+02  0.10460595840E+02  0.40659133818E+02  0.00000000000E+00 0. -1.
         11    1    3    3    0    0 -0.49535511808E+01 -0.12418237405E+02  0.51579801675E+01  0.14330214556E+02  0.51100000000E-03 0. -1.
        -11    1    3    3    0    0  0.68862202006E+01 -0.12289921779E+02 -0.17323826035E+01  0.14193778769E+02  0.51100000000E-03 0.  1.
        -12    1    3    3    0    0 -0.10171323648E+02 -0.13708837932E+02 -0.13886193405E+02  0.22004872857E+02  0.00000000000E+00 0.  1.
</event>
<event>
 7    1  0.2755991E-011  0.5052886E+02  0.7816164E-02  0.1300439E+00
        -11   -1    0    0    0    0  0.00000000000E+00  0.00000000000E+00  0.45593999997E+02  0.45594000000E+02  0.51100000000E-03 0. -1.
         11   -1    0    0    0    0 -0.00000000000E+00 -0.00000000000E+00 -0.45593999997E+02  0.45594000000E+02  0.51100000000E-03 0.  1.
    9900012    2    1    2    0    0  0.23761463328E+02  0.25907048008E+02 -0.20429959384E+02  0.50528861833E+02  0.30000006028E+02 0.  0.
         12    1    1    2    0    0 -0.23761463328E+02 -0.25907048008E+02  0.20429959384E+02  0.40659138167E+02  0.00000000000E+00 0. -1.
         11    1    3    3    0    0  0.79754394901E+01  0.10066798404E+02 -0.13706541053E+02  0.18783432409E+02  0.51100000000E-03 0. -1.
        -11    1    3    3    0    0 -0.14584605606E+01  0.15764045293E+01 -0.89981631091E+01  0.92508971481E+01  0.51100000000E-03 0.  1.
         12    1    3    3    0    0  0.17244484399E+02  0.14263845075E+02  0.22747447777E+01  0.22494532276E+02  0.00000000000E+00 0. -1.
</event>
<event>
 7    1  0.2755991E-011  0.5052893E+02  0.7816164E-02  0.1300439E+00
        -11   -1    0    0    0    0  0.00000000000E+00  0.00000000000E+00  0.45593999997E+02  0.45594000000E+02  0.51100000000E-03 0.  1.
         11   -1    0    0    0    0 -0.00000000000E+00 -0.00000000000E+00 -0.45593999997E+02  0.45594000000E+02  0.51100000000E-03 0. -1.
    9900012    2    1    2    0    0  0.40032327844E+02 -0.37827178865E+01  0.60219237937E+01  0.50528932212E+02  0.30000219951E+02 0.  0.
         12    1    1    2    0    0 -0.40032327844E+02  0.37827178865E+01 -0.60219237937E+01  0.40659067788E+02  0.00000000000E+00 0. -1.
         11    1    3    3    0    0  0.64368584299E+01 -0.60509259444E+01  0.10257668130E+01  0.88937646162E+01  0.51100000000E-03 0.  1.
        -11    1    3    3    0    0  0.25901729363E+02  0.60665720491E+01 -0.64080779016E+01  0.27363595215E+02  0.51100000000E-03 0. -1.
         12    1    3    3    0    0  0.76937400509E+01 -0.37983639912E+01  0.11404234882E+02  0.14271572381E+02  0.00000000000E+00 0. -1.
</event>
<event>
 7    1  0.2755991E-011  0.5052886E+02  0.7816164E-02  0.1300439E+00
        -11   -1    0    0    0    0  0.00000000000E+00  0.00000000000E+00  0.45593999997E+02  0.45594000000E+02  0.51100000000E-03 0.  1.
         11   -1    0    0    0    0 -0.00000000000E+00 -0.00000000000E+00 -0.45593999997E+02  0.45594000000E+02  0.51100000000E-03 0. -1.
    9900012    2    1    2    0    0  0.25596829411E+02  0.96108323382E+01  0.30093189519E+02  0.50528857983E+02  0.29999994325E+02 0.  0.
         12    1    1    2    0    0 -0.25596829411E+02 -0.96108323382E+01 -0.30093189519E+02  0.40659142017E+02  0.00000000000E+00 0. -1.
         11    1    3    3    0    0  0.19396052332E+02 -0.42980270814E+01  0.15352245876E+02  0.25107196908E+02  0.51100000000E-03 0. -1.
        -11    1    3    3    0    0  0.53540608108E+01 -0.32696288532E+00  0.80392580291E+01  0.96644990462E+01  0.51100000000E-03 0.  1.
        -12    1    3    3    0    0  0.84671626809E+00  0.14235822305E+02  0.67016856138E+01  0.15757162029E+02  0.00000000000E+00 0.  1.
</event>
<event>
 7    1  0.2755991E-011  0.5052883E+02  0.7816164E-02  0.1300439E+00
        -11   -1    0    0    0    0  0.00000000000E+00  0.00000000000E+00  0.45593999997E+02  0.45594000000E+02  0.51100000000E-03 0. -1.
         11   -1    0    0    0    0 -0.00000000000E+00 -0.00000000000E+00 -0.45593999997E+02  0.45594000000E+02  0.51100000000E-03 0.  1.
    9900012    2    1    2    0    0 -0.40597109411E+02 -0.19888484621E+01  0.10426227418E+01  0.50528832855E+02  0.29999917947E+02 0.  0.
         12    1    1    2    0    0  0.40597109411E+02  0.19888484621E+01 -0.10426227418E+01  0.40659167145E+02  0.00000000000E+00 0. -1.
         11    1    3    3    0    0 -0.42437843375E+01  0.68694932301E+01  0.20954878304E+01  0.83421047853E+01  0.51100000000E-03 0. -1.
        -11    1    3    3    0    0 -0.17133744996E+02  0.42757324409E+01  0.45651727031E+01  0.18239734307E+02  0.51100000000E-03 0.  1.
         12    1    3    3    0    0 -0.19219580077E+02 -0.13134074133E+02 -0.56180377918E+01  0.23946993763E+02  0.00000000000E+00 0. -1.
</event>
<event>
 7    1  0.2755991E-011  0.5052886E+02  0.7816164E-02  0.1300439E+00
        -11   -1    0    0    0    0  0.00000000000E+00  0.00000000000E+00  0.45593999997E+02  0.45594000000E+02  0.51100000000E-03 0. -1.
         11   -1    0    0    0    0 -0.00000000000E+00 -0.00000000000E+00 -0.45593999997E+02  0.45594000000E+02  0.51100000000E-03 0.  1.
    9900012    2    1    2    0    0  0.38062298393E+02  0.80032577668E+01 -0.11848008260E+02  0.50528855966E+02  0.29999988194E+02 0.  0.
         12    1    1    2    0    0 -0.38062298393E+02 -0.80032577668E+01  0.11848008260E+02  0.40659144034E+02  0.00000000000E+00 0. -1.
         11    1    3    3    0    0  0.19869326844E+02 -0.81053281465E+01 -0.52503177864E+01  0.22091906453E+02  0.51100000000E-03 0. -1.
        -11    1    3    3    0    0  0.17226260783E+02  0.90021036882E+01 -0.12238640840E+01  0.19475106545E+02  0.51100000000E-03 0.  1.
        -12    1    3    3    0    0  0.96671076598E+00  0.71064822251E+01 -0.53738263900E+01  0.89618429684E+01  0.00000000000E+00 0.  1.
</event>
<event>
 7    1  0.2755991E-011  0.5052886E+02  0.7816164E-02  0.1300439E+00
        -11   -1    0    0    0    0  0.00000000000E+00  0.00000000000E+00  0.45593999997E+02  0.45594000000E+02  0.51100000000E-03 0.  1.
         11   -1    0    0    0    0 -0.00000000000E+00 -0.00000000000E+00 -0.45593999997E+02  0.45594000000E+02  0.51100000000E-03 0. -1.
    9900012    2    1    2    0    0  0.32158052181E+02 -0.17494241300E+02  0.17691149064E+02  0.50528861372E+02  0.30000004626E+02 0.  0.
         12    1    1    2    0    0 -0.32158052181E+02  0.17494241300E+02 -0.17691149064E+02  0.40659138628E+02  0.00000000000E+00 0. -1.
         11    1    3    3    0    0  0.16909761530E+02 -0.10017583540E+02  0.36451231420E+01  0.19989470678E+02  0.51100000000E-03 0.  1.
        -11    1    3    3    0    0  0.19123161613E+02 -0.35512027719E+01  0.52315765835E+01  0.20141393820E+02  0.51100000000E-03 0. -1.
        -12    1    3    3    0    0 -0.38748709627E+01 -0.39254549889E+01  0.88144493388E+01  0.10397996874E+02  0.00000000000E+00 0.  1.
</event>
<event>
 7    1  0.2755991E-011  0.5052885E+02  0.7816164E-02  0.1300439E+00
        -11   -1    0    0    0    0  0.00000000000E+00  0.00000000000E+00  0.45593999997E+02  0.45594000000E+02  0.51100000000E-03 0.  1.
         11   -1    0    0    0    0 -0.00000000000E+00 -0.00000000000E+00 -0.45593999997E+02  0.45594000000E+02  0.51100000000E-03 0. -1.
    9900012    2    1    2    0    0 -0.24916620743E+02  0.11099976598E+02  0.30151597673E+02  0.50528852051E+02  0.29999976294E+02 0.  0.
         12    1    1    2    0    0  0.24916620743E+02 -0.11099976598E+02 -0.30151597673E+02  0.40659147949E+02  0.00000000000E+00 0. -1.
         11    1    3    3    0    0  0.14517623427E+01  0.25080843821E+01  0.18181228900E+02  0.18410735611E+02  0.51100000000E-03 0. -1.
        -11    1    3    3    0    0 -0.36420649201E+01  0.34641752205E+01  0.64466665598E+01  0.81746349664E+01  0.51100000000E-03 0.  1.
        -12    1    3    3    0    0 -0.22726318166E+02  0.51277169949E+01  0.55237022137E+01  0.23943481474E+02  0.00000000000E+00 0.  1.
</event>
<event>
 7    1  0.2755991E-011  0.5052886E+02  0.7816164E-02  0.1300439E+00
        -11   -1    0    0    0    0  0.00000000000E+00  0.00000000000E+00  0.45593999997E+02  0.45594000000E+02  0.51100000000E-03 0.  1.
         11   -1    0    0    0    0 -0.00000000000E+00 -0.00000000000E+00 -0.45593999997E+02  0.45594000000E+02  0.51100000000E-03 0. -1.
    9900012    2    1    2    0    0 -0.87611205769E+01 -0.12781100403E+02  0.37590581011E+02  0.50528861519E+02  0.30000005074E+02 0.  0.
         12    1    1    2    0    0  0.87611205769E+01  0.12781100403E+02 -0.37590581011E+02  0.40659138481E+02  0.00000000000E+00 0. -1.
         11    1    3    3    0    0  0.45983539691E+01 -0.54751599964E+01  0.20943909539E-01  0.71500122461E+01  0.51100000000E-03 0. -1.
        -11    1    3    3    0    0 -0.11085855543E+01  0.42457026343E+01  0.11862292981E+02  0.12647883136E+02  0.51100000000E-03 0.  1.
        -12    1    3    3    0    0 -0.12250888992E+02 -0.11551643041E+02  0.25707344120E+02  0.30730966137E+02  0.00000000000E+00 0.  1.
</event>
<event>
 7    1  0.2755991E-011  0.5052886E+02  0.7816164E-02  0.1300439E+00
        -11   -1    0    0    0    0  0.00000000000E+00  0.00000000000E+00  0.45593999997E+02  0.45594000000E+02  0.51100000000E-03 0.  1.
         11   -1    0    0    0    0 -0.00000000000E+00 -0.00000000000E+00 -0.45593999997E+02  0.45594000000E+02  0.51100000000E-03 0. -1.
    9900012    2    1    2    0    0 -0.21487337629E+01 -0.12898600577E+02  0.38499026349E+02  0.50528856090E+02  0.29999988571E+02 0.  0.
         12    1    1    2    0    0  0.21487337629E+01  0.12898600577E+02 -0.38499026349E+02  0.40659143910E+02  0.00000000000E+00 0. -1.
         11    1    3    3    0    0 -0.11307512417E+02 -0.13290868182E+02  0.11774778587E+02  0.21051185836E+02  0.51100000000E-03 0. -1.
        -11    1    3    3    0    0 -0.14665799711E+01  0.10078054888E+01  0.43965538781E+01  0.47430174973E+01  0.51100000000E-03 0.  1.
         12    1    3    3    0    0  0.10625358625E+02 -0.61553788431E+00  0.22327693884E+02  0.24734652757E+02  0.00000000000E+00 0. -1.
</event>
<event>
 7    1  0.2755991E-011  0.5052886E+02  0.7816164E-02  0.1300439E+00
        -11   -1    0    0    0    0  0.00000000000E+00  0.00000000000E+00  0.45593999997E+02  0.45594000000E+02  0.51100000000E-03 0.  1.
         11   -1    0    0    0    0 -0.00000000000E+00 -0.00000000000E+00 -0.45593999997E+02  0.45594000000E+02  0.51100000000E-03 0. -1.
    9900012    2    1    2    0    0  0.15822959285E+02 -0.35480576766E+02  0.11996996886E+02  0.50528864465E+02  0.30000014028E+02 0.  0.
         12    1    1    2    0    0 -0.15822959285E+02  0.35480576766E+02 -0.11996996886E+02  0.40659135535E+02  0.00000000000E+00 0. -1.
         11    1    3    3    0    0  0.16302095855E+02 -0.15933236961E+02 -0.82208374340E+00  0.22810133521E+02  0.51100000000E-03 0.  1.
        -11    1    3    3    0    0  0.33475532999E+00 -0.49644633454E+00 -0.29281260511E+01  0.29887192116E+01  0.51100000000E-03 0. -1.
        -12    1    3    3    0    0 -0.81389189972E+00 -0.19050893470E+02  0.15747206681E+02  0.24730011732E+02  0.00000000000E+00 0.  1.
</event>
<event>
 7    1  0.2755991E-011  0.5052886E+02  0.7816164E-02  0.1300439E+00
        -11   -1    0    0    0    0  0.00000000000E+00  0.00000000000E+00  0.45593999997E+02  0.45594000000E+02  0.51100000000E-03 0. -1.
         11   -1    0    0    0    0 -0.00000000000E+00 -0.00000000000E+00 -0.45593999997E+02  0.45594000000E+02  0.51100000000E-03 0.  1.
    9900012    2    1    2    0    0 -0.23630940517E+02  0.11180796091E+02 -0.31140558298E+02  0.50528856846E+02  0.29999990868E+02 0.  0.
         12    1    1    2    0    0  0.23630940517E+02 -0.11180796091E+02  0.31140558298E+02  0.40659143154E+02  0.00000000000E+00 0. -1.
         11    1    3    3    0    0 -0.99655654470E+01  0.66698914091E+01 -0.18147711643E+02  0.21751767382E+02  0.51100000000E-03 0.  1.
        -11    1    3    3    0    0 -0.17922861826E+02  0.81923907084E+01 -0.80531953032E+01  0.21288452184E+02  0.51100000000E-03 0. -1.
         12    1    3    3    0    0  0.42574867556E+01 -0.36814860261E+01 -0.49396513513E+01  0.74886372797E+01  0.00000000000E+00 0. -1.
</event>
<event>
 7    1  0.2755991E-011  0.5052886E+02  0.7816164E-02  0.1300439E+00
        -11   -1    0    0    0    0  0.00000000000E+00  0.00000000000E+00  0.45593999997E+02  0.45594000000E+02  0.51100000000E-03 0.  1.
         11   -1    0    0    0    0 -0.00000000000E+00 -0.00000000000E+00 -0.45593999997E+02  0.45594000000E+02  0.51100000000E-03 0. -1.
    9900012    2    1    2    0    0  0.31259927562E+02 -0.18064489807E+02  0.18699102253E+02  0.50528864640E+02  0.30000014560E+02 0.  0.
         12    1    1    2    0    0 -0.31259927562E+02  0.18064489807E+02 -0.18699102253E+02  0.40659135360E+02  0.00000000000E+00 0. -1.
         11    1    3    3    0    0 -0.68897863056E+00 -0.12807220822E+02  0.83925338716E+01  0.15327564118E+02  0.51100000000E-03 0. -1.
        -11    1    3    3    0    0  0.14772266858E+01  0.92411652535E+00  0.26643621142E+01  0.31835539527E+01  0.51100000000E-03 0.  1.
        -12    1    3    3    0    0  0.30471679506E+02 -0.61813855107E+01  0.76422062670E+01  0.32017746570E+02  0.00000000000E+00 0.  1.
</event>
<event>
 7    1  0.2755991E-011  0.5052886E+02  0.7816164E-02  0.1300439E+00
        -11   -1    0    0    0    0  0.00000000000E+00  0.00000000000E+00  0.45593999997E+02  0.45594000000E+02  0.51100000000E-03 0.  1.
         11   -1    0    0    0    0 -0.00000000000E+00 -0.00000000000E+00 -0.45593999997E+02  0.45594000000E+02  0.51100000000E-03 0. -1.
    9900012    2    1    2    0    0 -0.42889902694E+00  0.18251278675E+02  0.36330052000E+02  0.50528858273E+02  0.29999995206E+02 0.  0.
         12    1    1    2    0    0  0.42889902694E+00 -0.18251278675E+02 -0.36330052000E+02  0.40659141727E+02  0.00000000000E+00 0. -1.
         11    1    3    3    0    0 -0.94759245508E+01  0.42737703858E+01  0.41581179781E+01  0.11195901249E+02  0.51100000000E-03 0. -1.
        -11    1    3    3    0    0  0.21591665703E+01  0.87616981394E+01  0.40085237926E+01  0.98740882020E+01  0.51100000000E-03 0.  1.
        -12    1    3    3    0    0  0.68878589536E+01  0.52158101504E+01  0.28163410229E+02  0.29458868821E+02  0.00000000000E+00 0.  1.
</event>
<event>
 7    1  0.2755991E-011  0.5052887E+02  0.7816164E-02  0.1300439E+00
        -11   -1    0    0    0    0  0.00000000000E+00  0.00000000000E+00  0.45593999997E+02  0.45594000000E+02  0.51100000000E-03 0. -1.
         11   -1    0    0    0    0 -0.00000000000E+00 -0.00000000000E+00 -0.45593999997E+02  0.45594000000E+02  0.51100000000E-03 0.  1.
    9900012    2    1    2    0    0  0.81250713255E+00  0.34334324877E+02 -0.21763707353E+02  0.50528868302E+02  0.30000025692E+02 0.  0.
         12    1    1    2    0    0 -0.81250713255E+00 -0.34334324877E+02  0.21763707353E+02  0.40659131698E+02  0.00000000000E+00 0. -1.
         11    1    3    3    0    0  0.87833925031E+01  0.24107147475E+01 -0.45691703028E+01  0.10190036652E+02  0.51100000000E-03 0. -1.
        -11    1    3    3    0    0 -0.43633671235E+01  0.56848917116E+01 -0.11016447874E+02  0.13142263521E+02  0.51100000000E-03 0.  1.
        -12    1    3    3    0    0 -0.36075182470E+01  0.26238718418E+02 -0.61780891765E+01  0.27196568129E+02  0.00000000000E+00 0.  1.
</event>
<event>
 7    1  0.2755991E-011  0.5052886E+02  0.7816164E-02  0.1300439E+00
        -11   -1    0    0    0    0  0.00000000000E+00  0.00000000000E+00  0.45593999997E+02  0.45594000000E+02  0.51100000000E-03 0.  1.
         11   -1    0    0    0    0 -0.00000000000E+00 -0.00000000000E+00 -0.45593999997E+02  0.45594000000E+02  0.51100000000E-03 0. -1.
    9900012    2    1    2    0    0  0.22812641621E+02 -0.28112735207E+02  0.18504685064E+02  0.50528857512E+02  0.29999992894E+02 0.  0.
         12    1    1    2    0    0 -0.22812641621E+02  0.28112735207E+02 -0.18504685064E+02  0.40659142488E+02  0.00000000000E+00 0. -1.
         11    1    3    3    0    0  0.80690357153E+01 -0.12046271407E+02  0.45684726114E+01  0.15201741165E+02  0.51100000000E-03 0. -1.
        -11    1    3    3    0    0  0.15270257739E+02 -0.15662895116E+02  0.19752456139E+02  0.29473150131E+02  0.51100000000E-03 0.  1.
         12    1    3    3    0    0 -0.52665183339E+00 -0.40356868422E+00 -0.58162436870E+01  0.58539662164E+01  0.00000000000E+00 0. -1.
</event>
<event>
 7    1  0.2755991E-011  0.5052886E+02  0.7816164E-02  0.1300439E+00
        -11   -1    0    0    0    0  0.00000000000E+00  0.00000000000E+00  0.45593999997E+02  0.45594000000E+02  0.51100000000E-03 0.  1.
         11   -1    0    0    0    0 -0.00000000000E+00 -0.00000000000E+00 -0.45593999997E+02  0.45594000000E+02  0.51100000000E-03 0. -1.
    9900012    2    1    2    0    0 -0.22040351700E+01  0.56867476844E+01  0.40199118240E+02  0.50528856163E+02  0.29999988794E+02 0.  0.
         12    1    1    2    0    0  0.22040351700E+01 -0.56867476844E+01 -0.40199118240E+02  0.40659143837E+02  0.00000000000E+00 0. -1.
         11    1    3    3    0    0 -0.68378778584E+01  0.97273969544E+01  0.27414111189E+02  0.29881638470E+02  0.51100000000E-03 0. -1.
        -11    1    3    3    0    0 -0.25402723997E+01 -0.17855870540E+01  0.12754448791E+02  0.13126967251E+02  0.51100000000E-03 0.  1.
         12    1    3    3    0    0  0.71741150881E+01 -0.22550622160E+01  0.30558259726E-01  0.75202504415E+01  0.00000000000E+00 0. -1.
</event>
<event>
 7    1  0.2755991E-011  0.5052886E+02  0.7816164E-02  0.1300439E+00
        -11   -1    0    0    0    0  0.00000000000E+00  0.00000000000E+00  0.45593999997E+02  0.45594000000E+02  0.51100000000E-03 0.  1.
         11   -1    0    0    0    0 -0.00000000000E+00 -0.00000000000E+00 -0.45593999997E+02  0.45594000000E+02  0.51100000000E-03 0. -1.
    9900012    2    1    2    0    0  0.12613297224E+02  0.19735670487E+02  0.33235133223E+02  0.50528855435E+02  0.29999986580E+02 0.  0.
         12    1    1    2    0    0 -0.12613297224E+02 -0.19735670487E+02 -0.33235133223E+02  0.40659144565E+02  0.00000000000E+00 0. -1.
         11    1    3    3    0    0  0.24660946393E+01  0.92978854984E+01  0.13149828422E+02  0.16292645129E+02  0.51100000000E-03 0. -1.
        -11    1    3    3    0    0  0.17391570022E+01  0.16764103408E+02  0.96709261171E+01  0.19431588776E+02  0.51100000000E-03 0.  1.
         12    1    3    3    0    0  0.84080455820E+01 -0.63263184196E+01  0.10414378684E+02  0.14804621530E+02  0.00000000000E+00 0. -1.
</event>
<event>
 7    1  0.2755991E-011  0.5052886E+02  0.7816164E-02  0.1300439E+00
        -11   -1    0    0    0    0  0.00000000000E+00  0.00000000000E+00  0.45593999997E+02  0.45594000000E+02  0.51100000000E-03 0.  1.
         11   -1    0    0    0    0 -0.00000000000E+00 -0.00000000000E+00 -0.45593999997E+02  0.45594000000E+02  0.51100000000E-03 0. -1.
    9900012    2    1    2    0    0 -0.21716812853E+01 -0.40294473111E+02 -0.49804509674E+01  0.50528860133E+02  0.30000000861E+02 0.  0.
         12    1    1    2    0    0  0.21716812853E+01  0.40294473111E+02  0.49804509674E+01  0.40659139867E+02  0.00000000000E+00 0. -1.
         11    1    3    3    0    0  0.22917685999E+01 -0.11040197462E+02 -0.15388033188E+01  0.11380073780E+02  0.51100000000E-03 0. -1.
        -11    1    3    3    0    0 -0.64829649280E+01 -0.33578293324E+02 -0.25455347866E+01  0.34293007515E+02  0.51100000000E-03 0.  1.
         12    1    3    3    0    0  0.20195150427E+01  0.43240176756E+01 -0.89611286198E+00  0.48557788385E+01  0.00000000000E+00 0. -1.
</event>
<event>
 7    1  0.2755991E-011  0.5052884E+02  0.7816164E-02  0.1300439E+00
        -11   -1    0    0    0    0  0.00000000000E+00  0.00000000000E+00  0.45593999997E+02  0.45594000000E+02  0.51100000000E-03 0. -1.
         11   -1    0    0    0    0 -0.00000000000E+00 -0.00000000000E+00 -0.45593999997E+02  0.45594000000E+02  0.51100000000E-03 0.  1.
    9900012    2    1    2    0    0  0.77185003361E+01 -0.37941603569E+02 -0.12410747669E+02  0.50528841296E+02  0.29999943604E+02 0.  0.
         12    1    1    2    0    0 -0.77185003361E+01  0.37941603569E+02  0.12410747669E+02  0.40659158704E+02  0.00000000000E+00 0. -1.
         11    1    3    3    0    0  0.10810815623E+02 -0.22953436239E+02 -0.14491565088E+02  0.29218819767E+02  0.51100000000E-03 0. -1.
        -11    1    3    3    0    0  0.47246939974E+01 -0.62512136048E+01 -0.31847623401E+01  0.84583164002E+01  0.51100000000E-03 0.  1.
         12    1    3    3    0    0 -0.78170092842E+01 -0.87369537247E+01  0.52655797587E+01  0.12851705129E+02  0.00000000000E+00 0. -1.
</event>
<event>
 7    1  0.2755991E-011  0.5052885E+02  0.7816164E-02  0.1300439E+00
        -11   -1    0    0    0    0  0.00000000000E+00  0.00000000000E+00  0.45593999997E+02  0.45594000000E+02  0.51100000000E-03 0. -1.
         11   -1    0    0    0    0 -0.00000000000E+00 -0.00000000000E+00 -0.45593999997E+02  0.45594000000E+02  0.51100000000E-03 0.  1.
    9900012    2    1    2    0    0  0.25411450855E+01 -0.21624697797E+01 -0.40522005311E+02  0.50528848406E+02  0.29999965216E+02 0.  0.
         12    1    1    2    0    0 -0.25411450855E+01  0.21624697797E+01  0.40522005311E+02  0.40659151594E+02  0.00000000000E+00 0. -1.
         11    1    3    3    0    0  0.10973675730E+01 -0.76992331858E+01 -0.81159928081E+01  0.11240629287E+02  0.51100000000E-03 0. -1.
        -11    1    3    3    0    0 -0.43860019693E+01 -0.65025008791E+01 -0.67226438078E+01  0.10330221246E+02  0.51100000000E-03 0.  1.
        -12    1    3    3    0    0  0.58297794818E+01  0.12039264285E+02 -0.25683368695E+02  0.28957997874E+02  0.00000000000E+00 0.  1.
</event>
<event>
 7    1  0.2755991E-011  0.5052886E+02  0.7816164E-02  0.1300439E+00
        -11   -1    0    0    0    0  0.00000000000E+00  0.00000000000E+00  0.45593999997E+02  0.45594000000E+02  0.51100000000E-03 0.  1.
         11   -1    0    0    0    0 -0.00000000000E+00 -0.00000000000E+00 -0.45593999997E+02  0.45594000000E+02  0.51100000000E-03 0. -1.
    9900012    2    1    2    0    0  0.32139427188E+01  0.35982616479E+02  0.18657105761E+02  0.50528859431E+02  0.29999998726E+02 0.  0.
         12    1    1    2    0    0 -0.32139427188E+01 -0.35982616479E+02 -0.18657105761E+02  0.40659140569E+02  0.00000000000E+00 0. -1.
         11    1    3    3    0    0  0.69455577493E+00  0.59963589124E+01 -0.28773177164E+01  0.66871283398E+01  0.51100000000E-03 0. -1.
        -11    1    3    3    0    0  0.62133122176E+01  0.23553233103E+00 -0.10524017031E+01  0.63062091464E+01  0.51100000000E-03 0.  1.
         12    1    3    3    0    0 -0.36939252737E+01  0.29750725235E+02  0.22586825180E+02  0.37535521945E+02  0.00000000000E+00 0. -1.
</event>
<event>
 7    1  0.2755991E-011  0.5052886E+02  0.7816164E-02  0.1300439E+00
        -11   -1    0    0    0    0  0.00000000000E+00  0.00000000000E+00  0.45593999997E+02  0.45594000000E+02  0.51100000000E-03 0.  1.
         11   -1    0    0    0    0 -0.00000000000E+00 -0.00000000000E+00 -0.45593999997E+02  0.45594000000E+02  0.51100000000E-03 0. -1.
    9900012    2    1    2    0    0 -0.33258721297E+01  0.23632894815E+02  0.32917930602E+02  0.50528864521E+02  0.30000014198E+02 0.  0.
         12    1    1    2    0    0  0.33258721297E+01 -0.23632894815E+02 -0.32917930602E+02  0.40659135479E+02  0.00000000000E+00 0. -1.
         11    1    3    3    0    0  0.89721669409E+01  0.85776823271E+01  0.22780143320E+02  0.25942462174E+02  0.51100000000E-03 0. -1.
        -11    1    3    3    0    0 -0.20159060816E+01  0.41425883599E+01  0.82836666345E+01  0.94786100680E+01  0.51100000000E-03 0.  1.
         12    1    3    3    0    0 -0.10282132989E+02  0.10912624128E+02  0.18541206477E+01  0.15107792279E+02  0.00000000000E+00 0. -1.
</event>
<event>
 7    1  0.2755991E-011  0.5052885E+02  0.7816164E-02  0.1300439E+00
        -11   -1    0    0    0    0  0.00000000000E+00  0.00000000000E+00  0.45593999997E+02  0.45594000000E+02  0.51100000000E-03 0.  1.
         11   -1    0    0    0    0 -0.00000000000E+00 -0.00000000000E+00 -0.45593999997E+02  0.45594000000E+02  0.51100000000E-03 0. -1.
    9900012    2    1    2    0    0  0.40424974976E+02 -0.41277548454E+01  0.13962105228E+01  0.50528851390E+02  0.29999974285E+02 0.  0.
         12    1    1    2    0    0 -0.40424974976E+02  0.41277548454E+01 -0.13962105228E+01  0.40659148610E+02  0.00000000000E+00 0. -1.
         11    1    3    3    0    0  0.28137264241E+01 -0.25549615340E+01  0.77560456634E+01  0.86371945343E+01  0.51100000000E-03 0. -1.
        -11    1    3    3    0    0  0.21844227700E+02 -0.93358771593E+01 -0.24000158602E+01  0.23876535815E+02  0.51100000000E-03 0.  1.
         12    1    3    3    0    0  0.15767020852E+02  0.77630838480E+01 -0.39598192803E+01  0.18015121040E+02  0.00000000000E+00 0. -1.
</event>
<event>
 7    1  0.2755991E-011  0.5052886E+02  0.7816164E-02  0.1300439E+00
        -11   -1    0    0    0    0  0.00000000000E+00  0.00000000000E+00  0.45593999997E+02  0.45594000000E+02  0.51100000000E-03 0. -1.
         11   -1    0    0    0    0 -0.00000000000E+00 -0.00000000000E+00 -0.45593999997E+02  0.45594000000E+02  0.51100000000E-03 0.  1.
    9900012    2    1    2    0    0  0.13192566858E+02 -0.15049063225E+02 -0.35392761698E+02  0.50528859516E+02  0.29999998986E+02 0.  0.
         12    1    1    2    0    0 -0.13192566858E+02  0.15049063225E+02  0.35392761698E+02  0.40659140484E+02  0.00000000000E+00 0. -1.
         11    1    3    3    0    0 -0.40974779431E+01 -0.56610662351E+01 -0.47656488305E+01  0.84586290525E+01  0.51100000000E-03 0. -1.
        -11    1    3    3    0    0  0.84392560389E+01 -0.66281987913E+01 -0.30986658508E+02  0.32792179975E+02  0.51100000000E-03 0.  1.
        -12    1    3    3    0    0  0.88507887625E+01 -0.27597981985E+01  0.35954564095E+00  0.92780504894E+01  0.00000000000E+00 0.  1.
</event>
<event>
 7    1  0.2755991E-011  0.5052887E+02  0.7816164E-02  0.1300439E+00
        -11   -1    0    0    0    0  0.00000000000E+00  0.00000000000E+00  0.45593999997E+02  0.45594000000E+02  0.51100000000E-03 0.  1.
         11   -1    0    0    0    0 -0.00000000000E+00 -0.00000000000E+00 -0.45593999997E+02  0.45594000000E+02  0.51100000000E-03 0. -1.
    9900012    2    1    2    0    0  0.34806632144E+02  0.19423396796E+02  0.80246444025E+01  0.50528869389E+02  0.30000028994E+02 0.  0.
         12    1    1    2    0    0 -0.34806632144E+02 -0.19423396796E+02 -0.80246444025E+01  0.40659130611E+02  0.00000000000E+00 0. -1.
         11    1    3    3    0    0  0.13644374593E+02  0.10453666001E+01 -0.43659374746E+01  0.14363953483E+02  0.51100000000E-03 0. -1.
        -11    1    3    3    0    0  0.19819886009E+02  0.52720666561E+01  0.52094889177E+01  0.21160372003E+02  0.51100000000E-03 0.  1.
         12    1    3    3    0    0  0.13423715412E+01  0.13105963539E+02  0.71810929593E+01  0.15004543903E+02  0.00000000000E+00 0. -1.
</event>
<event>
 7    1  0.2755991E-011  0.5052886E+02  0.7816164E-02  0.1300439E+00
        -11   -1    0    0    0    0  0.00000000000E+00  0.00000000000E+00  0.45593999997E+02  0.45594000000E+02  0.51100000000E-03 0. -1.
         11   -1    0    0    0    0 -0.00000000000E+00 -0.00000000000E+00 -0.45593999997E+02  0.45594000000E+02  0.51100000000E-03 0.  1.
    9900012    2    1    2    0    0 -0.26477753945E+02  0.11019639085E+02 -0.28821204977E+02  0.50528858889E+02  0.29999997080E+02 0.  0.
         12    1    1    2    0    0  0.26477753945E+02 -0.11019639085E+02  0.28821204977E+02  0.40659141111E+02  0.00000000000E+00 0. -1.
         11    1    3    3    0    0 -0.28256396522E+01  0.10824724881E+02 -0.32097270601E+01  0.11638782422E+02  0.51100000000E-03 0. -1.
        -11    1    3    3    0    0 -0.11579091938E+02  0.84253780527E+00 -0.12289755422E+01  0.11674571564E+02  0.51100000000E-03 0.  1.
         12    1    3    3    0    0 -0.12073022354E+02 -0.64762360133E+00 -0.24382502375E+02  0.27215504904E+02  0.00000000000E+00 0. -1.
</event>
<event>
 7    1  0.2755991E-011  0.5052884E+02  0.7816164E-02  0.1300439E+00
        -11   -1    0    0    0    0  0.00000000000E+00  0.00000000000E+00  0.45593999997E+02  0.45594000000E+02  0.51100000000E-03 0.  1.
         11   -1    0    0    0    0 -0.00000000000E+00 -0.00000000000E+00 -0.45593999997E+02  0.45594000000E+02  0.51100000000E-03 0. -1.
    9900012    2    1    2    0    0 -0.37881324567E+02 -0.47421891463E+01 -0.13988702434E+02  0.50528844762E+02  0.29999954139E+02 0.  0.
         12    1    1    2    0    0  0.37881324567E+02  0.47421891463E+01  0.13988702434E+02  0.40659155238E+02  0.00000000000E+00 0. -1.
         11    1    3    3    0    0 -0.12678639314E+02 -0.89418211581E+01 -0.14906783393E+02  0.21515488650E+02  0.51100000000E-03 0. -1.
        -11    1    3    3    0    0 -0.36241107906E+01  0.61686737105E+01  0.16127094510E+01  0.73339993457E+01  0.51100000000E-03 0.  1.
        -12    1    3    3    0    0 -0.21578574463E+02 -0.19690416987E+01 -0.69462849186E+00  0.21679356766E+02  0.00000000000E+00 0.  1.
</event>
<event>
 7    1  0.2755991E-011  0.5052888E+02  0.7816164E-02  0.1300439E+00
        -11   -1    0    0    0    0  0.00000000000E+00  0.00000000000E+00  0.45593999997E+02  0.45594000000E+02  0.51100000000E-03 0. -1.
         11   -1    0    0    0    0 -0.00000000000E+00 -0.00000000000E+00 -0.45593999997E+02  0.45594000000E+02  0.51100000000E-03 0.  1.
    9900012    2    1    2    0    0 -0.21370259871E+01  0.36389204770E+02  0.18011754658E+02  0.50528875444E+02  0.30000047398E+02 0.  0.
         12    1    1    2    0    0  0.21370259871E+01 -0.36389204770E+02 -0.18011754658E+02  0.40659124556E+02  0.00000000000E+00 0. -1.
         11    1    3    3    0    0  0.80846053703E+01  0.22764129514E+02  0.69888779861E+01  0.25147780266E+02  0.51100000000E-03 0. -1.
        -11    1    3    3    0    0  0.84610544212E+00 -0.12719985546E+01  0.59482616593E+01  0.61413102649E+01  0.51100000000E-03 0.  1.
        -12    1    3    3    0    0 -0.11067736799E+02  0.14897073810E+02  0.50746150128E+01  0.19239784913E+02  0.00000000000E+00 0.  1.
</event>
<event>
 7    1  0.2755991E-011  0.5052887E+02  0.7816164E-02  0.1300439E+00
        -11   -1    0    0    0    0  0.00000000000E+00  0.00000000000E+00  0.45593999997E+02  0.45594000000E+02  0.51100000000E-03 0.  1.
         11   -1    0    0    0    0 -0.00000000000E+00 -0.00000000000E+00 -0.45593999997E+02  0.45594000000E+02  0.51100000000E-03 0. -1.
    9900012    2    1    2    0    0  0.33643736153E+02  0.10647656343E+02  0.20196327676E+02  0.50528865485E+02  0.30000017127E+02 0.  0.
         12    1    1    2    0    0 -0.33643736153E+02 -0.10647656343E+02 -0.20196327676E+02  0.40659134515E+02  0.00000000000E+00 0. -1.
         11    1    3    3    0    0  0.54513991632E+01  0.16615077890E+01  0.91999707231E+01  0.10822098805E+02  0.51100000000E-03 0. -1.
        -11    1    3    3    0    0  0.15918722928E+02 -0.36025066426E+01  0.14438671335E+02  0.21791260265E+02  0.51100000000E-03 0.  1.
         12    1    3    3    0    0  0.12273614062E+02  0.12588655196E+02 -0.34423143818E+01  0.17915506414E+02  0.00000000000E+00 0. -1.
</event>
<event>
 7    1  0.2755991E-011  0.5052886E+02  0.7816164E-02  0.1300439E+00
        -11   -1    0    0    0    0  0.00000000000E+00  0.00000000000E+00  0.45593999997E+02  0.45594000000E+02  0.51100000000E-03 0.  1.
         11   -1    0    0    0    0 -0.00000000000E+00 -0.00000000000E+00 -0.45593999997E+02  0.45594000000E+02  0.51100000000E-03 0. -1.
    9900012    2    1    2    0    0 -0.23806602255E+02  0.29888991901E+02  0.13894580126E+02  0.50528861978E+02  0.30000006468E+02 0.  0.
         12    1    1    2    0    0  0.23806602255E+02 -0.29888991901E+02 -0.13894580126E+02  0.40659138022E+02  0.00000000000E+00 0. -1.
         11    1    3    3    0    0 -0.13248874300E+02  0.24925788359E+02 -0.35850361973E+01  0.28454877971E+02  0.51100000000E-03 0. -1.
        -11    1    3    3    0    0 -0.88723629640E+01  0.63825557860E+01  0.12353596457E+02  0.16494459331E+02  0.51100000000E-03 0.  1.
        -12    1    3    3    0    0 -0.16853649916E+01 -0.14193522439E+01  0.51260198658E+01  0.55795246762E+01  0.00000000000E+00 0.  1.
</event>
<event>
 7    1  0.2755991E-011  0.5052886E+02  0.7816164E-02  0.1300439E+00
        -11   -1    0    0    0    0  0.00000000000E+00  0.00000000000E+00  0.45593999997E+02  0.45594000000E+02  0.51100000000E-03 0. -1.
         11   -1    0    0    0    0 -0.00000000000E+00 -0.00000000000E+00 -0.45593999997E+02  0.45594000000E+02  0.51100000000E-03 0.  1.
    9900012    2    1    2    0    0  0.13068525334E+02  0.15054143703E+02 -0.35436597210E+02  0.50528855655E+02  0.29999987250E+02 0.  0.
         12    1    1    2    0    0 -0.13068525334E+02 -0.15054143703E+02  0.35436597210E+02  0.40659144345E+02  0.00000000000E+00 0. -1.
         11    1    3    3    0    0  0.31329111258E+00  0.12316128688E+02 -0.44161650379E+01  0.13087692351E+02  0.51100000000E-03 0. -1.
        -11    1    3    3    0    0 -0.38204490859E+01 -0.86221774260E+00 -0.72355871517E+01  0.82275739039E+01  0.51100000000E-03 0.  1.
        -12    1    3    3    0    0  0.16575683307E+02  0.36002327579E+01 -0.23784845020E+02  0.29213589400E+02  0.00000000000E+00 0.  1.
</event>
<event>
 7    1  0.2755991E-011  0.5052890E+02  0.7816164E-02  0.1300439E+00
        -11   -1    0    0    0    0  0.00000000000E+00  0.00000000000E+00  0.45593999997E+02  0.45594000000E+02  0.51100000000E-03 0.  1.
         11   -1    0    0    0    0 -0.00000000000E+00 -0.00000000000E+00 -0.45593999997E+02  0.45594000000E+02  0.51100000000E-03 0. -1.
    9900012    2    1    2    0    0  0.19667346483E+02 -0.31477325922E+02  0.16599279068E+02  0.50528897323E+02  0.30000113904E+02 0.  0.
         12    1    1    2    0    0 -0.19667346483E+02  0.31477325922E+02 -0.16599279068E+02  0.40659102677E+02  0.00000000000E+00 0. -1.
         11    1    3    3    0    0 -0.22263691268E+01  0.20872766005E+01  0.13545628557E+01  0.33389045939E+01  0.51100000000E-03 0. -1.
        -11    1    3    3    0    0  0.35121790748E+01 -0.15425433228E+02  0.14335878197E+02  0.21349398026E+02  0.51100000000E-03 0.  1.
        -12    1    3    3    0    0  0.18381536535E+02 -0.18139169295E+02  0.90883801528E+00  0.25840594704E+02  0.00000000000E+00 0.  1.
</event>
<event>
 7    1  0.2755991E-011  0.5052885E+02  0.7816164E-02  0.1300439E+00
        -11   -1    0    0    0    0  0.00000000000E+00  0.00000000000E+00  0.45593999997E+02  0.45594000000E+02  0.51100000000E-03 0. -1.
         11   -1    0    0    0    0 -0.00000000000E+00 -0.00000000000E+00 -0.45593999997E+02  0.45594000000E+02  0.51100000000E-03 0.  1.
    9900012    2    1    2    0    0 -0.92403277469E+01  0.43222635416E+01 -0.39358615134E+02  0.50528853375E+02  0.29999980319E+02 0.  0.
         12    1    1    2    0    0  0.92403277469E+01 -0.43222635416E+01  0.39358615134E+02  0.40659146625E+02  0.00000000000E+00 0. -1.
         11    1    3    3    0    0 -0.71919943250E+01  0.89146554964E+01 -0.68785015931E+01  0.13360750331E+02  0.51100000000E-03 0. -1.
        -11    1    3    3    0    0 -0.54172692512E+01  0.49713146398E+01 -0.92111027719E+01  0.11785804594E+02  0.51100000000E-03 0.  1.
         12    1    3    3    0    0  0.33689358293E+01 -0.95637065946E+01 -0.23269010769E+02  0.25382298450E+02  0.00000000000E+00 0. -1.
</event>
<event>
 7    1  0.2755991E-011  0.5052896E+02  0.7816164E-02  0.1300438E+00
        -11   -1    0    0    0    0  0.00000000000E+00  0.00000000000E+00  0.45593999997E+02  0.45594000000E+02  0.51100000000E-03 0. -1.
         11   -1    0    0    0    0 -0.00000000000E+00 -0.00000000000E+00 -0.45593999997E+02  0.45594000000E+02  0.51100000000E-03 0.  1.
    9900012    2    1    2    0    0  0.19791591989E+02 -0.23315822125E+02 -0.26792218489E+02  0.50528958614E+02  0.30000300203E+02 0.  0.
         12    1    1    2    0    0 -0.19791591989E+02  0.23315822125E+02  0.26792218489E+02  0.40659041386E+02  0.00000000000E+00 0. -1.
         11    1    3    3    0    0  0.15719045406E+02 -0.12204655143E+02 -0.21850729270E+02  0.29554971926E+02  0.51100000000E-03 0.  1.
        -11    1    3    3    0    0  0.88951754045E+01 -0.67454371770E+01 -0.80509736951E+01  0.13763838341E+02  0.51100000000E-03 0. -1.
         12    1    3    3    0    0 -0.48226288218E+01 -0.43657298049E+01  0.31094844761E+01  0.72101483473E+01  0.00000000000E+00 0. -1.
</event>
<event>
 7    1  0.2755991E-011  0.5052886E+02  0.7816164E-02  0.1300439E+00
        -11   -1    0    0    0    0  0.00000000000E+00  0.00000000000E+00  0.45593999997E+02  0.45594000000E+02  0.51100000000E-03 0. -1.
         11   -1    0    0    0    0 -0.00000000000E+00 -0.00000000000E+00 -0.45593999997E+02  0.45594000000E+02  0.51100000000E-03 0.  1.
    9900012    2    1    2    0    0 -0.14219417935E+02 -0.34927759645E+02 -0.15199520219E+02  0.50528860128E+02  0.30000000846E+02 0.  0.
         12    1    1    2    0    0  0.14219417935E+02  0.34927759645E+02  0.15199520219E+02  0.40659139872E+02  0.00000000000E+00 0. -1.
         11    1    3    3    0    0 -0.20083118412E+00  0.42763135756E+01  0.20504059914E+01  0.47467205470E+01  0.51100000000E-03 0. -1.
        -11    1    3    3    0    0 -0.85755290189E+01 -0.13324664881E+02 -0.48315790409E+01  0.16565945443E+02  0.51100000000E-03 0.  1.
        -12    1    3    3    0    0 -0.54430577316E+01 -0.25879408340E+02 -0.12418347170E+02  0.29216194138E+02  0.00000000000E+00 0.  1.
</event>
<event>
 7    1  0.2755991E-011  0.5052887E+02  0.7816164E-02  0.1300439E+00
        -11   -1    0    0    0    0  0.00000000000E+00  0.00000000000E+00  0.45593999997E+02  0.45594000000E+02  0.51100000000E-03 0.  1.
         11   -1    0    0    0    0 -0.00000000000E+00 -0.00000000000E+00 -0.45593999997E+02  0.45594000000E+02  0.51100000000E-03 0. -1.
    9900012    2    1    2    0    0 -0.12459997000E+02  0.28834020059E+02  0.25816912792E+02  0.50528865428E+02  0.30000016956E+02 0.  0.
         12    1    1    2    0    0  0.12459997000E+02 -0.28834020059E+02 -0.25816912792E+02  0.40659134572E+02  0.00000000000E+00 0. -1.
         11    1    3    3    0    0 -0.10444287412E+02  0.23169707057E+02  0.40895985675E+01  0.25741858545E+02  0.51100000000E-03 0. -1.
        -11    1    3    3    0    0  0.16250792353E+01  0.52240704661E+01  0.42464824448E+01  0.69256341349E+01  0.51100000000E-03 0.  1.
        -12    1    3    3    0    0 -0.36407888232E+01  0.44024253611E+00  0.17480831780E+02  0.17861372748E+02  0.00000000000E+00 0.  1.
</event>
<event>
 7    1  0.2755991E-011  0.5052886E+02  0.7816164E-02  0.1300439E+00
        -11   -1    0    0    0    0  0.00000000000E+00  0.00000000000E+00  0.45593999997E+02  0.45594000000E+02  0.51100000000E-03 0. -1.
         11   -1    0    0    0    0 -0.00000000000E+00 -0.00000000000E+00 -0.45593999997E+02  0.45594000000E+02  0.51100000000E-03 0.  1.
    9900012    2    1    2    0    0  0.37879385277E+01  0.38234605444E+02 -0.13301571787E+02  0.50528863957E+02  0.30000012484E+02 0.  0.
         12    1    1    2    0    0 -0.37879385277E+01 -0.38234605444E+02  0.13301571787E+02  0.40659136043E+02  0.00000000000E+00 0. -1.
         11    1    3    3    0    0  0.48563816372E+01  0.63574039893E+01  0.47329943602E+01  0.92952818120E+01  0.51100000000E-03 0. -1.
        -11    1    3    3    0    0  0.29366750225E+00  0.15402525292E+02  0.16900989849E+01  0.15497756638E+02  0.51100000000E-03 0.  1.
        -12    1    3    3    0    0 -0.13621106117E+01  0.16474676163E+02 -0.19724665132E+02  0.25735825508E+02  0.00000000000E+00 0.  1.
</event>
<event>
 7    1  0.2755991E-011  0.5052886E+02  0.7816164E-02  0.1300439E+00
        -11   -1    0    0    0    0  0.00000000000E+00  0.00000000000E+00  0.45593999997E+02  0.45594000000E+02  0.51100000000E-03 0. -1.
         11   -1    0    0    0    0 -0.00000000000E+00 -0.00000000000E+00 -0.45593999997E+02  0.45594000000E+02  0.51100000000E-03 0.  1.
    9900012    2    1    2    0    0 -0.10626043620E+02 -0.24141226964E+01 -0.39171737660E+02  0.50528858067E+02  0.29999994580E+02 0.  0.
         12    1    1    2    0    0  0.10626043620E+02  0.24141226964E+01  0.39171737660E+02  0.40659141933E+02  0.00000000000E+00 0. -1.
         11    1    3    3    0    0  0.60606695362E+01  0.16286440687E+01 -0.62423365230E+01  0.88516078911E+01  0.51100000000E-03 0. -1.
        -11    1    3    3    0    0 -0.11576194776E+02  0.27434004944E+00 -0.33015034862E+02  0.34986798584E+02  0.51100000000E-03 0.  1.
         12    1    3    3    0    0 -0.51105183805E+01 -0.43171068145E+01  0.85633724794E-01  0.66904515917E+01  0.00000000000E+00 0. -1.
</event>
<event>
 7    1  0.2755991E-011  0.5052886E+02  0.7816164E-02  0.1300439E+00
        -11   -1    0    0    0    0  0.00000000000E+00  0.00000000000E+00  0.45593999997E+02  0.45594000000E+02  0.51100000000E-03 0.  1.
         11   -1    0    0    0    0 -0.00000000000E+00 -0.00000000000E+00 -0.45593999997E+02  0.45594000000E+02  0.51100000000E-03 0. -1.
    9900012    2    1    2    0    0 -0.34967533209E+02  0.11051724613E+02  0.17558387669E+02  0.50528856217E+02  0.29999988958E+02 0.  0.
         12    1    1    2    0    0  0.34967533209E+02 -0.11051724613E+02 -0.17558387669E+02  0.40659143783E+02  0.00000000000E+00 0. -1.
         11    1    3    3    0    0  0.59320430542E+00  0.48864891807E+00 -0.12531448082E+01  0.14700480552E+01  0.51100000000E-03 0. -1.
        -11    1    3    3    0    0 -0.24836810989E+01 -0.62972492749E+01 -0.12120341766E+01  0.68769940626E+01  0.51100000000E-03 0.  1.
        -12    1    3    3    0    0 -0.33077056415E+02  0.16860324970E+02  0.20023566654E+02  0.42181814099E+02  0.00000000000E+00 0.  1.
</event>
<event>
 7    1  0.2755991E-011  0.5052886E+02  0.7816164E-02  0.1300439E+00
        -11   -1    0    0    0    0  0.00000000000E+00  0.00000000000E+00  0.45593999997E+02  0.45594000000E+02  0.51100000000E-03 0.  1.
         11   -1    0    0    0    0 -0.00000000000E+00 -0.00000000000E+00 -0.45593999997E+02  0.45594000000E+02  0.51100000000E-03 0. -1.
    9900012    2    1    2    0    0  0.23765754279E-01  0.25086455692E+02  0.31997416214E+02  0.50528862425E+02  0.30000007826E+02 0.  0.
         12    1    1    2    0    0 -0.23765754279E-01 -0.25086455692E+02 -0.31997416214E+02  0.40659137575E+02  0.00000000000E+00 0. -1.
         11    1    3    3    0    0 -0.25982095666E+01 -0.29532319026E+01 -0.29552728068E+00  0.39445669290E+01  0.51100000000E-03 0. -1.
        -11    1    3    3    0    0 -0.55475117653E+01  0.14359418989E+01  0.60393552068E+01  0.83253004449E+01  0.51100000000E-03 0.  1.
        -12    1    3    3    0    0  0.81694870862E+01  0.26603745696E+02  0.26253588288E+02  0.38258995051E+02  0.00000000000E+00 0.  1.
</event>
<event>
 7    1  0.2755991E-011  0.5052886E+02  0.7816164E-02  0.1300439E+00
        -11   -1    0    0    0    0  0.00000000000E+00  0.00000000000E+00  0.45593999997E+02  0.45594000000E+02  0.51100000000E-03 0.  1.
         11   -1    0    0    0    0 -0.00000000000E+00 -0.00000000000E+00 -0.45593999997E+02  0.45594000000E+02  0.51100000000E-03 0. -1.
    9900012    2    1    2    0    0  0.12593751140E+02 -0.50006911263E+00  0.38656345637E+02  0.50528859639E+02  0.29999999358E+02 0.  0.
         12    1    1    2    0    0 -0.12593751140E+02  0.50006911263E+00 -0.38656345637E+02  0.40659140361E+02  0.00000000000E+00 0. -1.
         11    1    3    3    0    0  0.12292610266E+00  0.47858291574E+01  0.41213678840E+01  0.63170360967E+01  0.51100000000E-03 0. -1.
        -11    1    3    3    0    0  0.13951195088E+02  0.48015348359E+01  0.10515602546E+02  0.18118180878E+02  0.51100000000E-03 0.  1.
        -12    1    3    3    0    0 -0.14803700506E+01 -0.10087433106E+02  0.24019375207E+02  0.26093642664E+02  0.00000000000E+00 0.  1.
</event>
<event>
 7    1  0.2755991E-011  0.5052886E+02  0.7816164E-02  0.1300439E+00
        -11   -1    0    0    0    0  0.00000000000E+00  0.00000000000E+00  0.45593999997E+02  0.45594000000E+02  0.51100000000E-03 0.  1.
         11   -1    0    0    0    0 -0.00000000000E+00 -0.00000000000E+00 -0.45593999997E+02  0.45594000000E+02  0.51100000000E-03 0. -1.
    9900012    2    1    2    0    0 -0.15355479859E+02 -0.35602660865E+02  0.12240323875E+02  0.50528858950E+02  0.29999997266E+02 0.  0.
         12    1    1    2    0    0  0.15355479859E+02  0.35602660865E+02 -0.12240323875E+02  0.40659141050E+02  0.00000000000E+00 0. -1.
         11    1    3    3    0    0  0.36020920837E+01 -0.43403288868E+01  0.11314251075E+02  0.12642222901E+02  0.51100000000E-03 0. -1.
        -11    1    3    3    0    0 -0.13385145854E+02 -0.14984263133E+02  0.37845061796E+01  0.20445360316E+02  0.51100000000E-03 0.  1.
        -12    1    3    3    0    0 -0.55724260880E+01 -0.16278068845E+02 -0.28584333797E+01  0.17441275733E+02  0.00000000000E+00 0.  1.
</event>
<event>
 7    1  0.2755991E-011  0.5052887E+02  0.7816164E-02  0.1300439E+00
        -11   -1    0    0    0    0  0.00000000000E+00  0.00000000000E+00  0.45593999997E+02  0.45594000000E+02  0.51100000000E-03 0.  1.
         11   -1    0    0    0    0 -0.00000000000E+00 -0.00000000000E+00 -0.45593999997E+02  0.45594000000E+02  0.51100000000E-03 0. -1.
    9900012    2    1    2    0    0 -0.29241453395E+02 -0.20430468491E+02  0.19511478862E+02  0.50528874988E+02  0.30000046012E+02 0.  0.
         12    1    1    2    0    0  0.29241453395E+02  0.20430468491E+02 -0.19511478862E+02  0.40659125012E+02  0.00000000000E+00 0. -1.
         11    1    3    3    0    0  0.15712695149E+01 -0.37952710540E+01  0.90669170940E+01  0.99539919687E+01  0.51100000000E-03 0. -1.
        -11    1    3    3    0    0 -0.44279832502E+00 -0.52982583224E+01  0.57303667799E+01  0.78169505116E+01  0.51100000000E-03 0.  1.
        -12    1    3    3    0    0 -0.30369924585E+02 -0.11336939115E+02  0.47141949879E+01  0.32757932507E+02  0.00000000000E+00 0.  1.
</event>
<event>
 7    1  0.2755991E-011  0.5052886E+02  0.7816164E-02  0.1300439E+00
        -11   -1    0    0    0    0  0.00000000000E+00  0.00000000000E+00  0.45593999997E+02  0.45594000000E+02  0.51100000000E-03 0.  1.
         11   -1    0    0    0    0 -0.00000000000E+00 -0.00000000000E+00 -0.45593999997E+02  0.45594000000E+02  0.51100000000E-03 0. -1.
    9900012    2    1    2    0    0 -0.11059485510E+02 -0.13953976726E+02  0.36553245713E+02  0.50528862548E+02  0.30000008200E+02 0.  0.
         12    1    1    2    0    0  0.11059485510E+02  0.13953976726E+02 -0.36553245713E+02  0.40659137452E+02  0.00000000000E+00 0. -1.
         11    1    3    3    0    0 -0.25279628612E+01 -0.96232237001E+00  0.14800747947E+01  0.30833881090E+01  0.51100000000E-03 0. -1.
        -11    1    3    3    0    0 -0.15253270475E+02 -0.11022325207E+02  0.35758002681E+02  0.40407779810E+02  0.51100000000E-03 0.  1.
         12    1    3    3    0    0  0.67217478264E+01 -0.19693291494E+01 -0.68483176306E+00  0.70376946285E+01  0.00000000000E+00 0. -1.
</event>
<event>
 7    1  0.2755991E-011  0.5052886E+02  0.7816164E-02  0.1300439E+00
        -11   -1    0    0    0    0  0.00000000000E+00  0.00000000000E+00  0.45593999997E+02  0.45594000000E+02  0.51100000000E-03 0.  1.
         11   -1    0    0    0    0 -0.00000000000E+00 -0.00000000000E+00 -0.45593999997E+02  0.45594000000E+02  0.51100000000E-03 0. -1.
    9900012    2    1    2    0    0  0.39396071543E+02 -0.69982286504E+01  0.72207899168E+01  0.50528862475E+02  0.30000007979E+02 0.  0.
         12    1    1    2    0    0 -0.39396071543E+02  0.69982286504E+01 -0.72207899168E+01  0.40659137525E+02  0.00000000000E+00 0. -1.
         11    1    3    3    0    0  0.49068396195E+00 -0.24900525506E+01  0.36250420473E+01  0.44251624333E+01  0.51100000000E-03 0. -1.
        -11    1    3    3    0    0  0.25333095108E+01 -0.29010716161E+01 -0.71689688565E+01  0.81380580193E+01  0.51100000000E-03 0.  1.
        -12    1    3    3    0    0  0.36372078070E+02 -0.16071044837E+01  0.10764716726E+02  0.37965642022E+02  0.00000000000E+00 0.  1.
</event>
<event>
 7    1  0.2755991E-011  0.5052894E+02  0.7816164E-02  0.1300439E+00
        -11   -1    0    0    0    0  0.00000000000E+00  0.00000000000E+00  0.45593999997E+02  0.45594000000E+02  0.51100000000E-03 0. -1.
         11   -1    0    0    0    0 -0.00000000000E+00 -0.00000000000E+00 -0.45593999997E+02  0.45594000000E+02  0.51100000000E-03 0.  1.
    9900012    2    1    2    0    0  0.14038578624E+02 -0.72311604269E+01 -0.37467155161E+02  0.50528940902E+02  0.30000246364E+02 0.  0.
         12    1    1    2    0    0 -0.14038578624E+02  0.72311604269E+01  0.37467155161E+02  0.40659059098E+02  0.00000000000E+00 0. -1.
         11    1    3    3    0    0  0.16832540065E+01 -0.11635289997E+02 -0.13958265407E+02  0.18249561386E+02  0.51100000000E-03 0. -1.
        -11    1    3    3    0    0 -0.32436900932E+01 -0.30027376303E+01 -0.76426779912E+01  0.88288439693E+01  0.51100000000E-03 0.  1.
        -12    1    3    3    0    0  0.15599014711E+02  0.74068672008E+01 -0.15866211763E+02  0.23450535546E+02  0.00000000000E+00 0.  1.
</event>
<event>
 7    1  0.2755991E-011  0.5052886E+02  0.7816164E-02  0.1300439E+00
        -11   -1    0    0    0    0  0.00000000000E+00  0.00000000000E+00  0.45593999997E+02  0.45594000000E+02  0.51100000000E-03 0.  1.
         11   -1    0    0    0    0 -0.00000000000E+00 -0.00000000000E+00 -0.45593999997E+02  0.45594000000E+02  0.51100000000E-03 0. -1.
    9900012    2    1    2    0    0 -0.88114553898E+01 -0.11230828262E+02  0.38070887611E+02  0.50528859171E+02  0.29999997935E+02 0.  0.
         12    1    1    2    0    0  0.88114553898E+01  0.11230828262E+02 -0.38070887611E+02  0.40659140829E+02  0.00000000000E+00 0. -1.
         11    1    3    3    0    0  0.13956060441E+01  0.18753405924E+01  0.16124362300E+01  0.28398185549E+01  0.51100000000E-03 0. -1.
        -11    1    3    3    0    0 -0.12281846617E+02  0.41731165613E+01  0.19264662718E+02  0.23224682733E+02  0.51100000000E-03 0.  1.
         12    1    3    3    0    0  0.20747851832E+01 -0.17279285415E+02  0.17193788663E+02  0.24464357882E+02  0.00000000000E+00 0. -1.
</event>
<event>
 7    1  0.2755991E-011  0.5052885E+02  0.7816164E-02  0.1300439E+00
        -11   -1    0    0    0    0  0.00000000000E+00  0.00000000000E+00  0.45593999997E+02  0.45594000000E+02  0.51100000000E-03 0.  1.
         11   -1    0    0    0    0 -0.00000000000E+00 -0.00000000000E+00 -0.45593999997E+02  0.45594000000E+02  0.51100000000E-03 0. -1.
    9900012    2    1    2    0    0  0.16321512454E+02 -0.20012489444E+02  0.31405017012E+02  0.50528848557E+02  0.29999965675E+02 0.  0.
         12    1    1    2    0    0 -0.16321512454E+02  0.20012489444E+02 -0.31405017012E+02  0.40659151443E+02  0.00000000000E+00 0. -1.
         11    1    3    3    0    0  0.15353672537E+01  0.26636910396E+00  0.14300690681E+02  0.14385341822E+02  0.51100000000E-03 0. -1.
        -11    1    3    3    0    0 -0.36949309760E+01 -0.97330040441E+01  0.72999988805E+01  0.12715103875E+02  0.51100000000E-03 0.  1.
         12    1    3    3    0    0  0.18481076176E+02 -0.10545854504E+02  0.98043274500E+01  0.23428402860E+02  0.00000000000E+00 0. -1.
</event>
<event>
 7    1  0.2755991E-011  0.5052886E+02  0.7816164E-02  0.1300439E+00
        -11   -1    0    0    0    0  0.00000000000E+00  0.00000000000E+00  0.45593999997E+02  0.45594000000E+02  0.51100000000E-03 0. -1.
         11   -1    0    0    0    0 -0.00000000000E+00 -0.00000000000E+00 -0.45593999997E+02  0.45594000000E+02  0.51100000000E-03 0.  1.
    9900012    2    1    2    0    0  0.28934922510E+02  0.23692951974E+02  0.15955563779E+02  0.50528859215E+02  0.29999998069E+02 0.  0.
         12    1    1    2    0    0 -0.28934922510E+02 -0.23692951974E+02 -0.15955563779E+02  0.40659140785E+02  0.00000000000E+00 0. -1.
         11    1    3    3    0    0  0.75879501954E+01 -0.22505897017E+01  0.11030683197E+02  0.13576380748E+02  0.51100000000E-03 0. -1.
        -11    1    3    3    0    0  0.62993267007E+01  0.63216144785E+01  0.80621015333E+01  0.12026712264E+02  0.51100000000E-03 0.  1.
        -12    1    3    3    0    0  0.15047645614E+02  0.19621927198E+02 -0.31372209508E+01  0.24925766202E+02  0.00000000000E+00 0.  1.
</event>
<event>
 7    1  0.2755991E-011  0.5052886E+02  0.7816164E-02  0.1300439E+00
        -11   -1    0    0    0    0  0.00000000000E+00  0.00000000000E+00  0.45593999997E+02  0.45594000000E+02  0.51100000000E-03 0. -1.
         11   -1    0    0    0    0 -0.00000000000E+00 -0.00000000000E+00 -0.45593999997E+02  0.45594000000E+02  0.51100000000E-03 0.  1.
    9900012    2    1    2    0    0  0.17214722411E+02  0.10216374595E+02 -0.35389891151E+02  0.50528863595E+02  0.30000011383E+02 0.  0.
         12    1    1    2    0    0 -0.17214722411E+02 -0.10216374595E+02  0.35389891151E+02  0.40659136405E+02  0.00000000000E+00 0. -1.
         11    1    3    3    0    0  0.49776965320E+01 -0.69499206518E+01 -0.12611163810E+02  0.15235495159E+02  0.51100000000E-03 0. -1.
        -11    1    3    3    0    0  0.96536968698E+01  0.40640910608E+01 -0.18519170556E+02  0.21276051742E+02  0.51100000000E-03 0.  1.
        -12    1    3    3    0    0  0.25833290090E+01  0.13102204186E+02 -0.42595567851E+01  0.14017316694E+02  0.00000000000E+00 0.  1.
</event>
<event>
 7    1  0.2755991E-011  0.5052887E+02  0.7816164E-02  0.1300439E+00
        -11   -1    0    0    0    0  0.00000000000E+00  0.00000000000E+00  0.45593999997E+02  0.45594000000E+02  0.51100000000E-03 0.  1.
         11   -1    0    0    0    0 -0.00000000000E+00 -0.00000000000E+00 -0.45593999997E+02  0.45594000000E+02  0.51100000000E-03 0. -1.
    9900012    2    1    2    0    0  0.26287489867E+02  0.13763319610E+02  0.27797556287E+02  0.50528865409E+02  0.30000016896E+02 0.  0.
         12    1    1    2    0    0 -0.26287489867E+02 -0.13763319610E+02 -0.27797556287E+02  0.40659134591E+02  0.00000000000E+00 0. -1.
         11    1    3    3    0    0  0.32483646099E+01  0.39753729833E+01  0.11129821798E+01  0.52530174746E+01  0.51100000000E-03 0. -1.
        -11    1    3    3    0    0  0.21015587536E+02  0.14259436490E+02  0.30035173712E+02  0.39333168048E+02  0.51100000000E-03 0.  1.
         12    1    3    3    0    0  0.20235377213E+01 -0.44714898642E+01 -0.33505996051E+01  0.59426798861E+01  0.00000000000E+00 0. -1.
</event>
<event>
 7    1  0.2755991E-011  0.5052887E+02  0.7816164E-02  0.1300439E+00
        -11   -1    0    0    0    0  0.00000000000E+00  0.00000000000E+00  0.45593999997E+02  0.45594000000E+02  0.51100000000E-03 0. -1.
         11   -1    0    0    0    0 -0.00000000000E+00 -0.00000000000E+00 -0.45593999997E+02  0.45594000000E+02  0.51100000000E-03 0.  1.
    9900012    2    1    2    0    0 -0.19280726949E+01  0.39836898096E+02  0.79037304753E+01  0.50528869788E+02  0.30000030207E+02 0.  0.
         12    1    1    2    0    0  0.19280726949E+01 -0.39836898096E+02 -0.79037304753E+01  0.40659130212E+02  0.00000000000E+00 0. -1.
         11    1    3    3    0    0  0.34761867003E+00  0.93735837099E-01  0.91441651050E+00  0.98274257194E+00  0.51100000000E-03 0. -1.
        -11    1    3    3    0    0  0.87789772235E+01  0.68894333325E+01  0.96872152176E+01  0.14777580034E+02  0.51100000000E-03 0.  1.
         12    1    3    3    0    0 -0.11054668588E+02  0.32853728926E+02 -0.26979012528E+01  0.34768547182E+02  0.00000000000E+00 0. -1.
</event>
<event>
 7    1  0.2755991E-011  0.5052886E+02  0.7816164E-02  0.1300439E+00
        -11   -1    0    0    0    0  0.00000000000E+00  0.00000000000E+00  0.45593999997E+02  0.45594000000E+02  0.51100000000E-03 0.  1.
         11   -1    0    0    0    0 -0.00000000000E+00 -0.00000000000E+00 -0.45593999997E+02  0.45594000000E+02  0.51100000000E-03 0. -1.
    9900012    2    1    2    0    0 -0.21232070786E+02  0.28408859023E+02 -0.19882199839E+02  0.50528856240E+02  0.29999989027E+02 0.  0.
         12    1    1    2    0    0  0.21232070786E+02 -0.28408859023E+02  0.19882199839E+02  0.40659143760E+02  0.00000000000E+00 0. -1.
         11    1    3    3    0    0 -0.13594150873E+02  0.18799500091E+00 -0.13883324582E+02  0.19431494584E+02  0.51100000000E-03 0. -1.
        -11    1    3    3    0    0  0.12393342711E+01  0.11135504268E+02 -0.13091440391E+01  0.11280481510E+02  0.51100000000E-03 0.  1.
        -12    1    3    3    0    0 -0.88772541843E+01  0.17085359755E+02 -0.46897312178E+01  0.19816880145E+02  0.00000000000E+00 0.  1.
</event>
<event>
 7    1  0.2755991E-011  0.5052886E+02  0.7816164E-02  0.1300439E+00
        -11   -1    0    0    0    0  0.00000000000E+00  0.00000000000E+00  0.45593999997E+02  0.45594000000E+02  0.51100000000E-03 0.  1.
         11   -1    0    0    0    0 -0.00000000000E+00 -0.00000000000E+00 -0.45593999997E+02  0.45594000000E+02  0.51100000000E-03 0. -1.
    9900012    2    1    2    0    0  0.39531738302E+02 -0.32977952024E+01  0.89180710411E+01  0.50528858623E+02  0.29999996271E+02 0.  0.
         12    1    1    2    0    0 -0.39531738302E+02  0.32977952024E+01 -0.89180710411E+01  0.40659141377E+02  0.00000000000E+00 0. -1.
         11    1    3    3    0    0 -0.21801704199E+01  0.24324777356E+01 -0.52543163578E+00  0.33084996084E+01  0.51100000000E-03 0. -1.
        -11    1    3    3    0    0  0.86308692071E+01  0.50949581625E+01 -0.26588807387E+01  0.10369192302E+02  0.51100000000E-03 0.  1.
         12    1    3    3    0    0  0.33081039515E+02 -0.10825231100E+02  0.12102383416E+02  0.36851166713E+02  0.00000000000E+00 0. -1.
</event>
<event>
 7    1  0.2755991E-011  0.5052894E+02  0.7816164E-02  0.1300439E+00
        -11   -1    0    0    0    0  0.00000000000E+00  0.00000000000E+00  0.45593999997E+02  0.45594000000E+02  0.51100000000E-03 0.  1.
         11   -1    0    0    0    0 -0.00000000000E+00 -0.00000000000E+00 -0.45593999997E+02  0.45594000000E+02  0.51100000000E-03 0. -1.
    9900012    2    1    2    0    0 -0.32156429852E+02  0.23283222673E+02 -0.87757962955E+01  0.50528941483E+02  0.30000248132E+02 0.  0.
         12    1    1    2    0    0  0.32156429852E+02 -0.23283222673E+02  0.87757962955E+01  0.40659058517E+02  0.00000000000E+00 0. -1.
         11    1    3    3    0    0 -0.16209937870E+02  0.37897754816E+01  0.42864713146E+01  0.17190064588E+02  0.51100000000E-03 0. -1.
        -11    1    3    3    0    0 -0.10282837937E+02  0.16067143818E+01  0.12100522522E+00  0.10408310606E+02  0.51100000000E-03 0.  1.
         12    1    3    3    0    0 -0.56636540457E+01  0.17886732809E+02 -0.13183272835E+02  0.22930566290E+02  0.00000000000E+00 0. -1.
</event>
<event>
 7    1  0.2755991E-011  0.5052884E+02  0.7816164E-02  0.1300439E+00
        -11   -1    0    0    0    0  0.00000000000E+00  0.00000000000E+00  0.45593999997E+02  0.45594000000E+02  0.51100000000E-03 0.  1.
         11   -1    0    0    0    0 -0.00000000000E+00 -0.00000000000E+00 -0.45593999997E+02  0.45594000000E+02  0.51100000000E-03 0. -1.
    9900012    2    1    2    0    0 -0.25244584236E+02  0.15363625207E+02  0.27925572568E+02  0.50528836014E+02  0.29999927549E+02 0.  0.
         12    1    1    2    0    0  0.25244584236E+02 -0.15363625207E+02 -0.27925572568E+02  0.40659163986E+02  0.00000000000E+00 0. -1.
         11    1    3    3    0    0 -0.14822427864E+02  0.56050340391E-01  0.36456903329E+01  0.15264290605E+02  0.51100000000E-03 0. -1.
        -11    1    3    3    0    0 -0.73977931593E+01 -0.22511589281E+01  0.66430680201E+01  0.10194381449E+02  0.51100000000E-03 0.  1.
        -12    1    3    3    0    0 -0.30243632125E+01  0.17558733795E+02  0.17636814215E+02  0.25070163960E+02  0.00000000000E+00 0.  1.
</event>
<event>
 7    1  0.2755991E-011  0.5052885E+02  0.7816164E-02  0.1300439E+00
        -11   -1    0    0    0    0  0.00000000000E+00  0.00000000000E+00  0.45593999997E+02  0.45594000000E+02  0.51100000000E-03 0. -1.
         11   -1    0    0    0    0 -0.00000000000E+00 -0.00000000000E+00 -0.45593999997E+02  0.45594000000E+02  0.51100000000E-03 0.  1.
    9900012    2    1    2    0    0 -0.28171976186E+02 -0.23972781284E+02 -0.16876363314E+02  0.50528854369E+02  0.29999983340E+02 0.  0.
         12    1    1    2    0    0  0.28171976186E+02  0.23972781284E+02  0.16876363314E+02  0.40659145631E+02  0.00000000000E+00 0. -1.
         11    1    3    3    0    0  0.39072153279E+01 -0.42028600820E+01 -0.37674882653E+01  0.68647164965E+01  0.51100000000E-03 0. -1.
        -11    1    3    3    0    0 -0.91267935012E+01 -0.15516514173E+02 -0.83356746949E+01  0.19837944565E+02  0.51100000000E-03 0.  1.
         12    1    3    3    0    0 -0.22952398013E+02 -0.42534070290E+01 -0.47732003536E+01  0.23826193307E+02  0.00000000000E+00 0. -1.
</event>
<event>
 7    1  0.2755991E-011  0.5052886E+02  0.7816164E-02  0.1300439E+00
        -11   -1    0    0    0    0  0.00000000000E+00  0.00000000000E+00  0.45593999997E+02  0.45594000000E+02  0.51100000000E-03 0.  1.
         11   -1    0    0    0    0 -0.00000000000E+00 -0.00000000000E+00 -0.45593999997E+02  0.45594000000E+02  0.51100000000E-03 0. -1.
    9900012    2    1    2    0    0 -0.10815770277E+02  0.25731874147E+01  0.39109636795E+02  0.50528857481E+02  0.29999992799E+02 0.  0.
         12    1    1    2    0    0  0.10815770277E+02 -0.25731874147E+01 -0.39109636795E+02  0.40659142519E+02  0.00000000000E+00 0. -1.
         11    1    3    3    0    0 -0.45833984191E+01  0.75614012933E+01  0.17021991791E+02  0.19181515461E+02  0.51100000000E-03 0.  1.
        -11    1    3    3    0    0 -0.68609726276E+01  0.66666350106E+00  0.24287790235E+02  0.25247062015E+02  0.51100000000E-03 0. -1.
         12    1    3    3    0    0  0.62860076937E+00 -0.56548773796E+01 -0.22001452310E+01  0.61002800053E+01  0.00000000000E+00 0. -1.
</event>
<event>
 7    1  0.2755991E-011  0.5052886E+02  0.7816164E-02  0.1300439E+00
        -11   -1    0    0    0    0  0.00000000000E+00  0.00000000000E+00  0.45593999997E+02  0.45594000000E+02  0.51100000000E-03 0. -1.
         11   -1    0    0    0    0 -0.00000000000E+00 -0.00000000000E+00 -0.45593999997E+02  0.45594000000E+02  0.51100000000E-03 0.  1.
    9900012    2    1    2    0    0 -0.18911213592E+02  0.32211077507E+02 -0.16061693775E+02  0.50528861782E+02  0.30000005873E+02 0.  0.
         12    1    1    2    0    0  0.18911213592E+02 -0.32211077507E+02  0.16061693775E+02  0.40659138218E+02  0.00000000000E+00 0. -1.
         11    1    3    3    0    0 -0.16165643199E+02  0.72899734779E+01 -0.39907546190E+01  0.18176849453E+02  0.51100000000E-03 0.  1.
        -11    1    3    3    0    0 -0.17163216399E+01  0.77252656958E+01 -0.12868353884E+02  0.15106952770E+02  0.51100000000E-03 0. -1.
        -12    1    3    3    0    0 -0.10292487536E+01  0.17195838333E+02  0.79741472758E+00  0.17245059560E+02  0.00000000000E+00 0.  1.
</event>
<event>
 7    1  0.2755991E-011  0.5052886E+02  0.7816164E-02  0.1300439E+00
        -11   -1    0    0    0    0  0.00000000000E+00  0.00000000000E+00  0.45593999997E+02  0.45594000000E+02  0.51100000000E-03 0. -1.
         11   -1    0    0    0    0 -0.00000000000E+00 -0.00000000000E+00 -0.45593999997E+02  0.45594000000E+02  0.51100000000E-03 0.  1.
    9900012    2    1    2    0    0  0.30934777447E+02 -0.24073065741E+02 -0.10802439935E+02  0.50528860087E+02  0.30000000722E+02 0.  0.
         12    1    1    2    0    0 -0.30934777447E+02  0.24073065741E+02  0.10802439935E+02  0.40659139913E+02  0.00000000000E+00 0. -1.
         11    1    3    3    0    0  0.63816905256E+00 -0.28364047136E+01 -0.39210404694E+01  0.48812918437E+01  0.51100000000E-03 0. -1.
        -11    1    3    3    0    0  0.91107972559E+01 -0.16256039850E+02 -0.13372675653E+02  0.22936737183E+02  0.51100000000E-03 0.  1.
        -12    1    3    3    0    0  0.21185811139E+02 -0.49806211772E+01  0.64912761871E+01  0.22710831060E+02  0.00000000000E+00 0.  1.
</event>
<event>
 7    1  0.2755991E-011  0.5052886E+02  0.7816164E-02  0.1300439E+00
        -11   -1    0    0    0    0  0.00000000000E+00  0.00000000000E+00  0.45593999997E+02  0.45594000000E+02  0.51100000000E-03 0.  1.
         11   -1    0    0    0    0 -0.00000000000E+00 -0.00000000000E+00 -0.45593999997E+02  0.45594000000E+02  0.51100000000E-03 0. -1.
    9900012    2    1    2    0    0 -0.11441695683E+02  0.69284455781E+00  0.39009915151E+02  0.50528856948E+02  0.29999991178E+02 0.  0.
         12    1    1    2    0    0  0.11441695683E+02 -0.69284455781E+00 -0.39009915151E+02  0.40659143052E+02  0.00000000000E+00 0. -1.
         11    1    3    3    0    0 -0.48665070277E+00  0.14072355950E+02  0.17150434725E+02  0.22190210509E+02  0.51100000000E-03 0.  1.
        -11    1    3    3    0    0 -0.40973409823E+01 -0.76047932134E+01  0.76580723534E+01  0.11544139439E+02  0.51100000000E-03 0. -1.
        -12    1    3    3    0    0 -0.68577039982E+01 -0.57747181783E+01  0.14201408072E+02  0.16794507000E+02  0.00000000000E+00 0.  1.
</event>
<event>
 7    1  0.2755991E-011  0.5052886E+02  0.7816164E-02  0.1300439E+00
        -11   -1    0    0    0    0  0.00000000000E+00  0.00000000000E+00  0.45593999997E+02  0.45594000000E+02  0.51100000000E-03 0.  1.
         11   -1    0    0    0    0 -0.00000000000E+00 -0.00000000000E+00 -0.45593999997E+02  0.45594000000E+02  0.51100000000E-03 0. -1.
    9900012    2    1    2    0    0 -0.20883376397E+02 -0.22212532291E+02  0.26900815779E+02  0.50528857239E+02  0.29999992063E+02 0.  0.
         12    1    1    2    0    0  0.20883376397E+02  0.22212532291E+02 -0.26900815779E+02  0.40659142761E+02  0.00000000000E+00 0. -1.
         11    1    3    3    0    0 -0.64013463334E+01 -0.12605773188E+02  0.15768829089E+02  0.21178732815E+02  0.51100000000E-03 0. -1.
        -11    1    3    3    0    0 -0.13189295604E+02 -0.54292566223E+01  0.16898398148E+02  0.22113122941E+02  0.51100000000E-03 0.  1.
         12    1    3    3    0    0 -0.12927344597E+01 -0.41775024807E+01 -0.57664114578E+01  0.72370014827E+01  0.00000000000E+00 0. -1.
</event>
<event>
 7    1  0.2755991E-011  0.5052886E+02  0.7816164E-02  0.1300439E+00
        -11   -1    0    0    0    0  0.00000000000E+00  0.00000000000E+00  0.45593999997E+02  0.45594000000E+02  0.51100000000E-03 0. -1.
         11   -1    0    0    0    0 -0.00000000000E+00 -0.00000000000E+00 -0.45593999997E+02  0.45594000000E+02  0.51100000000E-03 0.  1.
    9900012    2    1    2    0    0 -0.34396023747E+02  0.60164239761E+01 -0.20829835220E+02  0.50528857826E+02  0.29999993848E+02 0.  0.
         12    1    1    2    0    0  0.34396023747E+02 -0.60164239761E+01  0.20829835220E+02  0.40659142174E+02  0.00000000000E+00 0. -1.
         11    1    3    3    0    0 -0.62474744433E+01  0.31591066927E+01  0.54071592316E+00  0.70216284427E+01  0.51100000000E-03 0. -1.
        -11    1    3    3    0    0 -0.19813874203E+02  0.13393030835E+02 -0.10057847521E+02  0.25944617610E+02  0.51100000000E-03 0.  1.
         12    1    3    3    0    0 -0.83346751001E+01 -0.10535713552E+02 -0.11312703622E+02  0.17562611774E+02  0.00000000000E+00 0. -1.
</event>
<event>
 7    1  0.2755991E-011  0.5052887E+02  0.7816164E-02  0.1300439E+00
        -11   -1    0    0    0    0  0.00000000000E+00  0.00000000000E+00  0.45593999997E+02  0.45594000000E+02  0.51100000000E-03 0.  1.
         11   -1    0    0    0    0 -0.00000000000E+00 -0.00000000000E+00 -0.45593999997E+02  0.45594000000E+02  0.51100000000E-03 0. -1.
    9900012    2    1    2    0    0  0.18170940765E+02 -0.29267561918E+02  0.21596097345E+02  0.50528872003E+02  0.30000036941E+02 0.  0.
         12    1    1    2    0    0 -0.18170940765E+02  0.29267561918E+02 -0.21596097345E+02  0.40659127997E+02  0.00000000000E+00 0. -1.
         11    1    3    3    0    0  0.23617960299E+01 -0.99136073280E+01 -0.63183794958E+01  0.11990813586E+02  0.51100000000E-03 0. -1.
        -11    1    3    3    0    0  0.66535974656E+00 -0.47243371448E+01  0.20666401450E+01  0.51993333035E+01  0.51100000000E-03 0.  1.
        -12    1    3    3    0    0  0.15143784989E+02 -0.14629617445E+02  0.25847836696E+02  0.33338725114E+02  0.00000000000E+00 0.  1.
</event>
<event>
 7    1  0.2755991E-011  0.5052886E+02  0.7816164E-02  0.1300439E+00
        -11   -1    0    0    0    0  0.00000000000E+00  0.00000000000E+00  0.45593999997E+02  0.45594000000E+02  0.51100000000E-03 0. -1.
         11   -1    0    0    0    0 -0.00000000000E+00 -0.00000000000E+00 -0.45593999997E+02  0.45594000000E+02  0.51100000000E-03 0.  1.
    9900012    2    1    2    0    0  0.38987327648E+02  0.80106752353E+01 -0.83055862477E+01  0.50528863293E+02  0.30000010465E+02 0.  0.
         12    1    1    2    0    0 -0.38987327648E+02 -0.80106752353E+01  0.83055862477E+01  0.40659136707E+02  0.00000000000E+00 0. -1.
         11    1    3    3    0    0  0.95412462023E+01  0.12009739802E+02 -0.34091084501E+01  0.15712773462E+02  0.51100000000E-03 0.  1.
        -11    1    3    3    0    0  0.13396575179E+02 -0.13550750434E+01 -0.11056692825E+02  0.17422827307E+02  0.51100000000E-03 0. -1.
         12    1    3    3    0    0  0.16049506267E+02 -0.26439895231E+01  0.61602150275E+01  0.17393262523E+02  0.00000000000E+00 0. -1.
</event>
<event>
 7    1  0.2755991E-011  0.5052885E+02  0.7816164E-02  0.1300439E+00
        -11   -1    0    0    0    0  0.00000000000E+00  0.00000000000E+00  0.45593999997E+02  0.45594000000E+02  0.51100000000E-03 0.  1.
         11   -1    0    0    0    0 -0.00000000000E+00 -0.00000000000E+00 -0.45593999997E+02  0.45594000000E+02  0.51100000000E-03 0. -1.
    9900012    2    1    2    0    0  0.93348801516E+01  0.39006186079E+02  0.66741484942E+01  0.50528846073E+02  0.29999958125E+02 0.  0.
         12    1    1    2    0    0 -0.93348801516E+01 -0.39006186079E+02 -0.66741484942E+01  0.40659153927E+02  0.00000000000E+00 0. -1.
         11    1    3    3    0    0 -0.45568989611E+00  0.35668556839E+01  0.14967736604E+01  0.38949254682E+01  0.51100000000E-03 0. -1.
        -11    1    3    3    0    0 -0.71707592170E+01  0.25246022952E+02  0.56230201932E+01  0.26840264883E+02  0.51100000000E-03 0.  1.
         12    1    3    3    0    0  0.16961329265E+02  0.10193307443E+02 -0.44564535935E+00  0.19793655722E+02  0.00000000000E+00 0. -1.
</event>
<event>
 7    1  0.2755991E-011  0.5052886E+02  0.7816164E-02  0.1300439E+00
        -11   -1    0    0    0    0  0.00000000000E+00  0.00000000000E+00  0.45593999997E+02  0.45594000000E+02  0.51100000000E-03 0. -1.
         11   -1    0    0    0    0 -0.00000000000E+00 -0.00000000000E+00 -0.45593999997E+02  0.45594000000E+02  0.51100000000E-03 0.  1.
    9900012    2    1    2    0    0 -0.40471928786E+01  0.37629972120E+02 -0.14858355658E+02  0.50528864436E+02  0.30000013940E+02 0.  0.
         12    1    1    2    0    0  0.40471928786E+01 -0.37629972120E+02  0.14858355658E+02  0.40659135564E+02  0.00000000000E+00 0. -1.
         11    1    3    3    0    0 -0.38567373402E+01  0.15152381175E+01 -0.43995836893E+01  0.60437328171E+01  0.51100000000E-03 0. -1.
        -11    1    3    3    0    0 -0.42431289663E+01  0.28112429620E+01 -0.96687504444E+01  0.10926663069E+02  0.51100000000E-03 0.  1.
         12    1    3    3    0    0  0.40526734279E+01  0.33303491040E+02 -0.79002152423E+00  0.33558468550E+02  0.00000000000E+00 0. -1.
</event>
<event>
 7    1  0.2755991E-011  0.5052886E+02  0.7816164E-02  0.1300439E+00
        -11   -1    0    0    0    0  0.00000000000E+00  0.00000000000E+00  0.45593999997E+02  0.45594000000E+02  0.51100000000E-03 0. -1.
         11   -1    0    0    0    0 -0.00000000000E+00 -0.00000000000E+00 -0.45593999997E+02  0.45594000000E+02  0.51100000000E-03 0.  1.
    9900012    2    1    2    0    0  0.27379719265E+02 -0.65423238455E+01 -0.29337938566E+02  0.50528859974E+02  0.30000000376E+02 0.  0.
         12    1    1    2    0    0 -0.27379719265E+02  0.65423238455E+01  0.29337938566E+02  0.40659140026E+02  0.00000000000E+00 0. -1.
         11    1    3    3    0    0  0.11099882654E+02  0.70593736148E+00 -0.13861535019E+01  0.11208352434E+02  0.51100000000E-03 0. -1.
        -11    1    3    3    0    0  0.39378360531E+01  0.36034889232E+00  0.31170457363E+01  0.50351145457E+01  0.51100000000E-03 0.  1.
        -12    1    3    3    0    0  0.12342000558E+02 -0.76086100993E+01 -0.31068830801E+02  0.34285392994E+02  0.00000000000E+00 0.  1.
</event>
<event>
 7    1  0.2755991E-011  0.5052886E+02  0.7816164E-02  0.1300439E+00
        -11   -1    0    0    0    0  0.00000000000E+00  0.00000000000E+00  0.45593999997E+02  0.45594000000E+02  0.51100000000E-03 0. -1.
         11   -1    0    0    0    0 -0.00000000000E+00 -0.00000000000E+00 -0.45593999997E+02  0.45594000000E+02  0.51100000000E-03 0.  1.
    9900012    2    1    2    0    0  0.13500335514E+02 -0.37392373909E+02 -0.85274121002E+01  0.50528862741E+02  0.30000008786E+02 0.  0.
         12    1    1    2    0    0 -0.13500335514E+02  0.37392373909E+02  0.85274121002E+01  0.40659137259E+02  0.00000000000E+00 0. -1.
         11    1    3    3    0    0  0.92579462244E+00 -0.83765666707E+01 -0.71207416275E+01  0.11033083271E+02  0.51100000000E-03 0. -1.
        -11    1    3    3    0    0  0.17423419235E+02 -0.10549559395E+02 -0.27855085923E+00  0.20370231518E+02  0.51100000000E-03 0.  1.
         12    1    3    3    0    0 -0.48488783429E+01 -0.18466247843E+02 -0.11281196135E+01  0.19125547952E+02  0.00000000000E+00 0. -1.
</event>
<event>
 7    1  0.2755991E-011  0.5052886E+02  0.7816164E-02  0.1300439E+00
        -11   -1    0    0    0    0  0.00000000000E+00  0.00000000000E+00  0.45593999997E+02  0.45594000000E+02  0.51100000000E-03 0.  1.
         11   -1    0    0    0    0 -0.00000000000E+00 -0.00000000000E+00 -0.45593999997E+02  0.45594000000E+02  0.51100000000E-03 0. -1.
    9900012    2    1    2    0    0  0.35916469670E+02 -0.27310046337E+01  0.18860395347E+02  0.50528859668E+02  0.29999999447E+02 0.  0.
         12    1    1    2    0    0 -0.35916469670E+02  0.27310046337E+01 -0.18860395347E+02  0.40659140332E+02  0.00000000000E+00 0. -1.
         11    1    3    3    0    0  0.20648686924E+02 -0.71122414857E+01 -0.83449947682E+00  0.21855174222E+02  0.51100000000E-03 0.  1.
        -11    1    3    3    0    0 -0.34400651960E-01 -0.13296049973E+01 -0.14418717130E+01  0.19616388943E+01  0.51100000000E-03 0. -1.
        -12    1    3    3    0    0  0.15302183399E+02  0.57108418492E+01  0.21136766537E+02  0.26712046552E+02  0.00000000000E+00 0.  1.
</event>
<event>
 7    1  0.2755991E-011  0.5052886E+02  0.7816164E-02  0.1300439E+00
        -11   -1    0    0    0    0  0.00000000000E+00  0.00000000000E+00  0.45593999997E+02  0.45594000000E+02  0.51100000000E-03 0. -1.
         11   -1    0    0    0    0 -0.00000000000E+00 -0.00000000000E+00 -0.45593999997E+02  0.45594000000E+02  0.51100000000E-03 0.  1.
    9900012    2    1    2    0    0  0.36123620098E+02  0.16639009765E+02 -0.84494388946E+01  0.50528860898E+02  0.30000003184E+02 0.  0.
         12    1    1    2    0    0 -0.36123620098E+02 -0.16639009765E+02  0.84494388946E+01  0.40659139102E+02  0.00000000000E+00 0. -1.
         11    1    3    3    0    0  0.84197877710E+01  0.61199491531E+01  0.74411456640E+01  0.12795204289E+02  0.51100000000E-03 0. -1.
        -11    1    3    3    0    0  0.25218015752E+02  0.11692845327E+02 -0.73366832294E+01  0.28748876002E+02  0.51100000000E-03 0.  1.
        -12    1    3    3    0    0  0.24858165752E+01 -0.11737847157E+01 -0.85539013291E+01  0.89847806068E+01  0.00000000000E+00 0.  1.
</event>
<event>
 7    1  0.2755991E-011  0.5052885E+02  0.7816164E-02  0.1300439E+00
        -11   -1    0    0    0    0  0.00000000000E+00  0.00000000000E+00  0.45593999997E+02  0.45594000000E+02  0.51100000000E-03 0.  1.
         11   -1    0    0    0    0 -0.00000000000E+00 -0.00000000000E+00 -0.45593999997E+02  0.45594000000E+02  0.51100000000E-03 0. -1.
    9900012    2    1    2    0    0 -0.37939821687E+01  0.23963060498E+02  0.32627350669E+02  0.50528848745E+02  0.29999966245E+02 0.  0.
         12    1    1    2    0    0  0.37939821687E+01 -0.23963060498E+02 -0.32627350669E+02  0.40659151255E+02  0.00000000000E+00 0. -1.
         11    1    3    3    0    0 -0.58305764745E+01  0.47737214883E+01  0.19175748454E+01  0.77756756891E+01  0.51100000000E-03 0. -1.
        -11    1    3    3    0    0 -0.61598470930E+01  0.11082268180E+02  0.28250449247E+02  0.30965275183E+02  0.51100000000E-03 0.  1.
         12    1    3    3    0    0  0.81964413988E+01  0.81070708304E+01  0.24593265758E+01  0.11787897873E+02  0.00000000000E+00 0. -1.
</event>
<event>
 7    1  0.2755991E-011  0.5052886E+02  0.7816164E-02  0.1300439E+00
        -11   -1    0    0    0    0  0.00000000000E+00  0.00000000000E+00  0.45593999997E+02  0.45594000000E+02  0.51100000000E-03 0. -1.
         11   -1    0    0    0    0 -0.00000000000E+00 -0.00000000000E+00 -0.45593999997E+02  0.45594000000E+02  0.51100000000E-03 0.  1.
    9900012    2    1    2    0    0 -0.10845370724E+02 -0.18082450673E+02 -0.34764468272E+02  0.50528863970E+02  0.30000012522E+02 0.  0.
         12    1    1    2    0    0  0.10845370724E+02  0.18082450673E+02  0.34764468272E+02  0.40659136030E+02  0.00000000000E+00 0. -1.
         11    1    3    3    0    0 -0.77267361342E+01 -0.87987698033E+01 -0.20683362837E+02  0.23768094156E+02  0.51100000000E-03 0. -1.
        -11    1    3    3    0    0 -0.77482344039E+01 -0.70070625883E+01 -0.17634350061E+02  0.20496447615E+02  0.51100000000E-03 0.  1.
         12    1    3    3    0    0  0.46295998135E+01 -0.22766182817E+01  0.35532446258E+01  0.62643221984E+01  0.00000000000E+00 0. -1.
</event>
<event>
 7    1  0.2755991E-011  0.5052886E+02  0.7816164E-02  0.1300439E+00
        -11   -1    0    0    0    0  0.00000000000E+00  0.00000000000E+00  0.45593999997E+02  0.45594000000E+02  0.51100000000E-03 0.  1.
         11   -1    0    0    0    0 -0.00000000000E+00 -0.00000000000E+00 -0.45593999997E+02  0.45594000000E+02  0.51100000000E-03 0. -1.
    9900012    2    1    2    0    0 -0.28639158332E+02  0.20833120248E+02  0.19973612879E+02  0.50528862028E+02  0.30000006619E+02 0.  0.
         12    1    1    2    0    0  0.28639158332E+02 -0.20833120248E+02 -0.19973612879E+02  0.40659137972E+02  0.00000000000E+00 0. -1.
         11    1    3    3    0    0 -0.13805075492E+02 -0.39307846895E+01  0.47448464707E+01  0.15117696448E+02  0.51100000000E-03 0. -1.
        -11    1    3    3    0    0 -0.47556213169E+01  0.13973643938E+02  0.14402509844E+02  0.20623068372E+02  0.51100000000E-03 0.  1.
         12    1    3    3    0    0 -0.10078461523E+02  0.10790260999E+02  0.82625656443E+00  0.14788097207E+02  0.00000000000E+00 0. -1.
</event>
<event>
 7    1  0.2755991E-011  0.5052886E+02  0.7816164E-02  0.1300439E+00
        -11   -1    0    0    0    0  0.00000000000E+00  0.00000000000E+00  0.45593999997E+02  0.45594000000E+02  0.51100000000E-03 0.  1.
         11   -1    0    0    0    0 -0.00000000000E+00 -0.00000000000E+00 -0.45593999997E+02  0.45594000000E+02  0.51100000000E-03 0. -1.
    9900012    2    1    2    0    0 -0.33475249665E+01  0.40501392695E+02 -0.12635642855E+01  0.50528864147E+02  0.30000013061E+02 0.  0.
         12    1    1    2    0    0  0.33475249665E+01 -0.40501392695E+02  0.12635642855E+01  0.40659135853E+02  0.00000000000E+00 0. -1.
         11    1    3    3    0    0  0.64970130824E+01  0.12701367827E+02  0.17320915465E+01  0.14371362673E+02  0.51100000000E-03 0. -1.
        -11    1    3    3    0    0 -0.23713081173E-01  0.20440350018E+02  0.55768489612E+01  0.21187489605E+02  0.51100000000E-03 0.  1.
         12    1    3    3    0    0 -0.98208249677E+01  0.73596748495E+01 -0.85725047932E+01  0.14970011869E+02  0.00000000000E+00 0. -1.
</event>
<event>
 7    1  0.2755991E-011  0.5052892E+02  0.7816164E-02  0.1300439E+00
        -11   -1    0    0    0    0  0.00000000000E+00  0.00000000000E+00  0.45593999997E+02  0.45594000000E+02  0.51100000000E-03 0.  1.
         11   -1    0    0    0    0 -0.00000000000E+00 -0.00000000000E+00 -0.45593999997E+02  0.45594000000E+02  0.51100000000E-03 0. -1.
    9900012    2    1    2    0    0 -0.29070793283E+02  0.13569885001E+02  0.24978151513E+02  0.50528919169E+02  0.30000180304E+02 0.  0.
         12    1    1    2    0    0  0.29070793283E+02 -0.13569885001E+02 -0.24978151513E+02  0.40659080831E+02  0.00000000000E+00 0. -1.
         11    1    3    3    0    0 -0.45407368165E+01 -0.46411117658E+01 -0.24555354544E+01  0.69417478986E+01  0.51100000000E-03 0. -1.
        -11    1    3    3    0    0 -0.91283821246E+01  0.12971569913E+01  0.14848563752E+02  0.17478267140E+02  0.51100000000E-03 0.  1.
         12    1    3    3    0    0 -0.15401674342E+02  0.16913839776E+02  0.12585123215E+02  0.26108904129E+02  0.00000000000E+00 0. -1.
</event>
<event>
 7    1  0.2755991E-011  0.5052884E+02  0.7816164E-02  0.1300439E+00
        -11   -1    0    0    0    0  0.00000000000E+00  0.00000000000E+00  0.45593999997E+02  0.45594000000E+02  0.51100000000E-03 0.  1.
         11   -1    0    0    0    0 -0.00000000000E+00 -0.00000000000E+00 -0.45593999997E+02  0.45594000000E+02  0.51100000000E-03 0. -1.
    9900012    2    1    2    0    0 -0.22157165357E+02  0.25400878564E+02  0.22738136094E+02  0.50528838160E+02  0.29999934070E+02 0.  0.
         12    1    1    2    0    0  0.22157165357E+02 -0.25400878564E+02 -0.22738136094E+02  0.40659161840E+02  0.00000000000E+00 0. -1.
         11    1    3    3    0    0 -0.30259298824E+01  0.11666611913E+02  0.14084398211E+02  0.18537431278E+02  0.51100000000E-03 0.  1.
        -11    1    3    3    0    0 -0.11837841137E+02  0.18156427933E+02  0.89671411532E+01  0.23456341974E+02  0.51100000000E-03 0. -1.
         12    1    3    3    0    0 -0.72933943382E+01 -0.44221612814E+01 -0.31340326983E+00  0.85350649078E+01  0.00000000000E+00 0. -1.
</event>
<event>
 7    1  0.2755991E-011  0.5052886E+02  0.7816164E-02  0.1300439E+00
        -11   -1    0    0    0    0  0.00000000000E+00  0.00000000000E+00  0.45593999997E+02  0.45594000000E+02  0.51100000000E-03 0.  1.
         11   -1    0    0    0    0 -0.00000000000E+00 -0.00000000000E+00 -0.45593999997E+02  0.45594000000E+02  0.51100000000E-03 0. -1.
    9900012    2    1    2    0    0  0.18256926966E+02 -0.19548798357E+02  0.30621807546E+02  0.50528855926E+02  0.29999988072E+02 0.  0.
         12    1    1    2    0    0 -0.18256926966E+02  0.19548798357E+02 -0.30621807546E+02  0.40659144074E+02  0.00000000000E+00 0. -1.
         11    1    3    3    0    0 -0.36746603284E+00  0.42428783245E+01  0.36755471374E+01  0.56255395103E+01  0.51100000000E-03 0. -1.
        -11    1    3    3    0    0 -0.11900252722E+01 -0.12047171682E+02  0.50300968957E+01  0.13109247908E+02  0.51100000000E-03 0.  1.
         12    1    3    3    0    0  0.19814418271E+02 -0.11744505000E+02  0.21916163513E+02  0.31794068507E+02  0.00000000000E+00 0. -1.
</event>
<event>
 7    1  0.2755991E-011  0.5052886E+02  0.7816164E-02  0.1300439E+00
        -11   -1    0    0    0    0  0.00000000000E+00  0.00000000000E+00  0.45593999997E+02  0.45594000000E+02  0.51100000000E-03 0. -1.
         11   -1    0    0    0    0 -0.00000000000E+00 -0.00000000000E+00 -0.45593999997E+02  0.45594000000E+02  0.51100000000E-03 0.  1.
    9900012    2    1    2    0    0 -0.25227446110E+00  0.24999847290E+02 -0.32064154997E+02  0.50528855363E+02  0.29999986363E+02 0.  0.
         12    1    1    2    0    0  0.25227446110E+00 -0.24999847290E+02  0.32064154997E+02  0.40659144637E+02  0.00000000000E+00 0. -1.
         11    1    3    3    0    0 -0.11097626486E+02  0.12482609458E+02 -0.17324349253E+02  0.24064619877E+02  0.51100000000E-03 0. -1.
        -11    1    3    3    0    0  0.30632013615E+01  0.10044682642E+01 -0.11836894758E+02  0.12268016826E+02  0.51100000000E-03 0.  1.
         12    1    3    3    0    0  0.77821506639E+01  0.11512769567E+02 -0.29029109861E+01  0.14196218661E+02  0.00000000000E+00 0. -1.
</event>
<event>
 7    1  0.2755991E-011  0.5052886E+02  0.7816164E-02  0.1300439E+00
        -11   -1    0    0    0    0  0.00000000000E+00  0.00000000000E+00  0.45593999997E+02  0.45594000000E+02  0.51100000000E-03 0.  1.
         11   -1    0    0    0    0 -0.00000000000E+00 -0.00000000000E+00 -0.45593999997E+02  0.45594000000E+02  0.51100000000E-03 0. -1.
    9900012    2    1    2    0    0  0.10400002813E+02  0.20476402389E+02  0.33551792559E+02  0.50528857151E+02  0.29999991797E+02 0.  0.
         12    1    1    2    0    0 -0.10400002813E+02 -0.20476402389E+02 -0.33551792559E+02  0.40659142849E+02  0.00000000000E+00 0. -1.
         11    1    3    3    0    0 -0.79781487964E+01  0.11690240233E+02  0.10125341299E+02  0.17402158246E+02  0.51100000000E-03 0. -1.
        -11    1    3    3    0    0 -0.15820237598E+01  0.12398089424E+01  0.28134332718E+01  0.34576483954E+01  0.51100000000E-03 0.  1.
        -12    1    3    3    0    0  0.19960175370E+02  0.75463532127E+01  0.20613017987E+02  0.29669050510E+02  0.00000000000E+00 0.  1.
</event>
<event>
 7    1  0.2755991E-011  0.5052886E+02  0.7816164E-02  0.1300439E+00
        -11   -1    0    0    0    0  0.00000000000E+00  0.00000000000E+00  0.45593999997E+02  0.45594000000E+02  0.51100000000E-03 0.  1.
         11   -1    0    0    0    0 -0.00000000000E+00 -0.00000000000E+00 -0.45593999997E+02  0.45594000000E+02  0.51100000000E-03 0. -1.
    9900012    2    1    2    0    0  0.37501930089E+02  0.10433159525E+02  0.11743929212E+02  0.50528862633E+02  0.30000008460E+02 0.  0.
         12    1    1    2    0    0 -0.37501930089E+02 -0.10433159525E+02 -0.11743929212E+02  0.40659137367E+02  0.00000000000E+00 0. -1.
         11    1    3    3    0    0  0.62089940864E+01 -0.81554392862E+00  0.61256021928E+01  0.87601211150E+01  0.51100000000E-03 0. -1.
        -11    1    3    3    0    0  0.52851055418E+01  0.13668797160E+02  0.54862087663E+01  0.15648221729E+02  0.51100000000E-03 0.  1.
         12    1    3    3    0    0  0.26007830461E+02 -0.24200937062E+01  0.13211825331E+00  0.26120519789E+02  0.00000000000E+00 0. -1.
</event>
<event>
 7    1  0.2755991E-011  0.5052884E+02  0.7816164E-02  0.1300439E+00
        -11   -1    0    0    0    0  0.00000000000E+00  0.00000000000E+00  0.45593999997E+02  0.45594000000E+02  0.51100000000E-03 0.  1.
         11   -1    0    0    0    0 -0.00000000000E+00 -0.00000000000E+00 -0.45593999997E+02  0.45594000000E+02  0.51100000000E-03 0. -1.
    9900012    2    1    2    0    0  0.39430207399E+02 -0.81378225967E+01  0.56746811232E+01  0.50528838450E+02  0.29999934952E+02 0.  0.
         12    1    1    2    0    0 -0.39430207399E+02  0.81378225967E+01 -0.56746811232E+01  0.40659161550E+02  0.00000000000E+00 0. -1.
         11    1    3    3    0    0  0.33049054827E+02 -0.66134237582E+01  0.91336610397E+01  0.34919925014E+02  0.51100000000E-03 0. -1.
        -11    1    3    3    0    0  0.64745609988E+01 -0.35546331938E+00  0.42878710375E+01  0.77738106867E+01  0.51100000000E-03 0.  1.
         12    1    3    3    0    0 -0.93408426837E-01 -0.11689355191E+01 -0.77468509540E+01  0.78351027489E+01  0.00000000000E+00 0. -1.
</event>
<event>
 7    1  0.2755991E-011  0.5052888E+02  0.7816164E-02  0.1300439E+00
        -11   -1    0    0    0    0  0.00000000000E+00  0.00000000000E+00  0.45593999997E+02  0.45594000000E+02  0.51100000000E-03 0.  1.
         11   -1    0    0    0    0 -0.00000000000E+00 -0.00000000000E+00 -0.45593999997E+02  0.45594000000E+02  0.51100000000E-03 0. -1.
    9900012    2    1    2    0    0 -0.35544490349E+02 -0.15698694247E+02 -0.11970982231E+02  0.50528877890E+02  0.30000054833E+02 0.  0.
         12    1    1    2    0    0  0.35544490349E+02  0.15698694247E+02  0.11970982231E+02  0.40659122110E+02  0.00000000000E+00 0. -1.
         11    1    3    3    0    0 -0.32178733735E+01  0.54773198984E+00 -0.31874391839E+01  0.45622897971E+01  0.51100000000E-03 0. -1.
        -11    1    3    3    0    0 -0.37138821251E+02 -0.13834341484E+02 -0.87372573778E+01  0.40583502991E+02  0.51100000000E-03 0.  1.
        -12    1    3    3    0    0  0.48122042762E+01 -0.24120847530E+01 -0.46285668931E-01  0.53830851019E+01  0.00000000000E+00 0.  1.
</event>
<event>
 7    1  0.2755991E-011  0.5052879E+02  0.7816164E-02  0.1300439E+00
        -11   -1    0    0    0    0  0.00000000000E+00  0.00000000000E+00  0.45593999997E+02  0.45594000000E+02  0.51100000000E-03 0. -1.
         11   -1    0    0    0    0 -0.00000000000E+00 -0.00000000000E+00 -0.45593999997E+02  0.45594000000E+02  0.51100000000E-03 0.  1.
    9900012    2    1    2    0    0 -0.84711193957E+01 -0.37044883151E+02  0.14459881438E+02  0.50528789448E+02  0.29999786006E+02 0.  0.
         12    1    1    2    0    0  0.84711193957E+01  0.37044883151E+02 -0.14459881438E+02  0.40659210552E+02  0.00000000000E+00 0. -1.
         11    1    3    3    0    0 -0.80755596526E+00 -0.86070708719E+01  0.39243416952E+00  0.86537749260E+01  0.51100000000E-03 0. -1.
        -11    1    3    3    0    0 -0.92135021134E+01 -0.20936687548E+02 -0.30932493301E+01  0.23082497663E+02  0.51100000000E-03 0.  1.
         12    1    3    3    0    0  0.15499386830E+01 -0.75011247309E+01  0.17160696599E+02  0.18792516859E+02  0.00000000000E+00 0. -1.
</event>
<event>
 7    1  0.2755991E-011  0.5052886E+02  0.7816164E-02  0.1300439E+00
        -11   -1    0    0    0    0  0.00000000000E+00  0.00000000000E+00  0.45593999997E+02  0.45594000000E+02  0.51100000000E-03 0. -1.
         11   -1    0    0    0    0 -0.00000000000E+00 -0.00000000000E+00 -0.45593999997E+02  0.45594000000E+02  0.51100000000E-03 0.  1.
    9900012    2    1    2    0    0 -0.15494445402E+02  0.24199742288E+02  0.28765603729E+02  0.50528864212E+02  0.30000013259E+02 0.  0.
         12    1    1    2    0    0  0.15494445402E+02 -0.24199742288E+02 -0.28765603729E+02  0.40659135788E+02  0.00000000000E+00 0. -1.
         11    1    3    3    0    0 -0.18059613556E+01  0.31970777235E+01  0.52468316236E+01  0.64040647042E+01  0.51100000000E-03 0. -1.
        -11    1    3    3    0    0  0.85021086917E+01  0.73346451866E+01  0.61137838888E+01  0.12785195576E+02  0.51100000000E-03 0.  1.
        -12    1    3    3    0    0 -0.22190592738E+02  0.13668019378E+02  0.17404988217E+02  0.31339603932E+02  0.00000000000E+00 0.  1.
</event>
<event>
 7    1  0.2755991E-011  0.5052885E+02  0.7816164E-02  0.1300439E+00
        -11   -1    0    0    0    0  0.00000000000E+00  0.00000000000E+00  0.45593999997E+02  0.45594000000E+02  0.51100000000E-03 0. -1.
         11   -1    0    0    0    0 -0.00000000000E+00 -0.00000000000E+00 -0.45593999997E+02  0.45594000000E+02  0.51100000000E-03 0.  1.
    9900012    2    1    2    0    0  0.35529814629E+02  0.11472415557E+02 -0.16099146926E+02  0.50528848779E+02  0.29999966347E+02 0.  0.
         12    1    1    2    0    0 -0.35529814629E+02 -0.11472415557E+02  0.16099146926E+02  0.40659151221E+02  0.00000000000E+00 0. -1.
         11    1    3    3    0    0  0.58722653138E+01  0.81116934873E+01  0.65107227033E+01  0.11944562844E+02  0.51100000000E-03 0. -1.
        -11    1    3    3    0    0  0.19771098387E+00  0.16667815830E+01 -0.64419249669E+00  0.17978416817E+01  0.51100000000E-03 0.  1.
        -12    1    3    3    0    0  0.29459838332E+02  0.16939404867E+01 -0.21965677133E+02  0.36786444253E+02  0.00000000000E+00 0.  1.
</event>
<event>
 7    1  0.2755991E-011  0.5052887E+02  0.7816164E-02  0.1300439E+00
        -11   -1    0    0    0    0  0.00000000000E+00  0.00000000000E+00  0.45593999997E+02  0.45594000000E+02  0.51100000000E-03 0. -1.
         11   -1    0    0    0    0 -0.00000000000E+00 -0.00000000000E+00 -0.45593999997E+02  0.45594000000E+02  0.51100000000E-03 0.  1.
    9900012    2    1    2    0    0 -0.39523269073E+02  0.91626128548E+01  0.26688710556E+01  0.50528866398E+02  0.30000019903E+02 0.  0.
         12    1    1    2    0    0  0.39523269073E+02 -0.91626128548E+01 -0.26688710556E+01  0.40659133602E+02  0.00000000000E+00 0. -1.
         11    1    3    3    0    0 -0.73523709908E+01 -0.33436424504E+00  0.75393352960E+01  0.10536163230E+02  0.51100000000E-03 0. -1.
        -11    1    3    3    0    0 -0.59425265710E+01 -0.24203404520E+01  0.63953899494E+01  0.90593974864E+01  0.51100000000E-03 0.  1.
        -12    1    3    3    0    0 -0.26228371512E+02  0.11917317552E+02 -0.11265854190E+02  0.30933305682E+02  0.00000000000E+00 0.  1.
</event>
<event>
 7    1  0.2755991E-011  0.5052885E+02  0.7816164E-02  0.1300439E+00
        -11   -1    0    0    0    0  0.00000000000E+00  0.00000000000E+00  0.45593999997E+02  0.45594000000E+02  0.51100000000E-03 0. -1.
         11   -1    0    0    0    0 -0.00000000000E+00 -0.00000000000E+00 -0.45593999997E+02  0.45594000000E+02  0.51100000000E-03 0.  1.
    9900012    2    1    2    0    0  0.43628923004E+01 -0.11237716744E+02 -0.38830987439E+02  0.50528847373E+02  0.29999962076E+02 0.  0.
         12    1    1    2    0    0 -0.43628923004E+01  0.11237716744E+02  0.38830987439E+02  0.40659152627E+02  0.00000000000E+00 0. -1.
         11    1    3    3    0    0  0.94975809196E+01  0.50658727121E+01 -0.96188696835E+01  0.14435711410E+02  0.51100000000E-03 0. -1.
        -11    1    3    3    0    0  0.22373663532E+01  0.87990819836E+00 -0.23327627388E+01  0.33498998332E+01  0.51100000000E-03 0.  1.
         12    1    3    3    0    0 -0.73720549724E+01 -0.17183497655E+02 -0.26879355016E+02  0.32743236130E+02  0.00000000000E+00 0. -1.
</event>
<event>
 7    1  0.2755991E-011  0.5052887E+02  0.7816164E-02  0.1300439E+00
        -11   -1    0    0    0    0  0.00000000000E+00  0.00000000000E+00  0.45593999997E+02  0.45594000000E+02  0.51100000000E-03 0.  1.
         11   -1    0    0    0    0 -0.00000000000E+00 -0.00000000000E+00 -0.45593999997E+02  0.45594000000E+02  0.51100000000E-03 0. -1.
    9900012    2    1    2    0    0  0.34432846751E+02  0.10750577924E+02  0.18760831204E+02  0.50528872507E+02  0.30000038471E+02 0.  0.
         12    1    1    2    0    0 -0.34432846751E+02 -0.10750577924E+02 -0.18760831204E+02  0.40659127493E+02  0.00000000000E+00 0. -1.
         11    1    3    3    0    0  0.16052563329E+02  0.71933919287E+00  0.64861060277E+01  0.17328352777E+02  0.51100000000E-03 0. -1.
        -11    1    3    3    0    0  0.85355608355E+01 -0.68334009885E+01  0.19335793495E+01  0.11103598390E+02  0.51100000000E-03 0.  1.
         12    1    3    3    0    0  0.98447225864E+01  0.16864639719E+02  0.10341145826E+02  0.22096921339E+02  0.00000000000E+00 0. -1.
</event>
<event>
 7    1  0.2755991E-011  0.5052885E+02  0.7816164E-02  0.1300439E+00
        -11   -1    0    0    0    0  0.00000000000E+00  0.00000000000E+00  0.45593999997E+02  0.45594000000E+02  0.51100000000E-03 0.  1.
         11   -1    0    0    0    0 -0.00000000000E+00 -0.00000000000E+00 -0.45593999997E+02  0.45594000000E+02  0.51100000000E-03 0. -1.
    9900012    2    1    2    0    0 -0.24377181253E+02 -0.67650371848E+01  0.31830080401E+02  0.50528847127E+02  0.29999961328E+02 0.  0.
         12    1    1    2    0    0  0.24377181253E+02  0.67650371848E+01 -0.31830080401E+02  0.40659152873E+02  0.00000000000E+00 0. -1.
         11    1    3    3    0    0  0.20411527671E+01  0.22064089037E+01  0.31354739617E+01  0.43434712033E+01  0.51100000000E-03 0. -1.
        -11    1    3    3    0    0 -0.34131049165E+01 -0.28130352640E+01 -0.38458139256E+01  0.58611208466E+01  0.51100000000E-03 0.  1.
        -12    1    3    3    0    0 -0.23005229104E+02 -0.61584108245E+01  0.32540420365E+02  0.40324255077E+02  0.00000000000E+00 0.  1.
</event>
<event>
 7    1  0.2755991E-011  0.5052887E+02  0.7816164E-02  0.1300439E+00
        -11   -1    0    0    0    0  0.00000000000E+00  0.00000000000E+00  0.45593999997E+02  0.45594000000E+02  0.51100000000E-03 0.  1.
         11   -1    0    0    0    0 -0.00000000000E+00 -0.00000000000E+00 -0.45593999997E+02  0.45594000000E+02  0.51100000000E-03 0. -1.
    9900012    2    1    2    0    0 -0.14666584672E+02 -0.29709226258E+02  0.23567316172E+02  0.50528865450E+02  0.30000017023E+02 0.  0.
         12    1    1    2    0    0  0.14666584672E+02  0.29709226258E+02 -0.23567316172E+02  0.40659134550E+02  0.00000000000E+00 0. -1.
         11    1    3    3    0    0 -0.76732015211E+01 -0.15864554192E+02  0.89137155352E+01  0.19748833540E+02  0.51100000000E-03 0.  1.
        -11    1    3    3    0    0 -0.14301344331E+02 -0.47080060665E+01  0.10536738002E+02  0.18377067742E+02  0.51100000000E-03 0. -1.
         12    1    3    3    0    0  0.73079611807E+01 -0.91366659990E+01  0.41168626353E+01  0.12402964168E+02  0.00000000000E+00 0. -1.
</event>
<event>
 7    1  0.2755991E-011  0.5052886E+02  0.7816164E-02  0.1300439E+00
        -11   -1    0    0    0    0  0.00000000000E+00  0.00000000000E+00  0.45593999997E+02  0.45594000000E+02  0.51100000000E-03 0. -1.
         11   -1    0    0    0    0 -0.00000000000E+00 -0.00000000000E+00 -0.45593999997E+02  0.45594000000E+02  0.51100000000E-03 0.  1.
    9900012    2    1    2    0    0 -0.43536634944E+01  0.36442349499E+02 -0.17497613260E+02  0.50528859666E+02  0.29999999442E+02 0.  0.
         12    1    1    2    0    0  0.43536634944E+01 -0.36442349499E+02  0.17497613260E+02  0.40659140334E+02  0.00000000000E+00 0. -1.
         11    1    3    3    0    0 -0.51030324395E+01  0.14481369669E+02 -0.10554279384E+02  0.18631795973E+02  0.51100000000E-03 0. -1.
        -11    1    3    3    0    0 -0.77550000729E+01  0.14954802553E+02 -0.11040330023E+02  0.20141376140E+02  0.51100000000E-03 0.  1.
         12    1    3    3    0    0  0.85043690180E+01  0.70061772773E+01  0.40969961474E+01  0.11755687554E+02  0.00000000000E+00 0. -1.
</event>
<event>
 7    1  0.2755991E-011  0.5052885E+02  0.7816164E-02  0.1300439E+00
        -11   -1    0    0    0    0  0.00000000000E+00  0.00000000000E+00  0.45593999997E+02  0.45594000000E+02  0.51100000000E-03 0.  1.
         11   -1    0    0    0    0 -0.00000000000E+00 -0.00000000000E+00 -0.45593999997E+02  0.45594000000E+02  0.51100000000E-03 0. -1.
    9900012    2    1    2    0    0 -0.27267942773E+02  0.13851009694E+02  0.26791323425E+02  0.50528853631E+02  0.29999981097E+02 0.  0.
         12    1    1    2    0    0  0.27267942773E+02 -0.13851009694E+02 -0.26791323425E+02  0.40659146369E+02  0.00000000000E+00 0. -1.
         11    1    3    3    0    0 -0.61899173298E+00 -0.14368156383E+01  0.74211168525E+01  0.75842313746E+01  0.51100000000E-03 0. -1.
        -11    1    3    3    0    0 -0.50763116250E+01 -0.69162243832E+00 -0.46517423370E+01  0.69199702559E+01  0.51100000000E-03 0.  1.
        -12    1    3    3    0    0 -0.21572639415E+02  0.15979447770E+02  0.24021948909E+02  0.36024652001E+02  0.00000000000E+00 0.  1.
</event>
<event>
 7    1  0.2755991E-011  0.5052885E+02  0.7816164E-02  0.1300439E+00
        -11   -1    0    0    0    0  0.00000000000E+00  0.00000000000E+00  0.45593999997E+02  0.45594000000E+02  0.51100000000E-03 0. -1.
         11   -1    0    0    0    0 -0.00000000000E+00 -0.00000000000E+00 -0.45593999997E+02  0.45594000000E+02  0.51100000000E-03 0.  1.
    9900012    2    1    2    0    0  0.26131339831E+02  0.13870710267E+02 -0.27891277184E+02  0.50528845218E+02  0.29999955524E+02 0.  0.
         12    1    1    2    0    0 -0.26131339831E+02 -0.13870710267E+02  0.27891277184E+02  0.40659154782E+02  0.00000000000E+00 0. -1.
         11    1    3    3    0    0  0.21255805767E+02  0.93394519244E+01 -0.29302755393E+02  0.37385640491E+02  0.51100000000E-03 0.  1.
        -11    1    3    3    0    0  0.82862192522E+01  0.17588119077E+01  0.20134032780E+01  0.87068158269E+01  0.51100000000E-03 0. -1.
        -12    1    3    3    0    0 -0.34106851880E+01  0.27724464349E+01 -0.60192506893E+00  0.44363889002E+01  0.00000000000E+00 0.  1.
</event>
<event>
 7    1  0.2755991E-011  0.5052883E+02  0.7816164E-02  0.1300439E+00
        -11   -1    0    0    0    0  0.00000000000E+00  0.00000000000E+00  0.45593999997E+02  0.45594000000E+02  0.51100000000E-03 0.  1.
         11   -1    0    0    0    0 -0.00000000000E+00 -0.00000000000E+00 -0.45593999997E+02  0.45594000000E+02  0.51100000000E-03 0. -1.
    9900012    2    1    2    0    0  0.13924292629E+02  0.22619976463E+02  0.30783413496E+02  0.50528833667E+02  0.29999920415E+02 0.  0.
         12    1    1    2    0    0 -0.13924292629E+02 -0.22619976463E+02 -0.30783413496E+02  0.40659166333E+02  0.00000000000E+00 0. -1.
         11    1    3    3    0    0 -0.81040604756E+01  0.49131254391E+01  0.38146626695E+01  0.10215980096E+02  0.51100000000E-03 0. -1.
        -11    1    3    3    0    0 -0.86949320437E+00  0.20048628867E+01  0.16598520043E+01  0.27441943379E+01  0.51100000000E-03 0.  1.
        -12    1    3    3    0    0  0.22897846309E+02  0.15701988137E+02  0.25308898822E+02  0.37568659234E+02  0.00000000000E+00 0.  1.
</event>
<event>
 7    1  0.2755991E-011  0.5052883E+02  0.7816164E-02  0.1300439E+00
        -11   -1    0    0    0    0  0.00000000000E+00  0.00000000000E+00  0.45593999997E+02  0.45594000000E+02  0.51100000000E-03 0.  1.
         11   -1    0    0    0    0 -0.00000000000E+00 -0.00000000000E+00 -0.45593999997E+02  0.45594000000E+02  0.51100000000E-03 0. -1.
    9900012    2    1    2    0    0 -0.28868567114E+02  0.28044808681E+02 -0.57673442310E+01  0.50528834727E+02  0.29999923637E+02 0.  0.
         12    1    1    2    0    0  0.28868567114E+02 -0.28044808681E+02  0.57673442310E+01  0.40659165273E+02  0.00000000000E+00 0. -1.
         11    1    3    3    0    0 -0.18185638792E+01  0.70502960661E+01 -0.80411752723E+01  0.10847780843E+02  0.51100000000E-03 0. -1.
        -11    1    3    3    0    0  0.80549747731E-02  0.30821427705E+01 -0.55075182414E+01  0.63112935584E+01  0.51100000000E-03 0.  1.
        -12    1    3    3    0    0 -0.27058058210E+02  0.17912369844E+02  0.77813492827E+01  0.33369760326E+02  0.00000000000E+00 0.  1.
</event>
<event>
 7    1  0.2755991E-011  0.5052885E+02  0.7816164E-02  0.1300439E+00
        -11   -1    0    0    0    0  0.00000000000E+00  0.00000000000E+00  0.45593999997E+02  0.45594000000E+02  0.51100000000E-03 0.  1.
         11   -1    0    0    0    0 -0.00000000000E+00 -0.00000000000E+00 -0.45593999997E+02  0.45594000000E+02  0.51100000000E-03 0. -1.
    9900012    2    1    2    0    0 -0.31311274641E+02  0.37130731757E+01  0.25670672869E+02  0.50528852473E+02  0.29999977576E+02 0.  0.
         12    1    1    2    0    0  0.31311274641E+02 -0.37130731757E+01 -0.25670672869E+02  0.40659147527E+02  0.00000000000E+00 0. -1.
         11    1    3    3    0    0 -0.59203421683E+01 -0.27627944974E+01 -0.40264244504E+01  0.76743455056E+01  0.51100000000E-03 0. -1.
        -11    1    3    3    0    0 -0.10171328324E+02  0.27211003063E+01  0.15581128557E+01  0.10643684639E+02  0.51100000000E-03 0.  1.
        -12    1    3    3    0    0 -0.15219604149E+02  0.37547673667E+01  0.28138984464E+02  0.32210822329E+02  0.00000000000E+00 0.  1.
</event>
<event>
 7    1  0.2755991E-011  0.5052886E+02  0.7816164E-02  0.1300439E+00
        -11   -1    0    0    0    0  0.00000000000E+00  0.00000000000E+00  0.45593999997E+02  0.45594000000E+02  0.51100000000E-03 0. -1.
         11   -1    0    0    0    0 -0.00000000000E+00 -0.00000000000E+00 -0.45593999997E+02  0.45594000000E+02  0.51100000000E-03 0.  1.
    9900012    2    1    2    0    0  0.36763787522E+02  0.16178276304E+02 -0.63129240358E+01  0.50528859490E+02  0.29999998906E+02 0.  0.
         12    1    1    2    0    0 -0.36763787522E+02 -0.16178276304E+02  0.63129240358E+01  0.40659140510E+02  0.00000000000E+00 0. -1.
         11    1    3    3    0    0  0.44736010475E+00 -0.53430475968E+01 -0.32496678915E+00  0.53715819235E+01  0.51100000000E-03 0. -1.
        -11    1    3    3    0    0  0.73556540952E+01 -0.15070341974E+01 -0.28234865661E+01  0.80217751085E+01  0.51100000000E-03 0.  1.
        -12    1    3    3    0    0  0.28960773322E+02  0.23028358098E+02 -0.31644706805E+01  0.37135502458E+02  0.00000000000E+00 0.  1.
</event>
<event>
 7    1  0.2755991E-011  0.5052885E+02  0.7816164E-02  0.1300439E+00
        -11   -1    0    0    0    0  0.00000000000E+00  0.00000000000E+00  0.45593999997E+02  0.45594000000E+02  0.51100000000E-03 0.  1.
         11   -1    0    0    0    0 -0.00000000000E+00 -0.00000000000E+00 -0.45593999997E+02  0.45594000000E+02  0.51100000000E-03 0. -1.
    9900012    2    1    2    0    0 -0.12444635222E+01  0.14011879745E+02  0.38148202519E+02  0.50528845817E+02  0.29999957345E+02 0.  0.
         12    1    1    2    0    0  0.12444635222E+01 -0.14011879745E+02 -0.38148202519E+02  0.40659154183E+02  0.00000000000E+00 0. -1.
         11    1    3    3    0    0  0.24414721490E+01  0.31206548232E+01  0.77524337403E+01  0.87062909404E+01  0.51100000000E-03 0. -1.
        -11    1    3    3    0    0  0.38634457188E+01  0.95661411123E+01  0.32314344368E+02  0.33921293030E+02  0.51100000000E-03 0.  1.
        -12    1    3    3    0    0 -0.75493813899E+01  0.13250838092E+01 -0.19185755895E+01  0.79012618464E+01  0.00000000000E+00 0.  1.
</event>
<event>
 7    1  0.2755991E-011  0.5052886E+02  0.7816164E-02  0.1300439E+00
        -11   -1    0    0    0    0  0.00000000000E+00  0.00000000000E+00  0.45593999997E+02  0.45594000000E+02  0.51100000000E-03 0. -1.
         11   -1    0    0    0    0 -0.00000000000E+00 -0.00000000000E+00 -0.45593999997E+02  0.45594000000E+02  0.51100000000E-03 0.  1.
    9900012    2    1    2    0    0  0.11569535829E+02 -0.31065164207E+02 -0.23542882487E+02  0.50528857088E+02  0.29999991606E+02 0.  0.
         12    1    1    2    0    0 -0.11569535829E+02  0.31065164207E+02  0.23542882487E+02  0.40659142912E+02  0.00000000000E+00 0. -1.
         11    1    3    3    0    0  0.87779949477E+00 -0.56356282316E+01  0.51979475413E+01  0.77168320198E+01  0.51100000000E-03 0. -1.
        -11    1    3    3    0    0  0.35866904040E+01 -0.42441438210E+01  0.96540148889E+00  0.56399561278E+01  0.51100000000E-03 0.  1.
        -12    1    3    3    0    0  0.71050459307E+01 -0.21185392155E+02 -0.29706231517E+02  0.37172068941E+02  0.00000000000E+00 0.  1.
</event>
<event>
 7    1  0.2755991E-011  0.5052887E+02  0.7816164E-02  0.1300439E+00
        -11   -1    0    0    0    0  0.00000000000E+00  0.00000000000E+00  0.45593999997E+02  0.45594000000E+02  0.51100000000E-03 0.  1.
         11   -1    0    0    0    0 -0.00000000000E+00 -0.00000000000E+00 -0.45593999997E+02  0.45594000000E+02  0.51100000000E-03 0. -1.
    9900012    2    1    2    0    0 -0.23506542192E+01  0.26242169558E+02  0.30967527734E+02  0.50528870492E+02  0.30000032348E+02 0.  0.
         12    1    1    2    0    0  0.23506542192E+01 -0.26242169558E+02 -0.30967527734E+02  0.40659129508E+02  0.00000000000E+00 0. -1.
         11    1    3    3    0    0 -0.72915892533E+01  0.62809595690E+01  0.89976930779E+01  0.13174832368E+02  0.51100000000E-03 0. -1.
        -11    1    3    3    0    0 -0.54256696638E+01 -0.62995581497E+00  0.99610034303E+01  0.11360296001E+02  0.51100000000E-03 0.  1.
        -12    1    3    3    0    0  0.10366604698E+02  0.20591165804E+02  0.12008831226E+02  0.25993742123E+02  0.00000000000E+00 0.  1.
</event>
<event>
 7    1  0.2755991E-011  0.5052885E+02  0.7816164E-02  0.1300439E+00
        -11   -1    0    0    0    0  0.00000000000E+00  0.00000000000E+00  0.45593999997E+02  0.45594000000E+02  0.51100000000E-03 0.  1.
         11   -1    0    0    0    0 -0.00000000000E+00 -0.00000000000E+00 -0.45593999997E+02  0.45594000000E+02  0.51100000000E-03 0. -1.
    9900012    2    1    2    0    0 -0.20132335112E+02  0.25961301018E+02  0.23955501990E+02  0.50528854126E+02  0.29999982601E+02 0.  0.
         12    1    1    2    0    0  0.20132335112E+02 -0.25961301018E+02 -0.23955501990E+02  0.40659145874E+02  0.00000000000E+00 0. -1.
         11    1    3    3    0    0 -0.29017290040E+01  0.14068321847E+02  0.57103081417E+01  0.15457856582E+02  0.51100000000E-03 0. -1.
        -11    1    3    3    0    0  0.81549166177E+00  0.88577512662E+01 -0.45479052124E+00  0.89068298975E+01  0.51100000000E-03 0.  1.
        -12    1    3    3    0    0 -0.18046097770E+02  0.30352279049E+01  0.18699984370E+02  0.26164167646E+02  0.00000000000E+00 0.  1.
</event>
<event>
 7    1  0.2755991E-011  0.5052886E+02  0.7816164E-02  0.1300439E+00
        -11   -1    0    0    0    0  0.00000000000E+00  0.00000000000E+00  0.45593999997E+02  0.45594000000E+02  0.51100000000E-03 0. -1.
         11   -1    0    0    0    0 -0.00000000000E+00 -0.00000000000E+00 -0.45593999997E+02  0.45594000000E+02  0.51100000000E-03 0.  1.
    9900012    2    1    2    0    0  0.10416778544E+00  0.20616518836E+02 -0.35044457001E+02  0.50528859990E+02  0.30000000426E+02 0.  0.
         12    1    1    2    0    0 -0.10416778544E+00 -0.20616518836E+02  0.35044457001E+02  0.40659140010E+02  0.00000000000E+00 0. -1.
         11    1    3    3    0    0  0.52282689109E+01  0.18483634375E+02 -0.13226668066E+02  0.23322184372E+02  0.51100000000E-03 0. -1.
        -11    1    3    3    0    0 -0.13923009867E+01  0.83490205632E+01 -0.82314986266E+01  0.11806871571E+02  0.51100000000E-03 0.  1.
         12    1    3    3    0    0 -0.37318001388E+01 -0.62161361019E+01 -0.13586290309E+02  0.15399804046E+02  0.00000000000E+00 0. -1.
</event>
<event>
 7    1  0.2755991E-011  0.5052886E+02  0.7816164E-02  0.1300439E+00
        -11   -1    0    0    0    0  0.00000000000E+00  0.00000000000E+00  0.45593999997E+02  0.45594000000E+02  0.51100000000E-03 0.  1.
         11   -1    0    0    0    0 -0.00000000000E+00 -0.00000000000E+00 -0.45593999997E+02  0.45594000000E+02  0.51100000000E-03 0. -1.
    9900012    2    1    2    0    0 -0.21426663924E+02 -0.54190107349E+01  0.34127667850E+02  0.50528864284E+02  0.30000013478E+02 0.  0.
         12    1    1    2    0    0  0.21426663924E+02  0.54190107349E+01 -0.34127667850E+02  0.40659135716E+02  0.00000000000E+00 0. -1.
         11    1    3    3    0    0 -0.30417741443E+00  0.30898468032E+01 -0.17582423526E+01  0.35680658063E+01  0.51100000000E-03 0. -1.
        -11    1    3    3    0    0 -0.15857542242E+01  0.36039321004E+00  0.20486097907E+02  0.20550540320E+02  0.51100000000E-03 0.  1.
         12    1    3    3    0    0 -0.19536732285E+02 -0.88692507481E+01  0.15399812296E+02  0.26410258158E+02  0.00000000000E+00 0. -1.
</event>
<event>
 7    1  0.2755991E-011  0.5052886E+02  0.7816164E-02  0.1300439E+00
        -11   -1    0    0    0    0  0.00000000000E+00  0.00000000000E+00  0.45593999997E+02  0.45594000000E+02  0.51100000000E-03 0. -1.
         11   -1    0    0    0    0 -0.00000000000E+00 -0.00000000000E+00 -0.45593999997E+02  0.45594000000E+02  0.51100000000E-03 0.  1.
    9900012    2    1    2    0    0 -0.29416093787E+01  0.22201098248E+02 -0.33935585297E+02  0.50528858610E+02  0.29999996230E+02 0.  0.
         12    1    1    2    0    0  0.29416093787E+01 -0.22201098248E+02  0.33935585297E+02  0.40659141390E+02  0.00000000000E+00 0. -1.
         11    1    3    3    0    0 -0.11262127633E+02  0.56765297559E+01 -0.16375951403E+02  0.20669549911E+02  0.51100000000E-03 0. -1.
        -11    1    3    3    0    0 -0.10942204714E+01 -0.22883290720E+01 -0.12999726062E+00  0.25398165152E+01  0.51100000000E-03 0.  1.
        -12    1    3    3    0    0  0.94147387254E+01  0.18812897564E+02 -0.17429636633E+02  0.27319492184E+02  0.00000000000E+00 0.  1.
</event>
<event>
 7    1  0.2755991E-011  0.5052886E+02  0.7816164E-02  0.1300439E+00
        -11   -1    0    0    0    0  0.00000000000E+00  0.00000000000E+00  0.45593999997E+02  0.45594000000E+02  0.51100000000E-03 0. -1.
         11   -1    0    0    0    0 -0.00000000000E+00 -0.00000000000E+00 -0.45593999997E+02  0.45594000000E+02  0.51100000000E-03 0.  1.
    9900012    2    1    2    0    0 -0.23087760437E+01  0.40136745169E+02  0.60726407151E+01  0.50528859271E+02  0.29999998240E+02 0.  0.
         12    1    1    2    0    0  0.23087760437E+01 -0.40136745169E+02 -0.60726407151E+01  0.40659140729E+02  0.00000000000E+00 0. -1.
         11    1    3    3    0    0  0.60841371314E+01  0.13132437602E+02 -0.67983900271E+00  0.14489300306E+02  0.51100000000E-03 0. -1.
        -11    1    3    3    0    0  0.47407555064E+01  0.98928621771E+01 -0.43235770898E+01  0.11791386854E+02  0.51100000000E-03 0.  1.
         12    1    3    3    0    0 -0.13133668682E+02  0.17111445389E+02  0.11076056808E+02  0.24248172112E+02  0.00000000000E+00 0. -1.
</event>
<event>
 7    1  0.2755991E-011  0.5052885E+02  0.7816164E-02  0.1300439E+00
        -11   -1    0    0    0    0  0.00000000000E+00  0.00000000000E+00  0.45593999997E+02  0.45594000000E+02  0.51100000000E-03 0.  1.
         11   -1    0    0    0    0 -0.00000000000E+00 -0.00000000000E+00 -0.45593999997E+02  0.45594000000E+02  0.51100000000E-03 0. -1.
    9900012    2    1    2    0    0  0.18007711393E+02  0.15190375163E+02  0.33138212192E+02  0.50528852512E+02  0.29999977694E+02 0.  0.
         12    1    1    2    0    0 -0.18007711393E+02 -0.15190375163E+02 -0.33138212192E+02  0.40659147488E+02  0.00000000000E+00 0. -1.
         11    1    3    3    0    0 -0.48270816787E+01  0.85240802587E+01  0.94107340349E+01  0.13583908757E+02  0.51100000000E-03 0. -1.
        -11    1    3    3    0    0  0.10377102734E+02  0.41289639231E+01  0.21230075807E+02  0.23988512319E+02  0.51100000000E-03 0.  1.
        -12    1    3    3    0    0  0.12457690337E+02  0.25373309811E+01  0.24974023504E+01  0.12956431436E+02  0.00000000000E+00 0.  1.
</event>
<event>
 7    1  0.2755991E-011  0.5052884E+02  0.7816164E-02  0.1300439E+00
        -11   -1    0    0    0    0  0.00000000000E+00  0.00000000000E+00  0.45593999997E+02  0.45594000000E+02  0.51100000000E-03 0. -1.
         11   -1    0    0    0    0 -0.00000000000E+00 -0.00000000000E+00 -0.45593999997E+02  0.45594000000E+02  0.51100000000E-03 0.  1.
    9900012    2    1    2    0    0 -0.33540784582E+02 -0.20931488604E+02  0.94897933153E+01  0.50528835932E+02  0.29999927298E+02 0.  0.
         12    1    1    2    0    0  0.33540784582E+02  0.20931488604E+02 -0.94897933153E+01  0.40659164068E+02  0.00000000000E+00 0. -1.
         11    1    3    3    0    0 -0.23303037711E+02 -0.29741473190E+01  0.68924088146E+01  0.24482287850E+02  0.51100000000E-03 0. -1.
        -11    1    3    3    0    0 -0.13924323480E+02 -0.13306851913E+02 -0.67021435659E+00  0.19271955785E+02  0.51100000000E-03 0.  1.
        -12    1    3    3    0    0  0.36865766094E+01 -0.46504893718E+01  0.32675988573E+01  0.67745922967E+01  0.00000000000E+00 0.  1.
</event>
<event>
 7    1  0.2755991E-011  0.5052887E+02  0.7816164E-02  0.1300439E+00
        -11   -1    0    0    0    0  0.00000000000E+00  0.00000000000E+00  0.45593999997E+02  0.45594000000E+02  0.51100000000E-03 0. -1.
         11   -1    0    0    0    0 -0.00000000000E+00 -0.00000000000E+00 -0.45593999997E+02  0.45594000000E+02  0.51100000000E-03 0.  1.
    9900012    2    1    2    0    0  0.33180603505E+02  0.21693101815E+02 -0.90344583766E+01  0.50528873676E+02  0.30000042025E+02 0.  0.
         12    1    1    2    0    0 -0.33180603505E+02 -0.21693101815E+02  0.90344583766E+01  0.40659126324E+02  0.00000000000E+00 0. -1.
         11    1    3    3    0    0  0.79090325247E+01  0.71353898876E+01  0.38157598203E+01  0.11314884338E+02  0.51100000000E-03 0. -1.
        -11    1    3    3    0    0  0.12528712268E+02  0.16475441249E+02  0.43924194849E+00  0.20702698597E+02  0.51100000000E-03 0.  1.
         12    1    3    3    0    0  0.12742858712E+02 -0.19177293223E+01 -0.13289460145E+02  0.18511290740E+02  0.00000000000E+00 0. -1.
</event>
<event>
 7    1  0.2755991E-011  0.5052886E+02  0.7816164E-02  0.1300439E+00
        -11   -1    0    0    0    0  0.00000000000E+00  0.00000000000E+00  0.45593999997E+02  0.45594000000E+02  0.51100000000E-03 0.  1.
         11   -1    0    0    0    0 -0.00000000000E+00 -0.00000000000E+00 -0.45593999997E+02  0.45594000000E+02  0.51100000000E-03 0. -1.
    9900012    2    1    2    0    0  0.30448382296E+02 -0.22534331765E+02  0.14773818024E+02  0.50528858450E+02  0.29999995745E+02 0.  0.
         12    1    1    2    0    0 -0.30448382296E+02  0.22534331765E+02 -0.14773818024E+02  0.40659141550E+02  0.00000000000E+00 0. -1.
         11    1    3    3    0    0 -0.30881938683E+01 -0.28405081083E+01  0.35233737936E+01  0.54790136733E+01  0.51100000000E-03 0. -1.
        -11    1    3    3    0    0  0.83088004700E+01 -0.12099503081E+02  0.11589486024E+02  0.18701612942E+02  0.51100000000E-03 0.  1.
        -12    1    3    3    0    0  0.25227775695E+02 -0.75943205754E+01 -0.33904179326E+00  0.26348231835E+02  0.00000000000E+00 0.  1.
</event>
<event>
 7    1  0.2755991E-011  0.5052879E+02  0.7816164E-02  0.1300439E+00
        -11   -1    0    0    0    0  0.00000000000E+00  0.00000000000E+00  0.45593999997E+02  0.45594000000E+02  0.51100000000E-03 0.  1.
         11   -1    0    0    0    0 -0.00000000000E+00 -0.00000000000E+00 -0.45593999997E+02  0.45594000000E+02  0.51100000000E-03 0. -1.
    9900012    2    1    2    0    0 -0.20200616297E+02  0.91002203906E+01  0.34092405290E+02  0.50528794297E+02  0.29999800746E+02 0.  0.
         12    1    1    2    0    0  0.20200616297E+02 -0.91002203906E+01 -0.34092405290E+02  0.40659205703E+02  0.00000000000E+00 0. -1.
         11    1    3    3    0    0 -0.10929538815E+02  0.19063960280E+01  0.53117958063E+01  0.12300582892E+02  0.51100000000E-03 0. -1.
        -11    1    3    3    0    0 -0.82782085273E+01 -0.18763631281E+00 -0.22324127999E+00  0.82833435723E+01  0.51100000000E-03 0.  1.
         12    1    3    3    0    0 -0.99286895452E+00  0.73814606754E+01  0.29003850763E+02  0.29944867833E+02  0.00000000000E+00 0. -1.
</event>
<event>
 7    1  0.2755991E-011  0.5052885E+02  0.7816164E-02  0.1300439E+00
        -11   -1    0    0    0    0  0.00000000000E+00  0.00000000000E+00  0.45593999997E+02  0.45594000000E+02  0.51100000000E-03 0.  1.
         11   -1    0    0    0    0 -0.00000000000E+00 -0.00000000000E+00 -0.45593999997E+02  0.45594000000E+02  0.51100000000E-03 0. -1.
    9900012    2    1    2    0    0 -0.20861057219E+02 -0.34613347651E+02  0.44608270961E+01  0.50528849465E+02  0.29999968432E+02 0.  0.
         12    1    1    2    0    0  0.20861057219E+02  0.34613347651E+02 -0.44608270961E+01  0.40659150535E+02  0.00000000000E+00 0. -1.
         11    1    3    3    0    0 -0.15584039574E+02 -0.19130801898E+02 -0.58176371723E+00  0.24681740619E+02  0.51100000000E-03 0. -1.
        -11    1    3    3    0    0 -0.66986674319E+01  0.24574051230E+01 -0.81418239197E-01  0.71356579579E+01  0.51100000000E-03 0.  1.
        -12    1    3    3    0    0  0.14216497872E+01 -0.17939950876E+02  0.51240090525E+01  0.18711450888E+02  0.00000000000E+00 0.  1.
</event>
<event>
 7    1  0.2755991E-011  0.5052888E+02  0.7816164E-02  0.1300439E+00
        -11   -1    0    0    0    0  0.00000000000E+00  0.00000000000E+00  0.45593999997E+02  0.45594000000E+02  0.51100000000E-03 0. -1.
         11   -1    0    0    0    0 -0.00000000000E+00 -0.00000000000E+00 -0.45593999997E+02  0.45594000000E+02  0.51100000000E-03 0.  1.
    9900012    2    1    2    0    0 -0.29513261363E+02  0.47899998490E+01 -0.27553361345E+02  0.50528875363E+02  0.30000047155E+02 0.  0.
         12    1    1    2    0    0  0.29513261363E+02 -0.47899998490E+01  0.27553361345E+02  0.40659124637E+02  0.00000000000E+00 0. -1.
         11    1    3    3    0    0 -0.21035977609E+02 -0.72640668741E+01 -0.10264424162E+02  0.24507905361E+02  0.51100000000E-03 0. -1.
        -11    1    3    3    0    0  0.13111726135E+01  0.90198842669E+01 -0.93511240936E+01  0.13058369266E+02  0.51100000000E-03 0.  1.
         12    1    3    3    0    0 -0.97884563669E+01  0.30341824562E+01 -0.79378130892E+01  0.12962600737E+02  0.00000000000E+00 0. -1.
</event>
<event>
 7    1  0.2755991E-011  0.5052886E+02  0.7816164E-02  0.1300439E+00
        -11   -1    0    0    0    0  0.00000000000E+00  0.00000000000E+00  0.45593999997E+02  0.45594000000E+02  0.51100000000E-03 0.  1.
         11   -1    0    0    0    0 -0.00000000000E+00 -0.00000000000E+00 -0.45593999997E+02  0.45594000000E+02  0.51100000000E-03 0. -1.
    9900012    2    1    2    0    0  0.29031812549E+02 -0.76638265268E+01  0.27415052287E+02  0.50528862419E+02  0.30000007809E+02 0.  0.
         12    1    1    2    0    0 -0.29031812549E+02  0.76638265268E+01 -0.27415052287E+02  0.40659137581E+02  0.00000000000E+00 0. -1.
         11    1    3    3    0    0  0.10280998150E+02 -0.28916505123E+01  0.70767158322E+01  0.12811731845E+02  0.51100000000E-03 0. -1.
        -11    1    3    3    0    0  0.16225801873E+02  0.80380265783E+01  0.15355670504E+02  0.23742012016E+02  0.51100000000E-03 0.  1.
         12    1    3    3    0    0  0.25250125267E+01 -0.12810202593E+02  0.49826659514E+01  0.13975118558E+02  0.00000000000E+00 0. -1.
</event>
<event>
 7    1  0.2755991E-011  0.5052887E+02  0.7816164E-02  0.1300439E+00
        -11   -1    0    0    0    0  0.00000000000E+00  0.00000000000E+00  0.45593999997E+02  0.45594000000E+02  0.51100000000E-03 0. -1.
         11   -1    0    0    0    0 -0.00000000000E+00 -0.00000000000E+00 -0.45593999997E+02  0.45594000000E+02  0.51100000000E-03 0.  1.
    9900012    2    1    2    0    0  0.34603923258E+02 -0.21710587427E+01 -0.21237234448E+02  0.50528866611E+02  0.30000020552E+02 0.  0.
         12    1    1    2    0    0 -0.34603923258E+02  0.21710587427E+01  0.21237234448E+02  0.40659133389E+02  0.00000000000E+00 0. -1.
         11    1    3    3    0    0  0.12831249301E+02  0.51323710062E+01 -0.27789815930E+01  0.14096273612E+02  0.51100000000E-03 0.  1.
        -11    1    3    3    0    0  0.10363844387E+02 -0.21031629754E+01  0.35064332837E+01  0.11141258439E+02  0.51100000000E-03 0. -1.
         12    1    3    3    0    0  0.11408829570E+02 -0.52002667736E+01 -0.21964686139E+02  0.25291334561E+02  0.00000000000E+00 0. -1.
</event>
<event>
 7    1  0.2755991E-011  0.5052886E+02  0.7816164E-02  0.1300439E+00
        -11   -1    0    0    0    0  0.00000000000E+00  0.00000000000E+00  0.45593999997E+02  0.45594000000E+02  0.51100000000E-03 0.  1.
         11   -1    0    0    0    0 -0.00000000000E+00 -0.00000000000E+00 -0.45593999997E+02  0.45594000000E+02  0.51100000000E-03 0. -1.
    9900012    2    1    2    0    0  0.62103473000E+01  0.14880742049E+02  0.37325072696E+02  0.50528856511E+02  0.29999989850E+02 0.  0.
         12    1    1    2    0    0 -0.62103473000E+01 -0.14880742049E+02 -0.37325072696E+02  0.40659143489E+02  0.00000000000E+00 0. -1.
         11    1    3    3    0    0 -0.12862630479E+01 -0.66799431615E+00  0.13110379060E+01  0.19543565915E+01  0.51100000000E-03 0. -1.
        -11    1    3    3    0    0 -0.93188279576E+01  0.10514860193E+02  0.10216747802E+02  0.17371953699E+02  0.51100000000E-03 0.  1.
        -12    1    3    3    0    0  0.16815438305E+02  0.50338761723E+01  0.25797286988E+02  0.31202546221E+02  0.00000000000E+00 0.  1.
</event>
<event>
 7    1  0.2755991E-011  0.5052890E+02  0.7816164E-02  0.1300439E+00
        -11   -1    0    0    0    0  0.00000000000E+00  0.00000000000E+00  0.45593999997E+02  0.45594000000E+02  0.51100000000E-03 0.  1.
         11   -1    0    0    0    0 -0.00000000000E+00 -0.00000000000E+00 -0.45593999997E+02  0.45594000000E+02  0.51100000000E-03 0. -1.
    9900012    2    1    2    0    0 -0.36815845103E+02 -0.14233827584E+02  0.97547084516E+01  0.50528897264E+02  0.30000113722E+02 0.  0.
         12    1    1    2    0    0  0.36815845103E+02  0.14233827584E+02 -0.97547084516E+01  0.40659102736E+02  0.00000000000E+00 0. -1.
         11    1    3    3    0    0 -0.13975417334E+02  0.43662736327E+01 -0.68972235895E+01  0.16184817843E+02  0.51100000000E-03 0. -1.
        -11    1    3    3    0    0 -0.83384186494E+01 -0.10498806531E+02  0.68397717670E+01  0.15051134251E+02  0.51100000000E-03 0.  1.
        -12    1    3    3    0    0 -0.14502009120E+02 -0.81012946853E+01  0.98121602740E+01  0.19292945170E+02  0.00000000000E+00 0.  1.
</event>
<event>
 7    1  0.2755991E-011  0.5052888E+02  0.7816164E-02  0.1300439E+00
        -11   -1    0    0    0    0  0.00000000000E+00  0.00000000000E+00  0.45593999997E+02  0.45594000000E+02  0.51100000000E-03 0.  1.
         11   -1    0    0    0    0 -0.00000000000E+00 -0.00000000000E+00 -0.45593999997E+02  0.45594000000E+02  0.51100000000E-03 0. -1.
    9900012    2    1    2    0    0 -0.33522887264E+02 -0.21069130719E+02  0.92451041072E+01  0.50528878149E+02  0.30000055621E+02 0.  0.
         12    1    1    2    0    0  0.33522887264E+02  0.21069130719E+02 -0.92451041072E+01  0.40659121851E+02  0.00000000000E+00 0. -1.
         11    1    3    3    0    0 -0.30731509716E+01 -0.24358334751E+01  0.65325476364E+01  0.76191679661E+01  0.51100000000E-03 0.  1.
        -11    1    3    3    0    0 -0.14205016083E+02 -0.64092814939E+01  0.12844076701E+02  0.20194842851E+02  0.51100000000E-03 0. -1.
         12    1    3    3    0    0 -0.16244720209E+02 -0.12224015750E+02 -0.10131520231E+02  0.22714867332E+02  0.00000000000E+00 0. -1.
</event>
<event>
 7    1  0.2755991E-011  0.5052886E+02  0.7816164E-02  0.1300439E+00
        -11   -1    0    0    0    0  0.00000000000E+00  0.00000000000E+00  0.45593999997E+02  0.45594000000E+02  0.51100000000E-03 0.  1.
         11   -1    0    0    0    0 -0.00000000000E+00 -0.00000000000E+00 -0.45593999997E+02  0.45594000000E+02  0.51100000000E-03 0. -1.
    9900012    2    1    2    0    0  0.40330648454E+02  0.47358683550E+01  0.20436083686E+01  0.50528856023E+02  0.29999988367E+02 0.  0.
         12    1    1    2    0    0 -0.40330648454E+02 -0.47358683550E+01 -0.20436083686E+01  0.40659143977E+02  0.00000000000E+00 0. -1.
         11    1    3    3    0    0 -0.15769597314E+01  0.40910241508E+00  0.59573356625E+01  0.61760841346E+01  0.51100000000E-03 0. -1.
        -11    1    3    3    0    0  0.79649344453E+00  0.16393601320E+01  0.20291240032E+01  0.27274984750E+01  0.51100000000E-03 0.  1.
        -12    1    3    3    0    0  0.41111114741E+02  0.26874058079E+01 -0.59428512971E+01  0.41625273413E+02  0.00000000000E+00 0.  1.
</event>
<event>
 7    1  0.2755991E-011  0.5052894E+02  0.7816164E-02  0.1300439E+00
        -11   -1    0    0    0    0  0.00000000000E+00  0.00000000000E+00  0.45593999997E+02  0.45594000000E+02  0.51100000000E-03 0. -1.
         11   -1    0    0    0    0 -0.00000000000E+00 -0.00000000000E+00 -0.45593999997E+02  0.45594000000E+02  0.51100000000E-03 0.  1.
    9900012    2    1    2    0    0  0.28688325673E+02  0.20582963014E+02 -0.20161370685E+02  0.50528938719E+02  0.30000239728E+02 0.  0.
         12    1    1    2    0    0 -0.28688325673E+02 -0.20582963014E+02  0.20161370685E+02  0.40659061281E+02  0.00000000000E+00 0. -1.
         11    1    3    3    0    0  0.27928565729E+02  0.49614792668E+01 -0.11757946562E+02  0.30706194290E+02  0.51100000000E-03 0. -1.
        -11    1    3    3    0    0  0.15122667457E+01 -0.66321095512E+00 -0.77192694184E+00  0.18228195044E+01  0.51100000000E-03 0.  1.
        -12    1    3    3    0    0 -0.75250680122E+00  0.16284694702E+02 -0.76314971814E+01  0.17999924924E+02  0.00000000000E+00 0.  1.
</event>
<event>
 7    1  0.2755991E-011  0.5052886E+02  0.7816164E-02  0.1300439E+00
        -11   -1    0    0    0    0  0.00000000000E+00  0.00000000000E+00  0.45593999997E+02  0.45594000000E+02  0.51100000000E-03 0.  1.
         11   -1    0    0    0    0 -0.00000000000E+00 -0.00000000000E+00 -0.45593999997E+02  0.45594000000E+02  0.51100000000E-03 0. -1.
    9900012    2    1    2    0    0  0.38431038042E+02 -0.11289190842E+02  0.69839284504E+01  0.50528858698E+02  0.29999996497E+02 0.  0.
         12    1    1    2    0    0 -0.38431038042E+02  0.11289190842E+02 -0.69839284504E+01  0.40659141302E+02  0.00000000000E+00 0. -1.
         11    1    3    3    0    0  0.26259206522E+02 -0.51680365550E+01  0.12693219129E+02  0.29620471656E+02  0.51100000000E-03 0. -1.
        -11    1    3    3    0    0  0.61044706266E+01 -0.35837561143E+01  0.47703688687E+01  0.85360581607E+01  0.51100000000E-03 0.  1.
         12    1    3    3    0    0  0.60673608929E+01 -0.25373981723E+01 -0.10479659548E+02  0.12372328880E+02  0.00000000000E+00 0. -1.
</event>
<event>
 7    1  0.2755991E-011  0.5052886E+02  0.7816164E-02  0.1300439E+00
        -11   -1    0    0    0    0  0.00000000000E+00  0.00000000000E+00  0.45593999997E+02  0.45594000000E+02  0.51100000000E-03 0. -1.
         11   -1    0    0    0    0 -0.00000000000E+00 -0.00000000000E+00 -0.45593999997E+02  0.45594000000E+02  0.51100000000E-03 0.  1.
    9900012    2    1    2    0    0 -0.12224740224E+02 -0.25722770988E+02  0.29018280295E+02  0.50528858197E+02  0.29999994977E+02 0.  0.
         12    1    1    2    0    0  0.12224740224E+02  0.25722770988E+02 -0.29018280295E+02  0.40659141803E+02  0.00000000000E+00 0. -1.
         11    1    3    3    0    0  0.41663354565E+01 -0.39669107508E+01  0.29844395538E+01  0.64808650466E+01  0.51100000000E-03 0. -1.
        -11    1    3    3    0    0  0.33677292931E+01  0.58573546788E+00  0.91670634950E+01  0.97836465600E+01  0.51100000000E-03 0.  1.
        -12    1    3    3    0    0 -0.19758804973E+02 -0.22341595705E+02  0.16866777247E+02  0.34264346591E+02  0.00000000000E+00 0.  1.
</event>
<event>
 7    1  0.2755991E-011  0.5052886E+02  0.7816164E-02  0.1300439E+00
        -11   -1    0    0    0    0  0.00000000000E+00  0.00000000000E+00  0.45593999997E+02  0.45594000000E+02  0.51100000000E-03 0. -1.
         11   -1    0    0    0    0 -0.00000000000E+00 -0.00000000000E+00 -0.45593999997E+02  0.45594000000E+02  0.51100000000E-03 0.  1.
    9900012    2    1    2    0    0  0.13845995585E+02 -0.15232740639E+02 -0.35063058082E+02  0.50528855602E+02  0.29999987089E+02 0.  0.
         12    1    1    2    0    0 -0.13845995585E+02  0.15232740639E+02  0.35063058082E+02  0.40659144398E+02  0.00000000000E+00 0. -1.
         11    1    3    3    0    0 -0.16720229592E+01 -0.50096291932E+01 -0.15037694496E+02  0.15938139837E+02  0.51100000000E-03 0. -1.
        -11    1    3    3    0    0 -0.50731225276E+01 -0.46238236239E+01 -0.50352925483E+01  0.85129600254E+01  0.51100000000E-03 0.  1.
         12    1    3    3    0    0  0.20591141072E+02 -0.55992878215E+01 -0.14990071038E+02  0.26077755740E+02  0.00000000000E+00 0. -1.
</event>
<event>
 7    1  0.2755991E-011  0.5052887E+02  0.7816164E-02  0.1300439E+00
        -11   -1    0    0    0    0  0.00000000000E+00  0.00000000000E+00  0.45593999997E+02  0.45594000000E+02  0.51100000000E-03 0.  1.
         11   -1    0    0    0    0 -0.00000000000E+00 -0.00000000000E+00 -0.45593999997E+02  0.45594000000E+02  0.51100000000E-03 0. -1.
    9900012    2    1    2    0    0 -0.28569256351E+02 -0.18344017778E+02  0.22370953900E+02  0.50528868491E+02  0.30000026264E+02 0.  0.
         12    1    1    2    0    0  0.28569256351E+02  0.18344017778E+02 -0.22370953900E+02  0.40659131509E+02  0.00000000000E+00 0. -1.
         11    1    3    3    0    0 -0.18509065337E+02 -0.12668304358E+02  0.17625781413E+02  0.28526121462E+02  0.51100000000E-03 0. -1.
        -11    1    3    3    0    0  0.11771391258E+01 -0.78214148269E+01  0.67376404019E+01  0.10390186950E+02  0.51100000000E-03 0.  1.
         12    1    3    3    0    0 -0.11237330139E+02  0.21457014060E+01 -0.19924679154E+01  0.11612560079E+02  0.00000000000E+00 0. -1.
</event>
<event>
 7    1  0.2755991E-011  0.5052887E+02  0.7816164E-02  0.1300439E+00
        -11   -1    0    0    0    0  0.00000000000E+00  0.00000000000E+00  0.45593999997E+02  0.45594000000E+02  0.51100000000E-03 0.  1.
         11   -1    0    0    0    0 -0.00000000000E+00 -0.00000000000E+00 -0.45593999997E+02  0.45594000000E+02  0.51100000000E-03 0. -1.
    9900012    2    1    2    0    0  0.45003943844E+01 -0.15914794912E+02  0.37143377027E+02  0.50528871828E+02  0.30000036410E+02 0.  0.
         12    1    1    2    0    0 -0.45003943844E+01  0.15914794912E+02 -0.37143377027E+02  0.40659128172E+02  0.00000000000E+00 0. -1.
         11    1    3    3    0    0  0.54586440528E+01 -0.76156856474E+01  0.16939625156E+02  0.19358366756E+02  0.51100000000E-03 0.  1.
        -11    1    3    3    0    0  0.39935451633E+01 -0.14694836792E+02  0.10303431619E+02  0.18386063600E+02  0.51100000000E-03 0. -1.
         12    1    3    3    0    0 -0.49517948317E+01  0.63957275278E+01  0.99003202520E+01  0.12784441472E+02  0.00000000000E+00 0. -1.
</event>
<event>
 7    1  0.2755991E-011  0.5052886E+02  0.7816164E-02  0.1300439E+00
        -11   -1    0    0    0    0  0.00000000000E+00  0.00000000000E+00  0.45593999997E+02  0.45594000000E+02  0.51100000000E-03 0.  1.
         11   -1    0    0    0    0 -0.00000000000E+00 -0.00000000000E+00 -0.45593999997E+02  0.45594000000E+02  0.51100000000E-03 0. -1.
    9900012    2    1    2    0    0 -0.33093536063E+01 -0.27573910749E+02  0.29696690682E+02  0.50528858190E+02  0.29999994953E+02 0.  0.
         12    1    1    2    0    0  0.33093536063E+01  0.27573910749E+02 -0.29696690682E+02  0.40659141810E+02  0.00000000000E+00 0. -1.
         11    1    3    3    0    0 -0.76187447555E+01 -0.26112497263E+02  0.10184628008E+02  0.29045385742E+02  0.51100000000E-03 0. -1.
        -11    1    3    3    0    0  0.66090708320E+00 -0.38736245679E+01  0.51987561422E+01  0.65168114253E+01  0.51100000000E-03 0.  1.
        -12    1    3    3    0    0  0.36484840660E+01  0.24122110824E+01  0.14313306532E+02  0.14966661022E+02  0.00000000000E+00 0.  1.
</event>
<event>
 7    1  0.2755991E-011  0.5052886E+02  0.7816164E-02  0.1300439E+00
        -11   -1    0    0    0    0  0.00000000000E+00  0.00000000000E+00  0.45593999997E+02  0.45594000000E+02  0.51100000000E-03 0.  1.
         11   -1    0    0    0    0 -0.00000000000E+00 -0.00000000000E+00 -0.45593999997E+02  0.45594000000E+02  0.51100000000E-03 0. -1.
    9900012    2    1    2    0    0 -0.44909025492E+01 -0.61690309493E+01  0.39936709350E+02  0.50528857089E+02  0.29999991609E+02 0.  0.
         12    1    1    2    0    0  0.44909025492E+01  0.61690309493E+01 -0.39936709350E+02  0.40659142911E+02  0.00000000000E+00 0. -1.
         11    1    3    3    0    0 -0.46981107843E+01 -0.20227438604E+01  0.31708047880E+02  0.32117970644E+02  0.51100000000E-03 0.  1.
        -11    1    3    3    0    0 -0.68899876007E+01 -0.52954467382E+01  0.69077294586E+01  0.11100919414E+02  0.51100000000E-03 0. -1.
         12    1    3    3    0    0  0.70971958357E+01  0.11491596494E+01  0.13209320113E+01  0.73099670320E+01  0.00000000000E+00 0. -1.
</event>
<event>
 7    1  0.2755991E-011  0.5052886E+02  0.7816164E-02  0.1300439E+00
        -11   -1    0    0    0    0  0.00000000000E+00  0.00000000000E+00  0.45593999997E+02  0.45594000000E+02  0.51100000000E-03 0.  1.
         11   -1    0    0    0    0 -0.00000000000E+00 -0.00000000000E+00 -0.45593999997E+02  0.45594000000E+02  0.51100000000E-03 0. -1.
    9900012    2    1    2    0    0  0.22088984102E+02 -0.33743352256E+02  0.51602589042E+01  0.50528864346E+02  0.30000013667E+02 0.  0.
         12    1    1    2    0    0 -0.22088984102E+02  0.33743352256E+02 -0.51602589042E+01  0.40659135654E+02  0.00000000000E+00 0. -1.
         11    1    3    3    0    0  0.76118036288E+01 -0.16341274019E-01  0.22413573437E+00  0.76151203936E+01  0.51100000000E-03 0. -1.
        -11    1    3    3    0    0  0.11663250211E+02 -0.41338261808E+01 -0.15994713374E+01  0.12477108367E+02  0.51100000000E-03 0.  1.
        -12    1    3    3    0    0  0.28139302622E+01 -0.29593184801E+02  0.65355945072E+01  0.30436635585E+02  0.00000000000E+00 0.  1.
</event>
<event>
 7    1  0.2755991E-011  0.5052886E+02  0.7816164E-02  0.1300439E+00
        -11   -1    0    0    0    0  0.00000000000E+00  0.00000000000E+00  0.45593999997E+02  0.45594000000E+02  0.51100000000E-03 0.  1.
         11   -1    0    0    0    0 -0.00000000000E+00 -0.00000000000E+00 -0.45593999997E+02  0.45594000000E+02  0.51100000000E-03 0. -1.
    9900012    2    1    2    0    0  0.70500054198E+01 -0.17260689438E+02  0.36132143296E+02  0.50528858894E+02  0.29999997094E+02 0.  0.
         12    1    1    2    0    0 -0.70500054198E+01  0.17260689438E+02 -0.36132143296E+02  0.40659141106E+02  0.00000000000E+00 0. -1.
         11    1    3    3    0    0 -0.38170572794E+01 -0.51555572932E+01 -0.26307938044E+01  0.69333089922E+01  0.51100000000E-03 0. -1.
        -11    1    3    3    0    0  0.15256458577E+01 -0.10182698811E+02  0.17763473521E+02  0.20531827540E+02  0.51100000000E-03 0.  1.
        -12    1    3    3    0    0  0.93414168415E+01 -0.19224333338E+01  0.20999463580E+02  0.23063722362E+02  0.00000000000E+00 0.  1.
</event>
<event>
 7    1  0.2755991E-011  0.5052886E+02  0.7816164E-02  0.1300439E+00
        -11   -1    0    0    0    0  0.00000000000E+00  0.00000000000E+00  0.45593999997E+02  0.45594000000E+02  0.51100000000E-03 0.  1.
         11   -1    0    0    0    0 -0.00000000000E+00 -0.00000000000E+00 -0.45593999997E+02  0.45594000000E+02  0.51100000000E-03 0. -1.
    9900012    2    1    2    0    0 -0.15393610727E+02  0.34254150265E+00  0.37630908009E+02  0.50528858058E+02  0.29999994553E+02 0.  0.
         12    1    1    2    0    0  0.15393610727E+02 -0.34254150265E+00 -0.37630908009E+02  0.40659141942E+02  0.00000000000E+00 0. -1.
         11    1    3    3    0    0 -0.60818615696E+01 -0.59528267218E+01  0.19124843356E+02  0.20932864586E+02  0.51100000000E-03 0. -1.
        -11    1    3    3    0    0 -0.49176309293E+01  0.40217010863E+01  0.22410441047E+02  0.23293454913E+02  0.51100000000E-03 0.  1.
        -12    1    3    3    0    0 -0.43941182286E+01  0.22736671382E+01 -0.39043763944E+01  0.63025385592E+01  0.00000000000E+00 0.  1.
</event>
<event>
 7    1  0.2755991E-011  0.5052887E+02  0.7816164E-02  0.1300439E+00
        -11   -1    0    0    0    0  0.00000000000E+00  0.00000000000E+00  0.45593999997E+02  0.45594000000E+02  0.51100000000E-03 0.  1.
         11   -1    0    0    0    0 -0.00000000000E+00 -0.00000000000E+00 -0.45593999997E+02  0.45594000000E+02  0.51100000000E-03 0. -1.
    9900012    2    1    2    0    0  0.29512512779E+02 -0.19762374478E+02  0.19789522072E+02  0.50528867700E+02  0.30000023861E+02 0.  0.
         12    1    1    2    0    0 -0.29512512779E+02  0.19762374478E+02 -0.19789522072E+02  0.40659132300E+02  0.00000000000E+00 0. -1.
         11    1    3    3    0    0  0.19957624428E+01 -0.11357085812E+02  0.46791470210E+00  0.11540598351E+02  0.51100000000E-03 0. -1.
        -11    1    3    3    0    0  0.22839807120E+00 -0.54746542020E+01  0.70380524032E+01  0.89195395734E+01  0.51100000000E-03 0.  1.
         12    1    3    3    0    0  0.27288352265E+02 -0.29306344641E+01  0.12283554967E+02  0.30068729776E+02  0.00000000000E+00 0. -1.
</event>
<event>
 7    1  0.2755991E-011  0.5052888E+02  0.7816164E-02  0.1300439E+00
        -11   -1    0    0    0    0  0.00000000000E+00  0.00000000000E+00  0.45593999997E+02  0.45594000000E+02  0.51100000000E-03 0.  1.
         11   -1    0    0    0    0 -0.00000000000E+00 -0.00000000000E+00 -0.45593999997E+02  0.45594000000E+02  0.51100000000E-03 0. -1.
    9900012    2    1    2    0    0 -0.57493515576E+01 -0.14678591192E+02  0.37478632759E+02  0.50528880529E+02  0.30000062856E+02 0.  0.
         12    1    1    2    0    0  0.57493515576E+01  0.14678591192E+02 -0.37478632759E+02  0.40659119471E+02  0.00000000000E+00 0. -1.
         11    1    3    3    0    0 -0.74450809766E+01  0.71804612349E+00  0.23763770946E+02  0.24913081520E+02  0.51100000000E-03 0. -1.
        -11    1    3    3    0    0 -0.57304004013E+01 -0.12198753274E+02  0.95713016895E+01  0.16530483553E+02  0.51100000000E-03 0.  1.
         12    1    3    3    0    0  0.74261298203E+01 -0.31978840411E+01  0.41435601233E+01  0.90853154564E+01  0.00000000000E+00 0. -1.
</event>
<event>
 7    1  0.2755991E-011  0.5052886E+02  0.7816164E-02  0.1300439E+00
        -11   -1    0    0    0    0  0.00000000000E+00  0.00000000000E+00  0.45593999997E+02  0.45594000000E+02  0.51100000000E-03 0. -1.
         11   -1    0    0    0    0 -0.00000000000E+00 -0.00000000000E+00 -0.45593999997E+02  0.45594000000E+02  0.51100000000E-03 0.  1.
    9900012    2    1    2    0    0  0.32265022661E+02  0.16812643391E+02 -0.18151279302E+02  0.50528860740E+02  0.30000002704E+02 0.  0.
         12    1    1    2    0    0 -0.32265022661E+02 -0.16812643391E+02  0.18151279302E+02  0.40659139260E+02  0.00000000000E+00 0. -1.
         11    1    3    3    0    0  0.99095737351E+01  0.25657104972E+01  0.35962662013E+01  0.10849684457E+02  0.51100000000E-03 0. -1.
        -11    1    3    3    0    0  0.10713939233E+02  0.28408612257E+01  0.16070331023E+01  0.11200068841E+02  0.51100000000E-03 0.  1.
        -12    1    3    3    0    0  0.11641509693E+02  0.11406071668E+02 -0.23354578605E+02  0.28479107441E+02  0.00000000000E+00 0.  1.
</event>
<event>
 7    1  0.2755991E-011  0.5052887E+02  0.7816164E-02  0.1300439E+00
        -11   -1    0    0    0    0  0.00000000000E+00  0.00000000000E+00  0.45593999997E+02  0.45594000000E+02  0.51100000000E-03 0.  1.
         11   -1    0    0    0    0 -0.00000000000E+00 -0.00000000000E+00 -0.45593999997E+02  0.45594000000E+02  0.51100000000E-03 0. -1.
    9900012    2    1    2    0    0  0.37775872507E+02  0.77822913213E+01  0.12867965108E+02  0.50528866612E+02  0.30000020553E+02 0.  0.
         12    1    1    2    0    0 -0.37775872507E+02 -0.77822913213E+01 -0.12867965108E+02  0.40659133388E+02  0.00000000000E+00 0. -1.
         11    1    3    3    0    0  0.22266627119E+02 -0.59354742267E+00  0.17811907200E+01  0.22345639898E+02  0.51100000000E-03 0. -1.
        -11    1    3    3    0    0  0.47811136315E+00 -0.17894929846E+01 -0.41140869026E+01  0.45118274481E+01  0.51100000000E-03 0.  1.
        -12    1    3    3    0    0  0.15031134025E+02  0.10165331729E+02  0.15200861291E+02  0.23671399266E+02  0.00000000000E+00 0.  1.
</event>
<event>
 7    1  0.2755991E-011  0.5052886E+02  0.7816164E-02  0.1300439E+00
        -11   -1    0    0    0    0  0.00000000000E+00  0.00000000000E+00  0.45593999997E+02  0.45594000000E+02  0.51100000000E-03 0.  1.
         11   -1    0    0    0    0 -0.00000000000E+00 -0.00000000000E+00 -0.45593999997E+02  0.45594000000E+02  0.51100000000E-03 0. -1.
    9900012    2    1    2    0    0 -0.30406333447E+02  0.26970539767E+02  0.11001476455E+01  0.50528862603E+02  0.30000008368E+02 0.  0.
         12    1    1    2    0    0  0.30406333447E+02 -0.26970539767E+02 -0.11001476455E+01  0.40659137397E+02  0.00000000000E+00 0. -1.
         11    1    3    3    0    0 -0.69350597452E+01  0.49119611067E+01 -0.42668465139E+01  0.95093845762E+01  0.51100000000E-03 0.  1.
        -11    1    3    3    0    0 -0.48882873787E+01  0.18603822702E+01 -0.87206893033E+01  0.10168913308E+02  0.51100000000E-03 0. -1.
         12    1    3    3    0    0 -0.18582986323E+02  0.20198196391E+02  0.14087683463E+02  0.30850564718E+02  0.00000000000E+00 0. -1.
</event>
<event>
 7    1  0.2755991E-011  0.5052883E+02  0.7816164E-02  0.1300439E+00
        -11   -1    0    0    0    0  0.00000000000E+00  0.00000000000E+00  0.45593999997E+02  0.45594000000E+02  0.51100000000E-03 0.  1.
         11   -1    0    0    0    0 -0.00000000000E+00 -0.00000000000E+00 -0.45593999997E+02  0.45594000000E+02  0.51100000000E-03 0. -1.
    9900012    2    1    2    0    0  0.15454363369E+01 -0.10969341157E+02  0.39121006828E+02  0.50528831365E+02  0.29999913416E+02 0.  0.
         12    1    1    2    0    0 -0.15454363369E+01  0.10969341157E+02 -0.39121006828E+02  0.40659168635E+02  0.00000000000E+00 0. -1.
         11    1    3    3    0    0 -0.11247930914E+01 -0.13203869211E+02  0.72225264363E+01  0.15092124106E+02  0.51100000000E-03 0. -1.
        -11    1    3    3    0    0  0.45553679372E+01 -0.54683641151E+01  0.11188704560E+02  0.13260523864E+02  0.51100000000E-03 0.  1.
         12    1    3    3    0    0 -0.18851385090E+01  0.77028921700E+01  0.20709775831E+02  0.22176183395E+02  0.00000000000E+00 0. -1.
</event>
<event>
 7    1  0.2755991E-011  0.5052886E+02  0.7816164E-02  0.1300439E+00
        -11   -1    0    0    0    0  0.00000000000E+00  0.00000000000E+00  0.45593999997E+02  0.45594000000E+02  0.51100000000E-03 0.  1.
         11   -1    0    0    0    0 -0.00000000000E+00 -0.00000000000E+00 -0.45593999997E+02  0.45594000000E+02  0.51100000000E-03 0. -1.
    9900012    2    1    2    0    0 -0.10575663002E+02 -0.26754110269E+02  0.28732189706E+02  0.50528858475E+02  0.29999995822E+02 0.  0.
         12    1    1    2    0    0  0.10575663002E+02  0.26754110269E+02 -0.28732189706E+02  0.40659141525E+02  0.00000000000E+00 0. -1.
         11    1    3    3    0    0  0.16254807212E+01 -0.21840749531E+01  0.53196317638E+01  0.59758558667E+01  0.51100000000E-03 0. -1.
        -11    1    3    3    0    0  0.60258126683E+01 -0.74301092743E+01  0.15675510163E+02  0.18364056231E+02  0.51100000000E-03 0.  1.
         12    1    3    3    0    0 -0.18226956392E+02 -0.17139926042E+02  0.77370477789E+01  0.26188946377E+02  0.00000000000E+00 0. -1.
</event>
<event>
 7    1  0.2755991E-011  0.5052886E+02  0.7816164E-02  0.1300439E+00
        -11   -1    0    0    0    0  0.00000000000E+00  0.00000000000E+00  0.45593999997E+02  0.45594000000E+02  0.51100000000E-03 0. -1.
         11   -1    0    0    0    0 -0.00000000000E+00 -0.00000000000E+00 -0.45593999997E+02  0.45594000000E+02  0.51100000000E-03 0.  1.
    9900012    2    1    2    0    0  0.17199526613E+02  0.32882895965E+02 -0.16614967725E+02  0.50528859388E+02  0.29999998597E+02 0.  0.
         12    1    1    2    0    0 -0.17199526613E+02 -0.32882895965E+02  0.16614967725E+02  0.40659140612E+02  0.00000000000E+00 0. -1.
         11    1    3    3    0    0  0.68541579583E+01  0.15882362668E+01 -0.19494803641E+01  0.73008526699E+01  0.51100000000E-03 0. -1.
        -11    1    3    3    0    0  0.11557053034E+02  0.38319676989E+01 -0.22800079697E+00  0.12177907698E+02  0.51100000000E-03 0.  1.
         12    1    3    3    0    0 -0.12116843793E+01  0.27462691999E+02 -0.14437486564E+02  0.31050099021E+02  0.00000000000E+00 0. -1.
</event>
<event>
 7    1  0.2755991E-011  0.5052886E+02  0.7816164E-02  0.1300439E+00
        -11   -1    0    0    0    0  0.00000000000E+00  0.00000000000E+00  0.45593999997E+02  0.45594000000E+02  0.51100000000E-03 0.  1.
         11   -1    0    0    0    0 -0.00000000000E+00 -0.00000000000E+00 -0.45593999997E+02  0.45594000000E+02  0.51100000000E-03 0. -1.
    9900012    2    1    2    0    0 -0.18468511928E+02 -0.20570100789E+02  0.29815270978E+02  0.50528863723E+02  0.30000011772E+02 0.  0.
         12    1    1    2    0    0  0.18468511928E+02  0.20570100789E+02 -0.29815270978E+02  0.40659136277E+02  0.00000000000E+00 0. -1.
         11    1    3    3    0    0 -0.51917986265E+01 -0.87886487489E+01  0.15345317286E+02  0.18430243696E+02  0.51100000000E-03 0. -1.
        -11    1    3    3    0    0 -0.47991327476E+00 -0.91273114048E+01  0.16510112879E+02  0.18871193862E+02  0.51100000000E-03 0.  1.
         12    1    3    3    0    0 -0.12796800027E+02 -0.26541406352E+01 -0.20401591874E+01  0.13227426165E+02  0.00000000000E+00 0. -1.
</event>
<event>
 7    1  0.2755991E-011  0.5052887E+02  0.7816164E-02  0.1300439E+00
        -11   -1    0    0    0    0  0.00000000000E+00  0.00000000000E+00  0.45593999997E+02  0.45594000000E+02  0.51100000000E-03 0. -1.
         11   -1    0    0    0    0 -0.00000000000E+00 -0.00000000000E+00 -0.45593999997E+02  0.45594000000E+02  0.51100000000E-03 0.  1.
    9900012    2    1    2    0    0 -0.43235775051E+01  0.18722375743E+01 -0.40385224583E+02  0.50528868669E+02  0.30000026805E+02 0.  0.
         12    1    1    2    0    0  0.43235775051E+01 -0.18722375743E+01  0.40385224583E+02  0.40659131331E+02  0.00000000000E+00 0. -1.
         11    1    3    3    0    0  0.70566450842E+01  0.21937763958E+01 -0.20449960959E+02  0.21744189988E+02  0.51100000000E-03 0. -1.
        -11    1    3    3    0    0 -0.98275325451E+01  0.24551807672E+01 -0.22515056513E+02  0.24688784469E+02  0.51100000000E-03 0.  1.
         12    1    3    3    0    0 -0.15526900442E+01 -0.27767195887E+01  0.25797928886E+01  0.40958942120E+01  0.00000000000E+00 0. -1.
</event>
<event>
 7    1  0.2755991E-011  0.5052885E+02  0.7816164E-02  0.1300439E+00
        -11   -1    0    0    0    0  0.00000000000E+00  0.00000000000E+00  0.45593999997E+02  0.45594000000E+02  0.51100000000E-03 0. -1.
         11   -1    0    0    0    0 -0.00000000000E+00 -0.00000000000E+00 -0.45593999997E+02  0.45594000000E+02  0.51100000000E-03 0.  1.
    9900012    2    1    2    0    0  0.35849112872E+02  0.20086311602E+00 -0.19182462759E+02  0.50528854446E+02  0.29999983573E+02 0.  0.
         12    1    1    2    0    0 -0.35849112872E+02 -0.20086311602E+00  0.19182462759E+02  0.40659145554E+02  0.00000000000E+00 0. -1.
         11    1    3    3    0    0  0.60325767284E+01  0.46412258669E+01 -0.10160599273E+02  0.12695303753E+02  0.51100000000E-03 0. -1.
        -11    1    3    3    0    0  0.23507026381E+00  0.73971266171E+00  0.47370195930E+01  0.48001862189E+01  0.51100000000E-03 0.  1.
        -12    1    3    3    0    0  0.29581465880E+02 -0.51800754126E+01 -0.13758883079E+02  0.33033364474E+02  0.00000000000E+00 0.  1.
</event>
<event>
 7    1  0.2755991E-011  0.5052886E+02  0.7816164E-02  0.1300439E+00
        -11   -1    0    0    0    0  0.00000000000E+00  0.00000000000E+00  0.45593999997E+02  0.45594000000E+02  0.51100000000E-03 0.  1.
         11   -1    0    0    0    0 -0.00000000000E+00 -0.00000000000E+00 -0.45593999997E+02  0.45594000000E+02  0.51100000000E-03 0. -1.
    9900012    2    1    2    0    0 -0.20088267554E+02 -0.11982318138E+02 -0.33257349909E+02  0.50528858786E+02  0.29999996767E+02 0.  0.
         12    1    1    2    0    0  0.20088267554E+02  0.11982318138E+02  0.33257349909E+02  0.40659141214E+02  0.00000000000E+00 0. -1.
         11    1    3    3    0    0 -0.96265988924E+01 -0.17300159058E+01 -0.73588237468E+01  0.12239961130E+02  0.51100000000E-03 0. -1.
        -11    1    3    3    0    0 -0.16935373694E+02 -0.27981387727E+01 -0.21416318100E+02  0.27446222763E+02  0.51100000000E-03 0.  1.
         12    1    3    3    0    0  0.64737050322E+01 -0.74541634594E+01 -0.44822080623E+01  0.10842674893E+02  0.00000000000E+00 0. -1.
</event>
<event>
 7    1  0.2755991E-011  0.5052887E+02  0.7816164E-02  0.1300439E+00
        -11   -1    0    0    0    0  0.00000000000E+00  0.00000000000E+00  0.45593999997E+02  0.45594000000E+02  0.51100000000E-03 0. -1.
         11   -1    0    0    0    0 -0.00000000000E+00 -0.00000000000E+00 -0.45593999997E+02  0.45594000000E+02  0.51100000000E-03 0.  1.
    9900012    2    1    2    0    0  0.18660693243E+02 -0.27918944012E+02 -0.22923261027E+02  0.50528870605E+02  0.30000032691E+02 0.  0.
         12    1    1    2    0    0 -0.18660693243E+02  0.27918944012E+02  0.22923261027E+02  0.40659129395E+02  0.00000000000E+00 0. -1.
         11    1    3    3    0    0  0.11707157898E+02 -0.23095792121E+01 -0.40851367229E+01  0.12612693785E+02  0.51100000000E-03 0. -1.
        -11    1    3    3    0    0  0.10708934861E+02 -0.26165524360E+02 -0.19086447746E+02  0.34111705304E+02  0.51100000000E-03 0.  1.
        -12    1    3    3    0    0 -0.37553995169E+01  0.55615955980E+00  0.24832344263E+00  0.38044715165E+01  0.00000000000E+00 0.  1.
</event>
<event>
 7    1  0.2755991E-011  0.5052885E+02  0.7816164E-02  0.1300439E+00
        -11   -1    0    0    0    0  0.00000000000E+00  0.00000000000E+00  0.45593999997E+02  0.45594000000E+02  0.51100000000E-03 0.  1.
         11   -1    0    0    0    0 -0.00000000000E+00 -0.00000000000E+00 -0.45593999997E+02  0.45594000000E+02  0.51100000000E-03 0. -1.
    9900012    2    1    2    0    0  0.24684119373E+02 -0.14414669437E+01  0.32276656938E+02  0.50528853928E+02  0.29999982000E+02 0.  0.
         12    1    1    2    0    0 -0.24684119373E+02  0.14414669437E+01 -0.32276656938E+02  0.40659146072E+02  0.00000000000E+00 0. -1.
         11    1    3    3    0    0  0.12628535381E+02 -0.36237619954E+01  0.30511110349E+01  0.13487803219E+02  0.51100000000E-03 0. -1.
        -11    1    3    3    0    0  0.17069779368E+02  0.37939431396E+01  0.22149806443E+02  0.28220299395E+02  0.51100000000E-03 0.  1.
         12    1    3    3    0    0 -0.50141953760E+01 -0.16116480879E+01  0.70757394607E+01  0.88207513140E+01  0.00000000000E+00 0. -1.
</event>
<event>
 7    1  0.2755991E-011  0.5052885E+02  0.7816164E-02  0.1300439E+00
        -11   -1    0    0    0    0  0.00000000000E+00  0.00000000000E+00  0.45593999997E+02  0.45594000000E+02  0.51100000000E-03 0. -1.
         11   -1    0    0    0    0 -0.00000000000E+00 -0.00000000000E+00 -0.45593999997E+02  0.45594000000E+02  0.51100000000E-03 0.  1.
    9900012    2    1    2    0    0  0.20924996719E+02  0.12940523811E+02 -0.32370566358E+02  0.50528853298E+02  0.29999980084E+02 0.  0.
         12    1    1    2    0    0 -0.20924996719E+02 -0.12940523811E+02  0.32370566358E+02  0.40659146702E+02  0.00000000000E+00 0. -1.
         11    1    3    3    0    0  0.18730279957E+02  0.64342745789E+01 -0.12103326985E+02  0.23210208982E+02  0.51100000000E-03 0. -1.
        -11    1    3    3    0    0  0.21086689024E+01  0.11677743776E+02 -0.18246253904E+02  0.21765614304E+02  0.51100000000E-03 0.  1.
        -12    1    3    3    0    0  0.86047860105E-01 -0.51714945437E+01 -0.20209854694E+01  0.55530300123E+01  0.00000000000E+00 0.  1.
</event>
<event>
 7    1  0.2755991E-011  0.5052886E+02  0.7816164E-02  0.1300439E+00
        -11   -1    0    0    0    0  0.00000000000E+00  0.00000000000E+00  0.45593999997E+02  0.45594000000E+02  0.51100000000E-03 0. -1.
         11   -1    0    0    0    0 -0.00000000000E+00 -0.00000000000E+00 -0.45593999997E+02  0.45594000000E+02  0.51100000000E-03 0.  1.
    9900012    2    1    2    0    0 -0.24644394415E+02  0.10441609579E+02 -0.30607066349E+02  0.50528857152E+02  0.29999991798E+02 0.  0.
         12    1    1    2    0    0  0.24644394415E+02 -0.10441609579E+02  0.30607066349E+02  0.40659142848E+02  0.00000000000E+00 0. -1.
         11    1    3    3    0    0 -0.24268678549E+01 -0.69048560040E+01 -0.10744884079E+02  0.13000740677E+02  0.51100000000E-03 0. -1.
        -11    1    3    3    0    0 -0.15887035639E+01  0.73446595459E+01 -0.51904073741E+00  0.75324236741E+01  0.51100000000E-03 0.  1.
        -12    1    3    3    0    0 -0.20628822997E+02  0.10001806037E+02 -0.19343141532E+02  0.29995692800E+02  0.00000000000E+00 0.  1.
</event>
<event>
 7    1  0.2755991E-011  0.5052886E+02  0.7816164E-02  0.1300439E+00
        -11   -1    0    0    0    0  0.00000000000E+00  0.00000000000E+00  0.45593999997E+02  0.45594000000E+02  0.51100000000E-03 0.  1.
         11   -1    0    0    0    0 -0.00000000000E+00 -0.00000000000E+00 -0.45593999997E+02  0.45594000000E+02  0.51100000000E-03 0. -1.
    9900012    2    1    2    0    0 -0.36344206170E+02 -0.29238030238E+01 -0.17992106377E+02  0.50528857877E+02  0.29999994004E+02 0.  0.
         12    1    1    2    0    0  0.36344206170E+02  0.29238030238E+01  0.17992106377E+02  0.40659142123E+02  0.00000000000E+00 0. -1.
         11    1    3    3    0    0  0.98552361555E+00 -0.37231437131E+01 -0.38398057561E+01  0.54384891662E+01  0.51100000000E-03 0. -1.
        -11    1    3    3    0    0 -0.28254652242E+02  0.24199770601E+01 -0.19516218162E+02  0.34424764834E+02  0.51100000000E-03 0.  1.
         12    1    3    3    0    0 -0.90750775439E+01 -0.16206363708E+01  0.53639175407E+01  0.10665603877E+02  0.00000000000E+00 0. -1.
</event>
<event>
 7    1  0.2755991E-011  0.5052885E+02  0.7816164E-02  0.1300439E+00
        -11   -1    0    0    0    0  0.00000000000E+00  0.00000000000E+00  0.45593999997E+02  0.45594000000E+02  0.51100000000E-03 0. -1.
         11   -1    0    0    0    0 -0.00000000000E+00 -0.00000000000E+00 -0.45593999997E+02  0.45594000000E+02  0.51100000000E-03 0.  1.
    9900012    2    1    2    0    0 -0.24233022696E+01  0.31661342711E+02 -0.25393965238E+02  0.50528849902E+02  0.29999969763E+02 0.  0.
         12    1    1    2    0    0  0.24233022696E+01 -0.31661342711E+02  0.25393965238E+02  0.40659150098E+02  0.00000000000E+00 0. -1.
         11    1    3    3    0    0 -0.79494942328E+01  0.15875392941E+02 -0.63436617570E+01  0.18853768969E+02  0.51100000000E-03 0. -1.
        -11    1    3    3    0    0  0.11308554344E+02  0.15912963575E+02 -0.14624019683E+02  0.24391961033E+02  0.51100000000E-03 0.  1.
         12    1    3    3    0    0 -0.57823623811E+01 -0.12701380575E+00 -0.44262837979E+01  0.72831198996E+01  0.00000000000E+00 0. -1.
</event>
<event>
 7    1  0.2755991E-011  0.5052887E+02  0.7816164E-02  0.1300439E+00
        -11   -1    0    0    0    0  0.00000000000E+00  0.00000000000E+00  0.45593999997E+02  0.45594000000E+02  0.51100000000E-03 0.  1.
         11   -1    0    0    0    0 -0.00000000000E+00 -0.00000000000E+00 -0.45593999997E+02  0.45594000000E+02  0.51100000000E-03 0. -1.
    9900012    2    1    2    0    0 -0.29126338106E+01 -0.38928901055E+02  0.11367582233E+02  0.50528871887E+02  0.30000036587E+02 0.  0.
         12    1    1    2    0    0  0.29126338106E+01  0.38928901055E+02 -0.11367582233E+02  0.40659128113E+02  0.00000000000E+00 0. -1.
         11    1    3    3    0    0  0.26378271731E+01  0.15776060396E+01  0.35734600084E+01  0.47134477513E+01  0.51100000000E-03 0. -1.
        -11    1    3    3    0    0 -0.10441909479E+02 -0.12606311549E+02  0.59953449638E+01  0.17432633936E+02  0.51100000000E-03 0.  1.
        -12    1    3    3    0    0  0.48914484955E+01 -0.27900195546E+02  0.17987772612E+01  0.28382790200E+02  0.00000000000E+00 0.  1.
</event>
<event>
 7    1  0.2755991E-011  0.5052885E+02  0.7816164E-02  0.1300439E+00
        -11   -1    0    0    0    0  0.00000000000E+00  0.00000000000E+00  0.45593999997E+02  0.45594000000E+02  0.51100000000E-03 0.  1.
         11   -1    0    0    0    0 -0.00000000000E+00 -0.00000000000E+00 -0.45593999997E+02  0.45594000000E+02  0.51100000000E-03 0. -1.
    9900012    2    1    2    0    0  0.11992055381E+02 -0.11404509142E+02  0.37138846520E+02  0.50528854142E+02  0.29999982650E+02 0.  0.
         12    1    1    2    0    0 -0.11992055381E+02  0.11404509142E+02 -0.37138846520E+02  0.40659145858E+02  0.00000000000E+00 0. -1.
         11    1    3    3    0    0  0.36978699001E+01  0.20451658448E+01 -0.11568392141E+01  0.43812352550E+01  0.51100000000E-03 0. -1.
        -11    1    3    3    0    0  0.39590750646E+00  0.51404820292E+01  0.48640599453E+01  0.70880446993E+01  0.51100000000E-03 0.  1.
        -12    1    3    3    0    0  0.78982779744E+01 -0.18590157016E+02  0.33431625789E+02  0.39059574188E+02  0.00000000000E+00 0.  1.
</event>
<event>
 7    1  0.2755991E-011  0.5052886E+02  0.7816164E-02  0.1300439E+00
        -11   -1    0    0    0    0  0.00000000000E+00  0.00000000000E+00  0.45593999997E+02  0.45594000000E+02  0.51100000000E-03 0.  1.
         11   -1    0    0    0    0 -0.00000000000E+00 -0.00000000000E+00 -0.45593999997E+02  0.45594000000E+02  0.51100000000E-03 0. -1.
    9900012    2    1    2    0    0  0.28000194937E+00 -0.75777359279E+01  0.39945781315E+02  0.50528856776E+02  0.29999990656E+02 0.  0.
         12    1    1    2    0    0 -0.28000194937E+00  0.75777359279E+01 -0.39945781315E+02  0.40659143224E+02  0.00000000000E+00 0. -1.
         11    1    3    3    0    0  0.19448712782E+01  0.15274719653E+01  0.16452878627E+02  0.16637695462E+02  0.51100000000E-03 0. -1.
        -11    1    3    3    0    0 -0.28438799462E+01 -0.77061973234E+01  0.27918755396E+02  0.29102062358E+02  0.51100000000E-03 0.  1.
         12    1    3    3    0    0  0.11790106174E+01 -0.13990105699E+01 -0.44258527090E+01  0.47890989562E+01  0.00000000000E+00 0. -1.
</event>
<event>
 7    1  0.2755991E-011  0.5052888E+02  0.7816164E-02  0.1300439E+00
        -11   -1    0    0    0    0  0.00000000000E+00  0.00000000000E+00  0.45593999997E+02  0.45594000000E+02  0.51100000000E-03 0.  1.
         11   -1    0    0    0    0 -0.00000000000E+00 -0.00000000000E+00 -0.45593999997E+02  0.45594000000E+02  0.51100000000E-03 0. -1.
    9900012    2    1    2    0    0 -0.13308699900E+02 -0.35837017993E+02  0.13847403489E+02  0.50528881280E+02  0.30000065140E+02 0.  0.
         12    1    1    2    0    0  0.13308699900E+02  0.35837017993E+02 -0.13847403489E+02  0.40659118720E+02  0.00000000000E+00 0. -1.
         11    1    3    3    0    0 -0.50672771436E+01 -0.10271466124E+02  0.34229412720E+01  0.11953946679E+02  0.51100000000E-03 0. -1.
        -11    1    3    3    0    0 -0.10939214755E+02 -0.28852896457E+02  0.13130298515E+02  0.33534471708E+02  0.51100000000E-03 0.  1.
        -12    1    3    3    0    0  0.26977919984E+01  0.32873445881E+01 -0.27058362975E+01  0.50404628931E+01  0.00000000000E+00 0.  1.
</event>
<event>
 7    1  0.2755991E-011  0.5052886E+02  0.7816164E-02  0.1300439E+00
        -11   -1    0    0    0    0  0.00000000000E+00  0.00000000000E+00  0.45593999997E+02  0.45594000000E+02  0.51100000000E-03 0.  1.
         11   -1    0    0    0    0 -0.00000000000E+00 -0.00000000000E+00 -0.45593999997E+02  0.45594000000E+02  0.51100000000E-03 0. -1.
    9900012    2    1    2    0    0 -0.16358323925E+02 -0.34736477896E+02 -0.13377138136E+02  0.50528862246E+02  0.30000007282E+02 0.  0.
         12    1    1    2    0    0  0.16358323925E+02  0.34736477896E+02  0.13377138136E+02  0.40659137754E+02  0.00000000000E+00 0. -1.
         11    1    3    3    0    0  0.30834407312E+01 -0.11219983172E+02 -0.81986868441E+01  0.14234257809E+02  0.51100000000E-03 0. -1.
        -11    1    3    3    0    0  0.31761447102E+01 -0.46783119669E+00 -0.21424041005E+01  0.38596187428E+01  0.51100000000E-03 0.  1.
        -12    1    3    3    0    0 -0.22617909366E+02 -0.23048663527E+02 -0.30360471909E+01  0.32434985695E+02  0.00000000000E+00 0.  1.
</event>
<event>
 7    1  0.2755991E-011  0.5052885E+02  0.7816164E-02  0.1300439E+00
        -11   -1    0    0    0    0  0.00000000000E+00  0.00000000000E+00  0.45593999997E+02  0.45594000000E+02  0.51100000000E-03 0. -1.
         11   -1    0    0    0    0 -0.00000000000E+00 -0.00000000000E+00 -0.45593999997E+02  0.45594000000E+02  0.51100000000E-03 0.  1.
    9900012    2    1    2    0    0 -0.29050339819E+02  0.10100865794E+01 -0.28429285447E+02  0.50528846178E+02  0.29999958442E+02 0.  0.
         12    1    1    2    0    0  0.29050339819E+02 -0.10100865794E+01  0.28429285447E+02  0.40659153822E+02  0.00000000000E+00 0. -1.
         11    1    3    3    0    0 -0.46721240020E+00 -0.70474809652E+01 -0.51745559159E+00  0.70818808188E+01  0.51100000000E-03 0. -1.
        -11    1    3    3    0    0 -0.27673949200E+00 -0.26018629353E+01 -0.57899305790E+00  0.26798337081E+01  0.51100000000E-03 0.  1.
        -12    1    3    3    0    0 -0.28306387927E+02  0.10659430480E+02 -0.27332836797E+02  0.40767131651E+02  0.00000000000E+00 0.  1.
</event>
<event>
 7    1  0.2755991E-011  0.5052887E+02  0.7816164E-02  0.1300439E+00
        -11   -1    0    0    0    0  0.00000000000E+00  0.00000000000E+00  0.45593999997E+02  0.45594000000E+02  0.51100000000E-03 0.  1.
         11   -1    0    0    0    0 -0.00000000000E+00 -0.00000000000E+00 -0.45593999997E+02  0.45594000000E+02  0.51100000000E-03 0. -1.
    9900012    2    1    2    0    0 -0.41994683498E+00  0.53298535864E+01  0.40306097287E+02  0.50528866056E+02  0.30000018864E+02 0.  0.
         12    1    1    2    0    0  0.41994683498E+00 -0.53298535864E+01 -0.40306097287E+02  0.40659133944E+02  0.00000000000E+00 0. -1.
         11    1    3    3    0    0  0.75800182625E-01 -0.49774476863E+01  0.10010894224E+02  0.11180283295E+02  0.51100000000E-03 0. -1.
        -11    1    3    3    0    0 -0.81393558293E+00 -0.15437771185E+01  0.26982804927E+02  0.27039184546E+02  0.51100000000E-03 0.  1.
         12    1    3    3    0    0  0.31818856533E+00  0.11851078391E+02  0.33123981354E+01  0.12309398215E+02  0.00000000000E+00 0. -1.
</event>
<event>
 7    1  0.2755991E-011  0.5052886E+02  0.7816164E-02  0.1300439E+00
        -11   -1    0    0    0    0  0.00000000000E+00  0.00000000000E+00  0.45593999997E+02  0.45594000000E+02  0.51100000000E-03 0.  1.
         11   -1    0    0    0    0 -0.00000000000E+00 -0.00000000000E+00 -0.45593999997E+02  0.45594000000E+02  0.51100000000E-03 0. -1.
    9900012    2    1    2    0    0 -0.78089946103E+01  0.26608896629E+02  0.29734692933E+02  0.50528859078E+02  0.29999997655E+02 0.  0.
         12    1    1    2    0    0  0.78089946103E+01 -0.26608896629E+02 -0.29734692933E+02  0.40659140922E+02  0.00000000000E+00 0. -1.
         11    1    3    3    0    0 -0.46825700385E+01  0.13186068852E+02  0.17754356378E+02  0.22605663993E+02  0.51100000000E-03 0.  1.
        -11    1    3    3    0    0 -0.98713789700E+01  0.12154239084E+02  0.19632834188E+01  0.15780498488E+02  0.51100000000E-03 0. -1.
         12    1    3    3    0    0  0.67449543982E+01  0.12685886928E+01  0.10017053137E+02  0.12142696597E+02  0.00000000000E+00 0. -1.
</event>
<event>
 7    1  0.2755991E-011  0.5052889E+02  0.7816164E-02  0.1300439E+00
        -11   -1    0    0    0    0  0.00000000000E+00  0.00000000000E+00  0.45593999997E+02  0.45594000000E+02  0.51100000000E-03 0.  1.
         11   -1    0    0    0    0 -0.00000000000E+00 -0.00000000000E+00 -0.45593999997E+02  0.45594000000E+02  0.51100000000E-03 0. -1.
    9900012    2    1    2    0    0 -0.63746020254E+01  0.23988775742E+02  0.32203508416E+02  0.50528894416E+02  0.30000105067E+02 0.  0.
         12    1    1    2    0    0  0.63746020254E+01 -0.23988775742E+02 -0.32203508416E+02  0.40659105584E+02  0.00000000000E+00 0. -1.
         11    1    3    3    0    0 -0.38062406071E+01 -0.16708098806E+01 -0.11673693438E+01  0.43176179385E+01  0.51100000000E-03 0. -1.
        -11    1    3    3    0    0 -0.69897002493E+01  0.17565944868E+01  0.11153160469E+02  0.13279100966E+02  0.51100000000E-03 0.  1.
         12    1    3    3    0    0  0.44213388311E+01  0.23902991136E+02  0.22217717291E+02  0.32932175511E+02  0.00000000000E+00 0. -1.
</event>
<event>
 7    1  0.2755991E-011  0.5052885E+02  0.7816164E-02  0.1300439E+00
        -11   -1    0    0    0    0  0.00000000000E+00  0.00000000000E+00  0.45593999997E+02  0.45594000000E+02  0.51100000000E-03 0.  1.
         11   -1    0    0    0    0 -0.00000000000E+00 -0.00000000000E+00 -0.45593999997E+02  0.45594000000E+02  0.51100000000E-03 0. -1.
    9900012    2    1    2    0    0 -0.31387713919E+02  0.24690080355E+02 -0.76405429187E+01  0.50528849134E+02  0.29999967428E+02 0.  0.
         12    1    1    2    0    0  0.31387713919E+02 -0.24690080355E+02  0.76405429187E+01  0.40659150866E+02  0.00000000000E+00 0. -1.
         11    1    3    3    0    0 -0.15983463838E+02  0.17197210980E+02  0.54956195014E+01  0.24112590398E+02  0.51100000000E-03 0.  1.
        -11    1    3    3    0    0 -0.79696374771E+01  0.28092959778E+01  0.22082545458E+01  0.87340513971E+01  0.51100000000E-03 0. -1.
         12    1    3    3    0    0 -0.74346126041E+01  0.46835733976E+01 -0.15344416966E+02  0.17682207339E+02  0.00000000000E+00 0. -1.
</event>
<event>
 7    1  0.2755991E-011  0.5052886E+02  0.7816164E-02  0.1300439E+00
        -11   -1    0    0    0    0  0.00000000000E+00  0.00000000000E+00  0.45593999997E+02  0.45594000000E+02  0.51100000000E-03 0. -1.
         11   -1    0    0    0    0 -0.00000000000E+00 -0.00000000000E+00 -0.45593999997E+02  0.45594000000E+02  0.51100000000E-03 0.  1.
    9900012    2    1    2    0    0 -0.33486286699E+02 -0.19804080981E+02  0.11816623484E+02  0.50528860671E+02  0.30000002496E+02 0.  0.
         12    1    1    2    0    0  0.33486286699E+02  0.19804080981E+02 -0.11816623484E+02  0.40659139329E+02  0.00000000000E+00 0. -1.
         11    1    3    3    0    0  0.52039880964E+00 -0.56351757412E+01  0.10295021626E+02  0.11747914329E+02  0.51100000000E-03 0. -1.
        -11    1    3    3    0    0 -0.42211546017E+01 -0.69025828573E+01  0.43459822938E+00  0.81026336555E+01  0.51100000000E-03 0.  1.
         12    1    3    3    0    0 -0.29785530907E+02 -0.72663223827E+01  0.10870036295E+01  0.30678312686E+02  0.00000000000E+00 0. -1.
</event>
<event>
 7    1  0.2755991E-011  0.5052888E+02  0.7816164E-02  0.1300439E+00
        -11   -1    0    0    0    0  0.00000000000E+00  0.00000000000E+00  0.45593999997E+02  0.45594000000E+02  0.51100000000E-03 0.  1.
         11   -1    0    0    0    0 -0.00000000000E+00 -0.00000000000E+00 -0.45593999997E+02  0.45594000000E+02  0.51100000000E-03 0. -1.
    9900012    2    1    2    0    0  0.24703621453E+02  0.31502985131E+02  0.71032959196E+01  0.50528882966E+02  0.30000070264E+02 0.  0.
         12    1    1    2    0    0 -0.24703621453E+02 -0.31502985131E+02 -0.71032959196E+01  0.40659117034E+02  0.00000000000E+00 0. -1.
         11    1    3    3    0    0  0.10489963491E+02  0.19521668331E+02 -0.43844286656E+01  0.22591106291E+02  0.51100000000E-03 0. -1.
        -11    1    3    3    0    0  0.11139112264E+02  0.77559882353E+01 -0.17691931328E+01  0.13688141588E+02  0.51100000000E-03 0.  1.
         12    1    3    3    0    0  0.30745456988E+01  0.42253285645E+01  0.13256917718E+02  0.14249635087E+02  0.00000000000E+00 0. -1.
</event>
<event>
 7    1  0.2755991E-011  0.5052886E+02  0.7816164E-02  0.1300439E+00
        -11   -1    0    0    0    0  0.00000000000E+00  0.00000000000E+00  0.45593999997E+02  0.45594000000E+02  0.51100000000E-03 0. -1.
         11   -1    0    0    0    0 -0.00000000000E+00 -0.00000000000E+00 -0.45593999997E+02  0.45594000000E+02  0.51100000000E-03 0.  1.
    9900012    2    1    2    0    0 -0.13287668566E+02  0.33168247179E+02 -0.19402862988E+02  0.50528857745E+02  0.29999993601E+02 0.  0.
         12    1    1    2    0    0  0.13287668566E+02 -0.33168247179E+02  0.19402862988E+02  0.40659142255E+02  0.00000000000E+00 0. -1.
         11    1    3    3    0    0  0.96855786984E+00  0.71370755772E+01 -0.13030257407E+02  0.14888369974E+02  0.51100000000E-03 0. -1.
        -11    1    3    3    0    0 -0.10016072503E+01 -0.24096493086E+01 -0.31607101699E+01  0.40987456512E+01  0.51100000000E-03 0.  1.
         12    1    3    3    0    0 -0.13254619185E+02  0.28440820910E+02 -0.32118954110E+01  0.31541742119E+02  0.00000000000E+00 0. -1.
</event>
<event>
 7    1  0.2755991E-011  0.5052884E+02  0.7816164E-02  0.1300439E+00
        -11   -1    0    0    0    0  0.00000000000E+00  0.00000000000E+00  0.45593999997E+02  0.45594000000E+02  0.51100000000E-03 0.  1.
         11   -1    0    0    0    0 -0.00000000000E+00 -0.00000000000E+00 -0.45593999997E+02  0.45594000000E+02  0.51100000000E-03 0. -1.
    9900012    2    1    2    0    0  0.30055404491E+02 -0.20415156193E+02  0.18249968978E+02  0.50528839787E+02  0.29999939016E+02 0.  0.
         12    1    1    2    0    0 -0.30055404491E+02  0.20415156193E+02 -0.18249968978E+02  0.40659160213E+02  0.00000000000E+00 0. -1.
         11    1    3    3    0    0  0.18099415542E+01  0.24599285380E+01  0.17726880359E+01  0.35312264124E+01  0.51100000000E-03 0. -1.
        -11    1    3    3    0    0  0.15902598752E+02  0.11700818018E+01  0.11129682581E+02  0.19445605496E+02  0.51100000000E-03 0.  1.
         12    1    3    3    0    0  0.12342864185E+02 -0.24045166533E+02  0.53475983617E+01  0.27552007878E+02  0.00000000000E+00 0. -1.
</event>
<event>
 7    1  0.2755991E-011  0.5052885E+02  0.7816164E-02  0.1300439E+00
        -11   -1    0    0    0    0  0.00000000000E+00  0.00000000000E+00  0.45593999997E+02  0.45594000000E+02  0.51100000000E-03 0.  1.
         11   -1    0    0    0    0 -0.00000000000E+00 -0.00000000000E+00 -0.45593999997E+02  0.45594000000E+02  0.51100000000E-03 0. -1.
    9900012    2    1    2    0    0  0.18489842990E+02  0.32883196150E+02  0.15165335952E+02  0.50528852230E+02  0.29999976838E+02 0.  0.
         12    1    1    2    0    0 -0.18489842990E+02 -0.32883196150E+02 -0.15165335952E+02  0.40659147770E+02  0.00000000000E+00 0. -1.
         11    1    3    3    0    0  0.11289332087E+02  0.32556732530E+01  0.25908943988E+01  0.12031673257E+02  0.51100000000E-03 0. -1.
        -11    1    3    3    0    0  0.58640616239E+01 -0.19082998519E+00 -0.54593064693E+00  0.58925101056E+01  0.51100000000E-03 0.  1.
        -12    1    3    3    0    0  0.13364492790E+01  0.29818352882E+02  0.13120372201E+02  0.32604668868E+02  0.00000000000E+00 0.  1.
</event>
<event>
 7    1  0.2755991E-011  0.5052887E+02  0.7816164E-02  0.1300439E+00
        -11   -1    0    0    0    0  0.00000000000E+00  0.00000000000E+00  0.45593999997E+02  0.45594000000E+02  0.51100000000E-03 0.  1.
         11   -1    0    0    0    0 -0.00000000000E+00 -0.00000000000E+00 -0.45593999997E+02  0.45594000000E+02  0.51100000000E-03 0. -1.
    9900012    2    1    2    0    0  0.49679213535E+01 -0.32607149479E+02  0.23775171642E+02  0.50528865401E+02  0.30000016872E+02 0.  0.
         12    1    1    2    0    0 -0.49679213535E+01  0.32607149479E+02 -0.23775171642E+02  0.40659134599E+02  0.00000000000E+00 0. -1.
         11    1    3    3    0    0  0.30789920373E+01 -0.85153477644E+01  0.43940794465E+01  0.10064754044E+02  0.51100000000E-03 0. -1.
        -11    1    3    3    0    0 -0.62468223802E+01 -0.25950332190E+02  0.11778174394E+02  0.29174782311E+02  0.51100000000E-03 0.  1.
        -12    1    3    3    0    0  0.81357516964E+01  0.18585304748E+01  0.76029178023E+01  0.11289329046E+02  0.00000000000E+00 0.  1.
</event>
<event>
 7    1  0.2755991E-011  0.5052886E+02  0.7816164E-02  0.1300439E+00
        -11   -1    0    0    0    0  0.00000000000E+00  0.00000000000E+00  0.45593999997E+02  0.45594000000E+02  0.51100000000E-03 0.  1.
         11   -1    0    0    0    0 -0.00000000000E+00 -0.00000000000E+00 -0.45593999997E+02  0.45594000000E+02  0.51100000000E-03 0. -1.
    9900012    2    1    2    0    0  0.33603252510E+02  0.11474508329E+02  0.19807138220E+02  0.50528860251E+02  0.30000001219E+02 0.  0.
         12    1    1    2    0    0 -0.33603252510E+02 -0.11474508329E+02 -0.19807138220E+02  0.40659139749E+02  0.00000000000E+00 0. -1.
         11    1    3    3    0    0  0.11166898232E+02 -0.17598390942E+01  0.71412991059E+01  0.13371417387E+02  0.51100000000E-03 0. -1.
        -11    1    3    3    0    0  0.22680051646E+02  0.17704434053E+01  0.11879504527E+02  0.25664018403E+02  0.51100000000E-03 0.  1.
         12    1    3    3    0    0 -0.24369736824E+00  0.11463904018E+02  0.78633458702E+00  0.11493424460E+02  0.00000000000E+00 0. -1.
</event>
<event>
 7    1  0.2755991E-011  0.5052886E+02  0.7816164E-02  0.1300439E+00
        -11   -1    0    0    0    0  0.00000000000E+00  0.00000000000E+00  0.45593999997E+02  0.45594000000E+02  0.51100000000E-03 0.  1.
         11   -1    0    0    0    0 -0.00000000000E+00 -0.00000000000E+00 -0.45593999997E+02  0.45594000000E+02  0.51100000000E-03 0. -1.
    9900012    2    1    2    0    0 -0.30997068075E+01 -0.39454203675E+02  0.93232582344E+01  0.50528861863E+02  0.30000006119E+02 0.  0.
         12    1    1    2    0    0  0.30997068075E+01  0.39454203675E+02 -0.93232582344E+01  0.40659138137E+02  0.00000000000E+00 0. -1.
         11    1    3    3    0    0  0.10728447368E+02 -0.68914010686E+01  0.33716367327E+01  0.13189348965E+02  0.51100000000E-03 0. -1.
        -11    1    3    3    0    0 -0.33326851613E+01 -0.40475588116E+01 -0.24885472544E+01  0.58036531957E+01  0.51100000000E-03 0.  1.
        -12    1    3    3    0    0 -0.10495469014E+02 -0.28515243795E+02  0.84401687561E+01  0.31535859702E+02  0.00000000000E+00 0.  1.
</event>
<event>
 7    1  0.2755991E-011  0.5052886E+02  0.7816164E-02  0.1300439E+00
        -11   -1    0    0    0    0  0.00000000000E+00  0.00000000000E+00  0.45593999997E+02  0.45594000000E+02  0.51100000000E-03 0.  1.
         11   -1    0    0    0    0 -0.00000000000E+00 -0.00000000000E+00 -0.45593999997E+02  0.45594000000E+02  0.51100000000E-03 0. -1.
    9900012    2    1    2    0    0 -0.24510269081E+02  0.53583637845E+01  0.31995321250E+02  0.50528856689E+02  0.29999990392E+02 0.  0.
         12    1    1    2    0    0  0.24510269081E+02 -0.53583637845E+01 -0.31995321250E+02  0.40659143311E+02  0.00000000000E+00 0. -1.
         11    1    3    3    0    0 -0.22869843104E+01  0.76089149493E+01  0.12398248611E+02  0.14725571392E+02  0.51100000000E-03 0. -1.
        -11    1    3    3    0    0 -0.67424611448E+01  0.64372168387E+01  0.14668237408E+02  0.17379750627E+02  0.51100000000E-03 0.  1.
         12    1    3    3    0    0 -0.15480823626E+02 -0.86877680035E+01  0.49288352311E+01  0.18423534670E+02  0.00000000000E+00 0. -1.
</event>
<event>
 7    1  0.2755991E-011  0.5052885E+02  0.7816164E-02  0.1300439E+00
        -11   -1    0    0    0    0  0.00000000000E+00  0.00000000000E+00  0.45593999997E+02  0.45594000000E+02  0.51100000000E-03 0.  1.
         11   -1    0    0    0    0 -0.00000000000E+00 -0.00000000000E+00 -0.45593999997E+02  0.45594000000E+02  0.51100000000E-03 0. -1.
    9900012    2    1    2    0    0 -0.36651468321E+02 -0.13118258987E+02  0.11736586117E+02  0.50528852166E+02  0.29999976643E+02 0.  0.
         12    1    1    2    0    0  0.36651468321E+02  0.13118258987E+02 -0.11736586117E+02  0.40659147834E+02  0.00000000000E+00 0. -1.
         11    1    3    3    0    0 -0.59184987575E+01 -0.71914732842E+00 -0.81463819136E+01  0.10095015551E+02  0.51100000000E-03 0. -1.
        -11    1    3    3    0    0 -0.23605003476E+02 -0.95181051841E+01  0.87693234245E+01  0.26920095635E+02  0.51100000000E-03 0.  1.
        -12    1    3    3    0    0 -0.71279660874E+01 -0.28810064744E+01  0.11113644606E+02  0.13513740980E+02  0.00000000000E+00 0.  1.
</event>
<event>
 7    1  0.2755991E-011  0.5052886E+02  0.7816164E-02  0.1300439E+00
        -11   -1    0    0    0    0  0.00000000000E+00  0.00000000000E+00  0.45593999997E+02  0.45594000000E+02  0.51100000000E-03 0.  1.
         11   -1    0    0    0    0 -0.00000000000E+00 -0.00000000000E+00 -0.45593999997E+02  0.45594000000E+02  0.51100000000E-03 0. -1.
    9900012    2    1    2    0    0 -0.86843711687E+01  0.15792224018E+02  0.36446574180E+02  0.50528863124E+02  0.30000009952E+02 0.  0.
         12    1    1    2    0    0  0.86843711687E+01 -0.15792224018E+02 -0.36446574180E+02  0.40659136876E+02  0.00000000000E+00 0. -1.
         11    1    3    3    0    0  0.64314803234E+01  0.10202279061E+02  0.89521791998E+01  0.15019718702E+02  0.51100000000E-03 0.  1.
        -11    1    3    3    0    0  0.24701376238E+01 -0.15209491556E+01  0.13283449651E+01  0.31905119999E+01  0.51100000000E-03 0. -1.
         12    1    3    3    0    0 -0.17585989116E+02  0.71108941119E+01  0.26166050015E+02  0.32318632422E+02  0.00000000000E+00 0. -1.
</event>
<event>
 7    1  0.2755991E-011  0.5052886E+02  0.7816164E-02  0.1300439E+00
        -11   -1    0    0    0    0  0.00000000000E+00  0.00000000000E+00  0.45593999997E+02  0.45594000000E+02  0.51100000000E-03 0.  1.
         11   -1    0    0    0    0 -0.00000000000E+00 -0.00000000000E+00 -0.45593999997E+02  0.45594000000E+02  0.51100000000E-03 0. -1.
    9900012    2    1    2    0    0 -0.18546214762E+02 -0.27142202761E+02  0.23927068708E+02  0.50528857489E+02  0.29999992825E+02 0.  0.
         12    1    1    2    0    0  0.18546214762E+02  0.27142202761E+02 -0.23927068708E+02  0.40659142511E+02  0.00000000000E+00 0. -1.
         11    1    3    3    0    0 -0.12803447060E+00  0.52599370968E+01  0.43001432918E+01  0.67951868024E+01  0.51100000000E-03 0. -1.
        -11    1    3    3    0    0 -0.50950134566E+01 -0.13684772685E+01  0.32872736701E+01  0.62159521073E+01  0.51100000000E-03 0.  1.
         12    1    3    3    0    0 -0.13323166835E+02 -0.31033662590E+02  0.16339651746E+02  0.37517718580E+02  0.00000000000E+00 0. -1.
</event>
<event>
 7    1  0.2755991E-011  0.5052886E+02  0.7816164E-02  0.1300439E+00
        -11   -1    0    0    0    0  0.00000000000E+00  0.00000000000E+00  0.45593999997E+02  0.45594000000E+02  0.51100000000E-03 0. -1.
         11   -1    0    0    0    0 -0.00000000000E+00 -0.00000000000E+00 -0.45593999997E+02  0.45594000000E+02  0.51100000000E-03 0.  1.
    9900012    2    1    2    0    0 -0.28464391754E+02  0.24837259686E+02 -0.15035115979E+02  0.50528858604E+02  0.29999996211E+02 0.  0.
         12    1    1    2    0    0  0.28464391754E+02 -0.24837259686E+02  0.15035115979E+02  0.40659141396E+02  0.00000000000E+00 0. -1.
         11    1    3    3    0    0 -0.94273281274E+01  0.13869141405E+02 -0.20679259502E+02  0.26624413097E+02  0.51100000000E-03 0. -1.
        -11    1    3    3    0    0 -0.59376056250E+01  0.63996015699E+01 -0.47254548255E+00  0.87426174745E+01  0.51100000000E-03 0.  1.
         12    1    3    3    0    0 -0.13099458001E+02  0.45685167110E+01  0.61166890065E+01  0.15161828032E+02  0.00000000000E+00 0. -1.
</event>
<event>
 7    1  0.2755991E-011  0.5052885E+02  0.7816164E-02  0.1300439E+00
        -11   -1    0    0    0    0  0.00000000000E+00  0.00000000000E+00  0.45593999997E+02  0.45594000000E+02  0.51100000000E-03 0.  1.
         11   -1    0    0    0    0 -0.00000000000E+00 -0.00000000000E+00 -0.45593999997E+02  0.45594000000E+02  0.51100000000E-03 0. -1.
    9900012    2    1    2    0    0 -0.35294189397E+02 -0.20056618671E+02 -0.22843776192E+01  0.50528854180E+02  0.29999982767E+02 0.  0.
         12    1    1    2    0    0  0.35294189397E+02  0.20056618671E+02  0.22843776192E+01  0.40659145820E+02  0.00000000000E+00 0. -1.
         11    1    3    3    0    0 -0.18211400167E+01 -0.11394501029E+02 -0.39531960258E+01  0.12197498257E+02  0.51100000000E-03 0. -1.
        -11    1    3    3    0    0 -0.11681687761E+02 -0.36798094057E+01  0.85567048768E+01  0.14940549683E+02  0.51100000000E-03 0.  1.
         12    1    3    3    0    0 -0.21791361618E+02 -0.49823082364E+01 -0.68878864701E+01  0.23390806240E+02  0.00000000000E+00 0. -1.
</event>
<event>
 7    1  0.2755991E-011  0.5052891E+02  0.7816164E-02  0.1300439E+00
        -11   -1    0    0    0    0  0.00000000000E+00  0.00000000000E+00  0.45593999997E+02  0.45594000000E+02  0.51100000000E-03 0.  1.
         11   -1    0    0    0    0 -0.00000000000E+00 -0.00000000000E+00 -0.45593999997E+02  0.45594000000E+02  0.51100000000E-03 0. -1.
    9900012    2    1    2    0    0  0.25014512684E+02 -0.27794695702E+02  0.15965291213E+02  0.50528911503E+02  0.30000157003E+02 0.  0.
         12    1    1    2    0    0 -0.25014512684E+02  0.27794695702E+02 -0.15965291213E+02  0.40659088497E+02  0.00000000000E+00 0. -1.
         11    1    3    3    0    0  0.57532795138E+00 -0.26631783623E+01 -0.14717450709E+01  0.30967006727E+01  0.51100000000E-03 0. -1.
        -11    1    3    3    0    0  0.51610041751E+00 -0.19522019011E+02  0.72194300797E+01  0.20820560916E+02  0.51100000000E-03 0.  1.
        -12    1    3    3    0    0  0.23923084315E+02 -0.56094983283E+01  0.10217606204E+02  0.26611649914E+02  0.00000000000E+00 0.  1.
</event>
<event>
 7    1  0.2755991E-011  0.5052886E+02  0.7816164E-02  0.1300439E+00
        -11   -1    0    0    0    0  0.00000000000E+00  0.00000000000E+00  0.45593999997E+02  0.45594000000E+02  0.51100000000E-03 0.  1.
         11   -1    0    0    0    0 -0.00000000000E+00 -0.00000000000E+00 -0.45593999997E+02  0.45594000000E+02  0.51100000000E-03 0. -1.
    9900012    2    1    2    0    0 -0.30934965861E+02  0.17850986880E+02  0.19430287835E+02  0.50528856739E+02  0.29999990544E+02 0.  0.
         12    1    1    2    0    0  0.30934965861E+02 -0.17850986880E+02 -0.19430287835E+02  0.40659143261E+02  0.00000000000E+00 0. -1.
         11    1    3    3    0    0  0.84891434257E-01 -0.39136701996E+00 -0.11042950887E+01  0.11746670183E+01  0.51100000000E-03 0. -1.
        -11    1    3    3    0    0 -0.61041101987E+01 -0.50561695899E+00  0.16882959057E+02  0.17959680303E+02  0.51100000000E-03 0.  1.
         12    1    3    3    0    0 -0.24915747096E+02  0.18747970859E+02  0.36516238665E+01  0.31394509417E+02  0.00000000000E+00 0. -1.
</event>
<event>
 7    1  0.2755991E-011  0.5052886E+02  0.7816164E-02  0.1300439E+00
        -11   -1    0    0    0    0  0.00000000000E+00  0.00000000000E+00  0.45593999997E+02  0.45594000000E+02  0.51100000000E-03 0.  1.
         11   -1    0    0    0    0 -0.00000000000E+00 -0.00000000000E+00 -0.45593999997E+02  0.45594000000E+02  0.51100000000E-03 0. -1.
    9900012    2    1    2    0    0 -0.25139963354E+02 -0.68875069414E+01  0.31204328498E+02  0.50528860482E+02  0.30000001920E+02 0.  0.
         12    1    1    2    0    0  0.25139963354E+02  0.68875069414E+01 -0.31204328498E+02  0.40659139518E+02  0.00000000000E+00 0. -1.
         11    1    3    3    0    0 -0.14239336554E+02 -0.90075425556E+01  0.97244645279E+01  0.19454041714E+02  0.51100000000E-03 0. -1.
        -11    1    3    3    0    0 -0.65596831645E+01 -0.82588389149E+01  0.14147276426E+02  0.17646056046E+02  0.51100000000E-03 0.  1.
        -12    1    3    3    0    0 -0.43409436363E+01  0.10378874529E+02  0.73325875442E+01  0.13428762722E+02  0.00000000000E+00 0.  1.
</event>
<event>
 7    1  0.2755991E-011  0.5052887E+02  0.7816164E-02  0.1300439E+00
        -11   -1    0    0    0    0  0.00000000000E+00  0.00000000000E+00  0.45593999997E+02  0.45594000000E+02  0.51100000000E-03 0.  1.
         11   -1    0    0    0    0 -0.00000000000E+00 -0.00000000000E+00 -0.45593999997E+02  0.45594000000E+02  0.51100000000E-03 0. -1.
    9900012    2    1    2    0    0  0.40363684012E+02 -0.15271313788E+01  0.46482133623E+01  0.50528868126E+02  0.30000025156E+02 0.  0.
         12    1    1    2    0    0 -0.40363684012E+02  0.15271313788E+01 -0.46482133623E+01  0.40659131874E+02  0.00000000000E+00 0. -1.
         11    1    3    3    0    0  0.54438174697E+00  0.11701708391E+01  0.14898487486E+01  0.19711166465E+01  0.51100000000E-03 0. -1.
        -11    1    3    3    0    0  0.20575135228E+02  0.12035621948E+02  0.46082561668E+01  0.24278146768E+02  0.51100000000E-03 0.  1.
         12    1    3    3    0    0  0.19244167037E+02 -0.14732924166E+02 -0.14498915532E+01  0.24279604712E+02  0.00000000000E+00 0. -1.
</event>
<event>
 7    1  0.2755991E-011  0.5052887E+02  0.7816164E-02  0.1300439E+00
        -11   -1    0    0    0    0  0.00000000000E+00  0.00000000000E+00  0.45593999997E+02  0.45594000000E+02  0.51100000000E-03 0. -1.
         11   -1    0    0    0    0 -0.00000000000E+00 -0.00000000000E+00 -0.45593999997E+02  0.45594000000E+02  0.51100000000E-03 0.  1.
    9900012    2    1    2    0    0 -0.19879942155E+02  0.34744235624E+02  0.71267875052E+01  0.50528866839E+02  0.30000021245E+02 0.  0.
         12    1    1    2    0    0  0.19879942155E+02 -0.34744235624E+02 -0.71267875052E+01  0.40659133161E+02  0.00000000000E+00 0. -1.
         11    1    3    3    0    0  0.10121584221E+00  0.95965997021E+01 -0.16235871215E+01  0.97334991597E+01  0.51100000000E-03 0. -1.
        -11    1    3    3    0    0 -0.56193499520E+01  0.24251456933E+02  0.88057479877E+01  0.26405519406E+02  0.51100000000E-03 0.  1.
         12    1    3    3    0    0 -0.14361808046E+02  0.89617898977E+00 -0.55373361013E-01  0.14389848273E+02  0.00000000000E+00 0. -1.
</event>
<event>
 7    1  0.2755991E-011  0.5052886E+02  0.7816164E-02  0.1300439E+00
        -11   -1    0    0    0    0  0.00000000000E+00  0.00000000000E+00  0.45593999997E+02  0.45594000000E+02  0.51100000000E-03 0. -1.
         11   -1    0    0    0    0 -0.00000000000E+00 -0.00000000000E+00 -0.45593999997E+02  0.45594000000E+02  0.51100000000E-03 0.  1.
    9900012    2    1    2    0    0 -0.31772561919E+02  0.22503027075E+02 -0.11716801035E+02  0.50528863943E+02  0.30000012440E+02 0.  0.
         12    1    1    2    0    0  0.31772561919E+02 -0.22503027075E+02  0.11716801035E+02  0.40659136057E+02  0.00000000000E+00 0. -1.
         11    1    3    3    0    0  0.21658032175E+01  0.44010802035E+01  0.28183413685E+01  0.56571422878E+01  0.51100000000E-03 0. -1.
        -11    1    3    3    0    0 -0.20412047188E+01  0.60894777842E+01  0.23442897968E+01  0.68369548266E+01  0.51100000000E-03 0.  1.
        -12    1    3    3    0    0 -0.31897160418E+02  0.12012469087E+02 -0.16879432200E+02  0.38034766828E+02  0.00000000000E+00 0.  1.
</event>
<event>
 7    1  0.2755991E-011  0.5052884E+02  0.7816164E-02  0.1300439E+00
        -11   -1    0    0    0    0  0.00000000000E+00  0.00000000000E+00  0.45593999997E+02  0.45594000000E+02  0.51100000000E-03 0. -1.
         11   -1    0    0    0    0 -0.00000000000E+00 -0.00000000000E+00 -0.45593999997E+02  0.45594000000E+02  0.51100000000E-03 0.  1.
    9900012    2    1    2    0    0  0.65728333604E+01 -0.39297279190E+02 -0.81048789629E+01  0.50528839247E+02  0.29999937375E+02 0.  0.
         12    1    1    2    0    0 -0.65728333604E+01  0.39297279190E+02  0.81048789629E+01  0.40659160753E+02  0.00000000000E+00 0. -1.
         11    1    3    3    0    0 -0.48810643451E+01 -0.27390732769E+01  0.23680724124E+01  0.60774236950E+01  0.51100000000E-03 0. -1.
        -11    1    3    3    0    0 -0.14660855911E+01 -0.10708241029E+02 -0.11171494319E+02  0.15544070203E+02  0.51100000000E-03 0.  1.
        -12    1    3    3    0    0  0.12919983297E+02 -0.25849964884E+02  0.69854294329E+00  0.28907345349E+02  0.00000000000E+00 0.  1.
</event>
<event>
 7    1  0.2755991E-011  0.5052887E+02  0.7816164E-02  0.1300439E+00
        -11   -1    0    0    0    0  0.00000000000E+00  0.00000000000E+00  0.45593999997E+02  0.45594000000E+02  0.51100000000E-03 0.  1.
         11   -1    0    0    0    0 -0.00000000000E+00 -0.00000000000E+00 -0.45593999997E+02  0.45594000000E+02  0.51100000000E-03 0. -1.
    9900012    2    1    2    0    0 -0.33943709540E+02  0.20400016585E+02  0.92102747875E+01  0.50528865040E+02  0.30000015777E+02 0.  0.
         12    1    1    2    0    0  0.33943709540E+02 -0.20400016585E+02 -0.92102747875E+01  0.40659134960E+02  0.00000000000E+00 0. -1.
         11    1    3    3    0    0 -0.71499785912E+01 -0.37539709445E+01 -0.24405140637E+01  0.84362669981E+01  0.51100000000E-03 0. -1.
        -11    1    3    3    0    0 -0.11380683287E+02 -0.45243974381E+00  0.39278225273E+01  0.12047922803E+02  0.51100000000E-03 0.  1.
        -12    1    3    3    0    0 -0.15413047662E+02  0.24606427273E+02  0.77229663239E+01  0.30044675239E+02  0.00000000000E+00 0.  1.
</event>
<event>
 7    1  0.2755991E-011  0.5052886E+02  0.7816164E-02  0.1300439E+00
        -11   -1    0    0    0    0  0.00000000000E+00  0.00000000000E+00  0.45593999997E+02  0.45594000000E+02  0.51100000000E-03 0.  1.
         11   -1    0    0    0    0 -0.00000000000E+00 -0.00000000000E+00 -0.45593999997E+02  0.45594000000E+02  0.51100000000E-03 0. -1.
    9900012    2    1    2    0    0 -0.74710932195E+01  0.28266870974E+02  0.28254780201E+02  0.50528857944E+02  0.29999994206E+02 0.  0.
         12    1    1    2    0    0  0.74710932195E+01 -0.28266870974E+02 -0.28254780201E+02  0.40659142056E+02  0.00000000000E+00 0. -1.
         11    1    3    3    0    0  0.79483974573E+01 -0.16224942898E+01  0.56585394607E+01  0.98908330766E+01  0.51100000000E-03 0.  1.
        -11    1    3    3    0    0 -0.18128254734E+01  0.18367909904E+01  0.13888263389E+01  0.29306955147E+01  0.51100000000E-03 0. -1.
        -12    1    3    3    0    0 -0.13606665203E+02  0.28052574273E+02  0.21207414401E+02  0.37707329352E+02  0.00000000000E+00 0.  1.
</event>
<event>
 7    1  0.2755991E-011  0.5052886E+02  0.7816164E-02  0.1300439E+00
        -11   -1    0    0    0    0  0.00000000000E+00  0.00000000000E+00  0.45593999997E+02  0.45594000000E+02  0.51100000000E-03 0.  1.
         11   -1    0    0    0    0 -0.00000000000E+00 -0.00000000000E+00 -0.45593999997E+02  0.45594000000E+02  0.51100000000E-03 0. -1.
    9900012    2    1    2    0    0  0.28349260024E+02  0.10409008901E+02  0.27223845436E+02  0.50528858709E+02  0.29999996532E+02 0.  0.
         12    1    1    2    0    0 -0.28349260024E+02 -0.10409008901E+02 -0.27223845436E+02  0.40659141291E+02  0.00000000000E+00 0. -1.
         11    1    3    3    0    0  0.63469687883E+01  0.99633823210E+01 -0.32552074295E+01  0.12253545436E+02  0.51100000000E-03 0. -1.
        -11    1    3    3    0    0  0.14498149487E+02  0.27715913168E-01  0.13958590388E+02  0.20125589497E+02  0.51100000000E-03 0.  1.
        -12    1    3    3    0    0  0.75041417488E+01  0.41791066727E+00  0.16520462477E+02  0.18149723776E+02  0.00000000000E+00 0.  1.
</event>
<event>
 7    1  0.2755991E-011  0.5052886E+02  0.7816164E-02  0.1300439E+00
        -11   -1    0    0    0    0  0.00000000000E+00  0.00000000000E+00  0.45593999997E+02  0.45594000000E+02  0.51100000000E-03 0.  1.
         11   -1    0    0    0    0 -0.00000000000E+00 -0.00000000000E+00 -0.45593999997E+02  0.45594000000E+02  0.51100000000E-03 0. -1.
    9900012    2    1    2    0    0 -0.22226166388E+02 -0.21210757324E+02  0.26632067212E+02  0.50528859545E+02  0.29999999073E+02 0.  0.
         12    1    1    2    0    0  0.22226166388E+02  0.21210757324E+02 -0.26632067212E+02  0.40659140455E+02  0.00000000000E+00 0. -1.
         11    1    3    3    0    0 -0.12269384787E+02 -0.46302202889E+00  0.16534584295E+02  0.20594772893E+02  0.51100000000E-03 0. -1.
        -11    1    3    3    0    0 -0.81560828729E+01 -0.38206203040E+01  0.92197377864E+01  0.12888847600E+02  0.51100000000E-03 0.  1.
         12    1    3    3    0    0 -0.18006987281E+01 -0.16927114991E+02  0.87774513042E+00  0.17045239052E+02  0.00000000000E+00 0. -1.
</event>
<event>
 7    1  0.2755991E-011  0.5052887E+02  0.7816164E-02  0.1300439E+00
        -11   -1    0    0    0    0  0.00000000000E+00  0.00000000000E+00  0.45593999997E+02  0.45594000000E+02  0.51100000000E-03 0.  1.
         11   -1    0    0    0    0 -0.00000000000E+00 -0.00000000000E+00 -0.45593999997E+02  0.45594000000E+02  0.51100000000E-03 0. -1.
    9900012    2    1    2    0    0 -0.28592413779E+02  0.17185050959E+02  0.23244632969E+02  0.50528867397E+02  0.30000022941E+02 0.  0.
         12    1    1    2    0    0  0.28592413779E+02 -0.17185050959E+02 -0.23244632969E+02  0.40659132603E+02  0.00000000000E+00 0. -1.
         11    1    3    3    0    0 -0.11325532987E+02  0.62495706140E+01 -0.21860271438E+01  0.13118824080E+02  0.51100000000E-03 0. -1.
        -11    1    3    3    0    0 -0.16899615160E+02  0.13285061503E+01  0.11501782356E+02  0.20485431867E+02  0.51100000000E-03 0.  1.
        -12    1    3    3    0    0 -0.36726563207E+00  0.96069741945E+01  0.13928877756E+02  0.16924611451E+02  0.00000000000E+00 0.  1.
</event>
<event>
 7    1  0.2755991E-011  0.5052889E+02  0.7816164E-02  0.1300439E+00
        -11   -1    0    0    0    0  0.00000000000E+00  0.00000000000E+00  0.45593999997E+02  0.45594000000E+02  0.51100000000E-03 0.  1.
         11   -1    0    0    0    0 -0.00000000000E+00 -0.00000000000E+00 -0.45593999997E+02  0.45594000000E+02  0.51100000000E-03 0. -1.
    9900012    2    1    2    0    0 -0.20182493398E+02 -0.42495042931E+01  0.35039579120E+02  0.50528887474E+02  0.30000083967E+02 0.  0.
         12    1    1    2    0    0  0.20182493398E+02  0.42495042931E+01 -0.35039579120E+02  0.40659112526E+02  0.00000000000E+00 0. -1.
         11    1    3    3    0    0 -0.13662340224E+02 -0.86860713236E+01  0.13122098812E+02  0.20839790136E+02  0.51100000000E-03 0.  1.
        -11    1    3    3    0    0 -0.99803392423E+01  0.34699918954E+01  0.38156541762E+01  0.11234199224E+02  0.51100000000E-03 0. -1.
         12    1    3    3    0    0  0.34601860681E+01  0.96657513515E+00  0.18101826132E+02  0.18454898115E+02  0.00000000000E+00 0. -1.
</event>
<event>
 7    1  0.2755991E-011  0.5052887E+02  0.7816164E-02  0.1300439E+00
        -11   -1    0    0    0    0  0.00000000000E+00  0.00000000000E+00  0.45593999997E+02  0.45594000000E+02  0.51100000000E-03 0.  1.
         11   -1    0    0    0    0 -0.00000000000E+00 -0.00000000000E+00 -0.45593999997E+02  0.45594000000E+02  0.51100000000E-03 0. -1.
    9900012    2    1    2    0    0 -0.12549809098E+02  0.17308155116E+02  0.34584608020E+02  0.50528867522E+02  0.30000023321E+02 0.  0.
         12    1    1    2    0    0  0.12549809098E+02 -0.17308155116E+02 -0.34584608020E+02  0.40659132478E+02  0.00000000000E+00 0. -1.
         11    1    3    3    0    0  0.23155724267E+01 -0.55057395601E+00 -0.16140626493E+01  0.28757965577E+01  0.51100000000E-03 0. -1.
        -11    1    3    3    0    0 -0.42858331422E+01  0.52009940014E+01 -0.11375876063E+01  0.68346770332E+01  0.51100000000E-03 0.  1.
        -12    1    3    3    0    0 -0.10579548383E+02  0.12657735070E+02  0.37336258276E+02  0.40818393931E+02  0.00000000000E+00 0.  1.
</event>
<event>
 7    1  0.2755991E-011  0.5052885E+02  0.7816164E-02  0.1300439E+00
        -11   -1    0    0    0    0  0.00000000000E+00  0.00000000000E+00  0.45593999997E+02  0.45594000000E+02  0.51100000000E-03 0.  1.
         11   -1    0    0    0    0 -0.00000000000E+00 -0.00000000000E+00 -0.45593999997E+02  0.45594000000E+02  0.51100000000E-03 0. -1.
    9900012    2    1    2    0    0 -0.35095467733E+02  0.11386564853E+02  0.17082752952E+02  0.50528853883E+02  0.29999981864E+02 0.  0.
         12    1    1    2    0    0  0.35095467733E+02 -0.11386564853E+02 -0.17082752952E+02  0.40659146117E+02  0.00000000000E+00 0. -1.
         11    1    3    3    0    0 -0.19574803787E+02  0.68965721828E-01 -0.34687826597E+01  0.19879893183E+02  0.51100000000E-03 0.  1.
        -11    1    3    3    0    0 -0.75652214826E+01  0.22723552271E+01  0.13972999906E+01  0.80217592762E+01  0.51100000000E-03 0. -1.
         12    1    3    3    0    0 -0.79554424627E+01  0.90452439044E+01  0.19154235621E+02  0.22627201424E+02  0.00000000000E+00 0. -1.
</event>
<event>
 7    1  0.2755991E-011  0.5052885E+02  0.7816164E-02  0.1300439E+00
        -11   -1    0    0    0    0  0.00000000000E+00  0.00000000000E+00  0.45593999997E+02  0.45594000000E+02  0.51100000000E-03 0. -1.
         11   -1    0    0    0    0 -0.00000000000E+00 -0.00000000000E+00 -0.45593999997E+02  0.45594000000E+02  0.51100000000E-03 0.  1.
    9900012    2    1    2    0    0  0.11738703460E+02  0.37067947397E+02 -0.11888490518E+02  0.50528854781E+02  0.29999984592E+02 0.  0.
         12    1    1    2    0    0 -0.11738703460E+02 -0.37067947397E+02  0.11888490518E+02  0.40659145219E+02  0.00000000000E+00 0. -1.
         11    1    3    3    0    0 -0.39943799144E+01  0.64023444779E+01 -0.74159288016E+00  0.75825487784E+01  0.51100000000E-03 0.  1.
        -11    1    3    3    0    0  0.52334083104E+00  0.23637029437E+02 -0.16820189034E+01  0.23702578638E+02  0.51100000000E-03 0. -1.
        -12    1    3    3    0    0  0.15209742543E+02  0.70285734823E+01 -0.94648787340E+01  0.19243727365E+02  0.00000000000E+00 0.  1.
</event>
<event>
 7    1  0.2755991E-011  0.5052887E+02  0.7816164E-02  0.1300439E+00
        -11   -1    0    0    0    0  0.00000000000E+00  0.00000000000E+00  0.45593999997E+02  0.45594000000E+02  0.51100000000E-03 0.  1.
         11   -1    0    0    0    0 -0.00000000000E+00 -0.00000000000E+00 -0.45593999997E+02  0.45594000000E+02  0.51100000000E-03 0. -1.
    9900012    2    1    2    0    0  0.27765338882E+02 -0.28840502407E+02 -0.71046701022E+01  0.50528868682E+02  0.30000026845E+02 0.  0.
         12    1    1    2    0    0 -0.27765338882E+02  0.28840502407E+02  0.71046701022E+01  0.40659131318E+02  0.00000000000E+00 0. -1.
         11    1    3    3    0    0  0.31304565507E+01  0.93924507198E+00  0.54817117277E+00  0.33139751685E+01  0.51100000000E-03 0. -1.
        -11    1    3    3    0    0  0.14932044774E+02 -0.93271304434E+01  0.83567222539E+01  0.19488358847E+02  0.51100000000E-03 0.  1.
         12    1    3    3    0    0  0.97028375570E+01 -0.20452617035E+02 -0.16009563529E+02  0.27726534667E+02  0.00000000000E+00 0. -1.
</event>
<event>
 7    1  0.2755991E-011  0.5052886E+02  0.7816164E-02  0.1300439E+00
        -11   -1    0    0    0    0  0.00000000000E+00  0.00000000000E+00  0.45593999997E+02  0.45594000000E+02  0.51100000000E-03 0.  1.
         11   -1    0    0    0    0 -0.00000000000E+00 -0.00000000000E+00 -0.45593999997E+02  0.45594000000E+02  0.51100000000E-03 0. -1.
    9900012    2    1    2    0    0  0.88082677525E+01  0.28544886636E+02  0.27582050690E+02  0.50528860140E+02  0.30000000882E+02 0.  0.
         12    1    1    2    0    0 -0.88082677525E+01 -0.28544886636E+02 -0.27582050690E+02  0.40659139860E+02  0.00000000000E+00 0. -1.
         11    1    3    3    0    0  0.46058397390E+01  0.15582458698E+02  0.79781412829E+00  0.16268475233E+02  0.51100000000E-03 0. -1.
        -11    1    3    3    0    0 -0.43222491622E+01  0.68985851154E+01  0.37522945063E+01  0.89639293135E+01  0.51100000000E-03 0.  1.
         12    1    3    3    0    0  0.85246771757E+01  0.60638428232E+01  0.23031942056E+02  0.25296455593E+02  0.00000000000E+00 0. -1.
</event>
<event>
 7    1  0.2755991E-011  0.5052886E+02  0.7816164E-02  0.1300439E+00
        -11   -1    0    0    0    0  0.00000000000E+00  0.00000000000E+00  0.45593999997E+02  0.45594000000E+02  0.51100000000E-03 0. -1.
         11   -1    0    0    0    0 -0.00000000000E+00 -0.00000000000E+00 -0.45593999997E+02  0.45594000000E+02  0.51100000000E-03 0.  1.
    9900012    2    1    2    0    0  0.10814199220E+02  0.38943775890E+02  0.44272909824E+01  0.50528862149E+02  0.30000006989E+02 0.  0.
         12    1    1    2    0    0 -0.10814199220E+02 -0.38943775890E+02 -0.44272909824E+01  0.40659137851E+02  0.00000000000E+00 0. -1.
         11    1    3    3    0    0  0.48020256363E+01  0.20101702526E+01 -0.34370774373E-02  0.52057897318E+01  0.51100000000E-03 0. -1.
        -11    1    3    3    0    0  0.47845264745E+01 -0.86407468693E+00 -0.43226219926E+01  0.65056421514E+01  0.51100000000E-03 0.  1.
        -12    1    3    3    0    0  0.12276471091E+01  0.37797680324E+02  0.87533500525E+01  0.38817430266E+02  0.00000000000E+00 0.  1.
</event>
<event>
 7    1  0.2755991E-011  0.5052888E+02  0.7816164E-02  0.1300439E+00
        -11   -1    0    0    0    0  0.00000000000E+00  0.00000000000E+00  0.45593999997E+02  0.45594000000E+02  0.51100000000E-03 0. -1.
         11   -1    0    0    0    0 -0.00000000000E+00 -0.00000000000E+00 -0.45593999997E+02  0.45594000000E+02  0.51100000000E-03 0.  1.
    9900012    2    1    2    0    0  0.15622429635E+02  0.35313250272E+02 -0.12730997168E+02  0.50528877513E+02  0.30000053689E+02 0.  0.
         12    1    1    2    0    0 -0.15622429635E+02 -0.35313250272E+02  0.12730997168E+02  0.40659122487E+02  0.00000000000E+00 0. -1.
         11    1    3    3    0    0  0.12949263672E+01  0.37505379256E+01 -0.74687856465E+01  0.84573121216E+01  0.51100000000E-03 0. -1.
        -11    1    3    3    0    0  0.34118550759E+01  0.41161258553E+01 -0.10770848770E+02  0.12024742434E+02  0.51100000000E-03 0.  1.
        -12    1    3    3    0    0  0.10915648192E+02  0.27446586491E+02  0.55086372484E+01  0.30046822957E+02  0.00000000000E+00 0.  1.
</event>
<event>
 7    1  0.2755991E-011  0.5052886E+02  0.7816164E-02  0.1300439E+00
        -11   -1    0    0    0    0  0.00000000000E+00  0.00000000000E+00  0.45593999997E+02  0.45594000000E+02  0.51100000000E-03 0.  1.
         11   -1    0    0    0    0 -0.00000000000E+00 -0.00000000000E+00 -0.45593999997E+02  0.45594000000E+02  0.51100000000E-03 0. -1.
    9900012    2    1    2    0    0  0.10226138369E+02 -0.13649430385E+02  0.36909144134E+02  0.50528858636E+02  0.29999996309E+02 0.  0.
         12    1    1    2    0    0 -0.10226138369E+02  0.13649430385E+02 -0.36909144134E+02  0.40659141364E+02  0.00000000000E+00 0. -1.
         11    1    3    3    0    0  0.80436539476E+01 -0.11420336975E+02  0.39588406776E+01  0.14518845864E+02  0.51100000000E-03 0.  1.
        -11    1    3    3    0    0  0.77922674642E+01 -0.23753594946E+01  0.13510186171E+02  0.15776149581E+02  0.51100000000E-03 0. -1.
         12    1    3    3    0    0 -0.56097830430E+01  0.14626608416E+00  0.19440117286E+02  0.20233863191E+02  0.00000000000E+00 0. -1.
</event>
<event>
 7    1  0.2755991E-011  0.5052887E+02  0.7816164E-02  0.1300439E+00
        -11   -1    0    0    0    0  0.00000000000E+00  0.00000000000E+00  0.45593999997E+02  0.45594000000E+02  0.51100000000E-03 0.  1.
         11   -1    0    0    0    0 -0.00000000000E+00 -0.00000000000E+00 -0.45593999997E+02  0.45594000000E+02  0.51100000000E-03 0. -1.
    9900012    2    1    2    0    0  0.27658406255E+01 -0.33739641014E+02  0.22520024587E+02  0.50528871167E+02  0.30000034398E+02 0.  0.
         12    1    1    2    0    0 -0.27658406255E+01  0.33739641014E+02 -0.22520024587E+02  0.40659128833E+02  0.00000000000E+00 0. -1.
         11    1    3    3    0    0 -0.95124840892E+01 -0.95902405143E+01  0.23228758056E+01  0.13706050450E+02  0.51100000000E-03 0. -1.
        -11    1    3    3    0    0 -0.10794927683E+01  0.11872482334E+01  0.30332957261E+01  0.34315807185E+01  0.51100000000E-03 0.  1.
        -12    1    3    3    0    0  0.13357817483E+02 -0.25336648733E+02  0.17163853055E+02  0.33391239998E+02  0.00000000000E+00 0.  1.
</event>
<event>
 7    1  0.2755991E-011  0.5052886E+02  0.7816164E-02  0.1300439E+00
        -11   -1    0    0    0    0  0.00000000000E+00  0.00000000000E+00  0.45593999997E+02  0.45594000000E+02  0.51100000000E-03 0.  1.
         11   -1    0    0    0    0 -0.00000000000E+00 -0.00000000000E+00 -0.45593999997E+02  0.45594000000E+02  0.51100000000E-03 0. -1.
    9900012    2    1    2    0    0 -0.26330074587E+02  0.23842342271E+02  0.19784728708E+02  0.50528860772E+02  0.30000002802E+02 0.  0.
         12    1    1    2    0    0  0.26330074587E+02 -0.23842342271E+02 -0.19784728708E+02  0.40659139228E+02  0.00000000000E+00 0. -1.
         11    1    3    3    0    0 -0.19336656156E+01  0.49466464310E+01  0.11240077444E+01  0.54287905924E+01  0.51100000000E-03 0. -1.
        -11    1    3    3    0    0 -0.28620403694E+02  0.18867213438E+02  0.21069848823E+02  0.40237268548E+02  0.51100000000E-03 0.  1.
        -12    1    3    3    0    0  0.42239947226E+01  0.28482402185E-01 -0.24091278595E+01  0.48628016315E+01  0.00000000000E+00 0.  1.
</event>
<event>
 7    1  0.2755991E-011  0.5052886E+02  0.7816164E-02  0.1300439E+00
        -11   -1    0    0    0    0  0.00000000000E+00  0.00000000000E+00  0.45593999997E+02  0.45594000000E+02  0.51100000000E-03 0.  1.
         11   -1    0    0    0    0 -0.00000000000E+00 -0.00000000000E+00 -0.45593999997E+02  0.45594000000E+02  0.51100000000E-03 0. -1.
    9900012    2    1    2    0    0 -0.41046140683E+01  0.25011223741E+02  0.31792401660E+02  0.50528856219E+02  0.29999988964E+02 0.  0.
         12    1    1    2    0    0  0.41046140683E+01 -0.25011223741E+02 -0.31792401660E+02  0.40659143781E+02  0.00000000000E+00 0. -1.
         11    1    3    3    0    0  0.23792221812E+01  0.19540050755E+02  0.24387763252E+02  0.31340664932E+02  0.51100000000E-03 0. -1.
        -11    1    3    3    0    0  0.33756226131E+01  0.63195313954E+01  0.62313915867E+00  0.71916345677E+01  0.51100000000E-03 0.  1.
         12    1    3    3    0    0 -0.98594588626E+01 -0.84835840952E+00  0.67814992496E+01  0.11996556720E+02  0.00000000000E+00 0. -1.
</event>
<event>
 7    1  0.2755991E-011  0.5052885E+02  0.7816164E-02  0.1300439E+00
        -11   -1    0    0    0    0  0.00000000000E+00  0.00000000000E+00  0.45593999997E+02  0.45594000000E+02  0.51100000000E-03 0.  1.
         11   -1    0    0    0    0 -0.00000000000E+00 -0.00000000000E+00 -0.45593999997E+02  0.45594000000E+02  0.51100000000E-03 0. -1.
    9900012    2    1    2    0    0  0.51301764910E+01 -0.15781779418E+02  0.37118497209E+02  0.50528854565E+02  0.29999983937E+02 0.  0.
         12    1    1    2    0    0 -0.51301764910E+01  0.15781779418E+02 -0.37118497209E+02  0.40659145435E+02  0.00000000000E+00 0. -1.
         11    1    3    3    0    0  0.13737509055E+02 -0.65389165149E+01  0.16613229269E+02  0.22527227331E+02  0.51100000000E-03 0.  1.
        -11    1    3    3    0    0  0.24904836431E+01  0.15316796579E+01  0.65334423956E+01  0.71578223748E+01  0.51100000000E-03 0. -1.
         12    1    3    3    0    0 -0.11097816207E+02 -0.10774542561E+02  0.13971825544E+02  0.20843804859E+02  0.00000000000E+00 0. -1.
</event>
<event>
 7    1  0.2755991E-011  0.5052886E+02  0.7816164E-02  0.1300439E+00
        -11   -1    0    0    0    0  0.00000000000E+00  0.00000000000E+00  0.45593999997E+02  0.45594000000E+02  0.51100000000E-03 0.  1.
         11   -1    0    0    0    0 -0.00000000000E+00 -0.00000000000E+00 -0.45593999997E+02  0.45594000000E+02  0.51100000000E-03 0. -1.
    9900012    2    1    2    0    0  0.49508176913E+01  0.36408298274E+02  0.17409506918E+02  0.50528859452E+02  0.29999998790E+02 0.  0.
         12    1    1    2    0    0 -0.49508176913E+01 -0.36408298274E+02 -0.17409506918E+02  0.40659140548E+02  0.00000000000E+00 0. -1.
         11    1    3    3    0    0 -0.83741365445E+01  0.18786138709E+02 -0.12403112629E+01  0.20605425081E+02  0.51100000000E-03 0. -1.
        -11    1    3    3    0    0 -0.74616161936E+00  0.17786175699E+00  0.58492717191E-03  0.76706751337E+00  0.51100000000E-03 0.  1.
        -12    1    3    3    0    0  0.14071115855E+02  0.17444297807E+02  0.18649233253E+02  0.29156366858E+02  0.00000000000E+00 0.  1.
</event>
<event>
 7    1  0.2755991E-011  0.5052886E+02  0.7816164E-02  0.1300439E+00
        -11   -1    0    0    0    0  0.00000000000E+00  0.00000000000E+00  0.45593999997E+02  0.45594000000E+02  0.51100000000E-03 0.  1.
         11   -1    0    0    0    0 -0.00000000000E+00 -0.00000000000E+00 -0.45593999997E+02  0.45594000000E+02  0.51100000000E-03 0. -1.
    9900012    2    1    2    0    0 -0.17239736002E+02  0.24254888462E+02  0.27706637446E+02  0.50528857482E+02  0.29999992803E+02 0.  0.
         12    1    1    2    0    0  0.17239736002E+02 -0.24254888462E+02 -0.27706637446E+02  0.40659142518E+02  0.00000000000E+00 0. -1.
         11    1    3    3    0    0 -0.11258928067E+02  0.11239365332E+01  0.49119375880E+01  0.12335064883E+02  0.51100000000E-03 0. -1.
        -11    1    3    3    0    0 -0.23359407659E+01  0.93500154774E+00 -0.30354128381E+01  0.39426613493E+01  0.51100000000E-03 0.  1.
        -12    1    3    3    0    0 -0.36448671690E+01  0.22195950381E+02  0.25830112696E+02  0.34251131250E+02  0.00000000000E+00 0.  1.
</event>
<event>
 7    1  0.2755991E-011  0.5052886E+02  0.7816164E-02  0.1300439E+00
        -11   -1    0    0    0    0  0.00000000000E+00  0.00000000000E+00  0.45593999997E+02  0.45594000000E+02  0.51100000000E-03 0.  1.
         11   -1    0    0    0    0 -0.00000000000E+00 -0.00000000000E+00 -0.45593999997E+02  0.45594000000E+02  0.51100000000E-03 0. -1.
    9900012    2    1    2    0    0  0.28897104890E+02  0.14037971483E+02  0.24921034693E+02  0.50528864686E+02  0.30000014698E+02 0.  0.
         12    1    1    2    0    0 -0.28897104890E+02 -0.14037971483E+02 -0.24921034693E+02  0.40659135314E+02  0.00000000000E+00 0. -1.
         11    1    3    3    0    0  0.13613347838E+02  0.50643325825E+01  0.13648562388E+02  0.19931230754E+02  0.51100000000E-03 0.  1.
        -11    1    3    3    0    0  0.78345495259E+01  0.25993320823E+01  0.17244116108E+02  0.19117955805E+02  0.51100000000E-03 0. -1.
        -12    1    3    3    0    0  0.74492075256E+01  0.63743068178E+01 -0.59716438031E+01  0.11479678126E+02  0.00000000000E+00 0.  1.
</event>
<event>
 7    1  0.2755991E-011  0.5052885E+02  0.7816164E-02  0.1300439E+00
        -11   -1    0    0    0    0  0.00000000000E+00  0.00000000000E+00  0.45593999997E+02  0.45594000000E+02  0.51100000000E-03 0.  1.
         11   -1    0    0    0    0 -0.00000000000E+00 -0.00000000000E+00 -0.45593999997E+02  0.45594000000E+02  0.51100000000E-03 0. -1.
    9900012    2    1    2    0    0  0.25160061411E+02  0.31744256192E+02  0.35270096755E+01  0.50528852338E+02  0.29999977165E+02 0.  0.
         12    1    1    2    0    0 -0.25160061411E+02 -0.31744256192E+02 -0.35270096755E+01  0.40659147662E+02  0.00000000000E+00 0. -1.
         11    1    3    3    0    0  0.11579851592E+02  0.23798552383E+01 -0.19078641069E+01  0.11974832757E+02  0.51100000000E-03 0. -1.
        -11    1    3    3    0    0  0.16580712289E+02  0.23756923213E+02  0.10084466016E+02  0.30675851669E+02  0.51100000000E-03 0.  1.
        -12    1    3    3    0    0 -0.30005024710E+01  0.56074777410E+01 -0.46495922333E+01  0.78781679108E+01  0.00000000000E+00 0.  1.
</event>
<event>
 7    1  0.2755991E-011  0.5052883E+02  0.7816164E-02  0.1300439E+00
        -11   -1    0    0    0    0  0.00000000000E+00  0.00000000000E+00  0.45593999997E+02  0.45594000000E+02  0.51100000000E-03 0. -1.
         11   -1    0    0    0    0 -0.00000000000E+00 -0.00000000000E+00 -0.45593999997E+02  0.45594000000E+02  0.51100000000E-03 0.  1.
    9900012    2    1    2    0    0  0.13742338983E+02  0.37963758751E+02 -0.48030574924E+01  0.50528828580E+02  0.29999904953E+02 0.  0.
         12    1    1    2    0    0 -0.13742338983E+02 -0.37963758751E+02  0.48030574924E+01  0.40659171420E+02  0.00000000000E+00 0. -1.
         11    1    3    3    0    0 -0.29245272534E+01  0.16730420691E+02 -0.23243135755E+01  0.17142411441E+02  0.51100000000E-03 0. -1.
        -11    1    3    3    0    0  0.13348801804E+02  0.12894708735E+02 -0.10522129616E+02  0.21334929924E+02  0.51100000000E-03 0.  1.
         12    1    3    3    0    0  0.33180644325E+01  0.83386293261E+01  0.80433856986E+01  0.12051487216E+02  0.00000000000E+00 0. -1.
</event>
<event>
 7    1  0.2755991E-011  0.5052885E+02  0.7816164E-02  0.1300439E+00
        -11   -1    0    0    0    0  0.00000000000E+00  0.00000000000E+00  0.45593999997E+02  0.45594000000E+02  0.51100000000E-03 0.  1.
         11   -1    0    0    0    0 -0.00000000000E+00 -0.00000000000E+00 -0.45593999997E+02  0.45594000000E+02  0.51100000000E-03 0. -1.
    9900012    2    1    2    0    0 -0.80160353825E+01 -0.15342071493E+02  0.36790357981E+02  0.50528850705E+02  0.29999972204E+02 0.  0.
         12    1    1    2    0    0  0.80160353825E+01  0.15342071493E+02 -0.36790357981E+02  0.40659149295E+02  0.00000000000E+00 0. -1.
         11    1    3    3    0    0 -0.70691843777E+01  0.51777670627E+01  0.53084611074E+01  0.10245115866E+02  0.51100000000E-03 0. -1.
        -11    1    3    3    0    0 -0.12097882036E+01 -0.49339853669E+01  0.20739487948E+02  0.21352614821E+02  0.51100000000E-03 0.  1.
        -12    1    3    3    0    0  0.26293719869E+00 -0.15585853189E+02  0.10742408926E+02  0.18931120018E+02  0.00000000000E+00 0.  1.
</event>
<event>
 7    1  0.2755991E-011  0.5052888E+02  0.7816164E-02  0.1300439E+00
        -11   -1    0    0    0    0  0.00000000000E+00  0.00000000000E+00  0.45593999997E+02  0.45594000000E+02  0.51100000000E-03 0.  1.
         11   -1    0    0    0    0 -0.00000000000E+00 -0.00000000000E+00 -0.45593999997E+02  0.45594000000E+02  0.51100000000E-03 0. -1.
    9900012    2    1    2    0    0  0.49231478054E+01 -0.32787025045E+02  0.23535874857E+02  0.50528882930E+02  0.30000070155E+02 0.  0.
         12    1    1    2    0    0 -0.49231478054E+01  0.32787025045E+02 -0.23535874857E+02  0.40659117070E+02  0.00000000000E+00 0. -1.
         11    1    3    3    0    0 -0.49528626170E+01 -0.99654820207E+01  0.67462216417E+01  0.13013577014E+02  0.51100000000E-03 0. -1.
        -11    1    3    3    0    0  0.22949548078E+00 -0.98656243173E+01  0.18805295883E+02  0.21237287135E+02  0.51100000000E-03 0.  1.
         12    1    3    3    0    0  0.96465149416E+01 -0.12955918707E+02 -0.20156426681E+01  0.16278018781E+02  0.00000000000E+00 0. -1.
</event>
<event>
 7    1  0.2755991E-011  0.5052888E+02  0.7816164E-02  0.1300439E+00
        -11   -1    0    0    0    0  0.00000000000E+00  0.00000000000E+00  0.45593999997E+02  0.45594000000E+02  0.51100000000E-03 0.  1.
         11   -1    0    0    0    0 -0.00000000000E+00 -0.00000000000E+00 -0.45593999997E+02  0.45594000000E+02  0.51100000000E-03 0. -1.
    9900012    2    1    2    0    0  0.34250979186E+01  0.24831542645E+02  0.32012926980E+02  0.50528876796E+02  0.30000051509E+02 0.  0.
         12    1    1    2    0    0 -0.34250979186E+01 -0.24831542645E+02 -0.32012926980E+02  0.40659123204E+02  0.00000000000E+00 0. -1.
         11    1    3    3    0    0 -0.40215264781E+01 -0.11946593285E+01  0.39412047943E+01  0.57561255735E+01  0.51100000000E-03 0. -1.
        -11    1    3    3    0    0 -0.75567918512E+01  0.60484993074E+01  0.56802692526E+01  0.11222963334E+02  0.51100000000E-03 0.  1.
         12    1    3    3    0    0  0.15003416248E+02  0.19977702666E+02  0.22391452933E+02  0.33549787889E+02  0.00000000000E+00 0. -1.
</event>
<event>
 7    1  0.2755991E-011  0.5052886E+02  0.7816164E-02  0.1300439E+00
        -11   -1    0    0    0    0  0.00000000000E+00  0.00000000000E+00  0.45593999997E+02  0.45594000000E+02  0.51100000000E-03 0. -1.
         11   -1    0    0    0    0 -0.00000000000E+00 -0.00000000000E+00 -0.45593999997E+02  0.45594000000E+02  0.51100000000E-03 0.  1.
    9900012    2    1    2    0    0  0.80125570978E+01  0.30649159370E+02 -0.25487121843E+02  0.50528863005E+02  0.30000009589E+02 0.  0.
         12    1    1    2    0    0 -0.80125570978E+01 -0.30649159370E+02  0.25487121843E+02  0.40659136995E+02  0.00000000000E+00 0. -1.
         11    1    3    3    0    0  0.55725983841E+01  0.19612359943E+02 -0.23260930722E+02  0.30931689472E+02  0.51100000000E-03 0. -1.
        -11    1    3    3    0    0  0.84972055338E+00  0.12318032835E+02 -0.71489989421E+01  0.14267590689E+02  0.51100000000E-03 0.  1.
         12    1    3    3    0    0  0.15902381603E+01 -0.12812334077E+01  0.49228078204E+01  0.53295828437E+01  0.00000000000E+00 0. -1.
</event>
<event>
 7    1  0.2755991E-011  0.5052889E+02  0.7816164E-02  0.1300439E+00
        -11   -1    0    0    0    0  0.00000000000E+00  0.00000000000E+00  0.45593999997E+02  0.45594000000E+02  0.51100000000E-03 0.  1.
         11   -1    0    0    0    0 -0.00000000000E+00 -0.00000000000E+00 -0.45593999997E+02  0.45594000000E+02  0.51100000000E-03 0. -1.
    9900012    2    1    2    0    0 -0.40061513693E+02 -0.62293778185E+01  0.30713710702E+01  0.50528888504E+02  0.30000087097E+02 0.  0.
         12    1    1    2    0    0  0.40061513693E+02  0.62293778185E+01 -0.30713710702E+01  0.40659111496E+02  0.00000000000E+00 0. -1.
         11    1    3    3    0    0 -0.95756294803E+00 -0.20837251963E+00 -0.47958280539E+01  0.48949272610E+01  0.51100000000E-03 0. -1.
        -11    1    3    3    0    0 -0.21621478807E+01 -0.70030678552E+01 -0.15648054075E+01  0.74944285351E+01  0.51100000000E-03 0.  1.
        -12    1    3    3    0    0 -0.36941802864E+02  0.98206255632E+00  0.94320045317E+01  0.38139532708E+02  0.00000000000E+00 0.  1.
</event>
<event>
 7    1  0.2755991E-011  0.5052878E+02  0.7816164E-02  0.1300439E+00
        -11   -1    0    0    0    0  0.00000000000E+00  0.00000000000E+00  0.45593999997E+02  0.45594000000E+02  0.51100000000E-03 0.  1.
         11   -1    0    0    0    0 -0.00000000000E+00 -0.00000000000E+00 -0.45593999997E+02  0.45594000000E+02  0.51100000000E-03 0. -1.
    9900012    2    1    2    0    0 -0.22793523527E+01  0.29248461533E+02  0.28151448067E+02  0.50528782380E+02  0.29999764522E+02 0.  0.
         12    1    1    2    0    0  0.22793523527E+01 -0.29248461533E+02 -0.28151448067E+02  0.40659217620E+02  0.00000000000E+00 0. -1.
         11    1    3    3    0    0  0.31841259522E+01  0.16174449713E+02  0.27419167499E+02  0.31993159085E+02  0.51100000000E-03 0. -1.
        -11    1    3    3    0    0  0.17805613427E-01  0.89197714133E+01  0.52089444758E+01  0.10329363094E+02  0.51100000000E-03 0.  1.
         12    1    3    3    0    0 -0.54812839184E+01  0.41542404072E+01 -0.44766639086E+01  0.82062602022E+01  0.00000000000E+00 0. -1.
</event>
<event>
 7    1  0.2755991E-011  0.5052886E+02  0.7816164E-02  0.1300439E+00
        -11   -1    0    0    0    0  0.00000000000E+00  0.00000000000E+00  0.45593999997E+02  0.45594000000E+02  0.51100000000E-03 0.  1.
         11   -1    0    0    0    0 -0.00000000000E+00 -0.00000000000E+00 -0.45593999997E+02  0.45594000000E+02  0.51100000000E-03 0. -1.
    9900012    2    1    2    0    0 -0.33028818697E+02  0.21037126869E+02  0.10940855255E+02  0.50528857300E+02  0.29999992248E+02 0.  0.
         12    1    1    2    0    0  0.33028818697E+02 -0.21037126869E+02 -0.10940855255E+02  0.40659142700E+02  0.00000000000E+00 0. -1.
         11    1    3    3    0    0 -0.23325948854E+02  0.50935072192E+01 -0.42021199655E+01  0.24242555933E+02  0.51100000000E-03 0. -1.
        -11    1    3    3    0    0 -0.13112816318E+01 -0.49276019374E+00  0.50733789226E+01  0.52632163246E+01  0.51100000000E-03 0.  1.
        -12    1    3    3    0    0 -0.83915882116E+01  0.16436379843E+02  0.10069596298E+02  0.21023085042E+02  0.00000000000E+00 0.  1.
</event>
<event>
 7    1  0.2755991E-011  0.5052886E+02  0.7816164E-02  0.1300439E+00
        -11   -1    0    0    0    0  0.00000000000E+00  0.00000000000E+00  0.45593999997E+02  0.45594000000E+02  0.51100000000E-03 0. -1.
         11   -1    0    0    0    0 -0.00000000000E+00 -0.00000000000E+00 -0.45593999997E+02  0.45594000000E+02  0.51100000000E-03 0.  1.
    9900012    2    1    2    0    0  0.39325542109E+02  0.67744961600E+01  0.77957486739E+01  0.50528858866E+02  0.29999997008E+02 0.  0.
         12    1    1    2    0    0 -0.39325542109E+02 -0.67744961600E+01 -0.77957486739E+01  0.40659141134E+02  0.00000000000E+00 0. -1.
         11    1    3    3    0    0  0.12221536587E+02 -0.20782299252E+01  0.97292908016E+01  0.15758937018E+02  0.51100000000E-03 0. -1.
        -11    1    3    3    0    0  0.16080740009E+02 -0.42907145458E+01  0.30196581632E+01  0.16915045559E+02  0.51100000000E-03 0.  1.
         12    1    3    3    0    0  0.11023265512E+02  0.13143440631E+02 -0.49532002909E+01  0.17854876289E+02  0.00000000000E+00 0. -1.
</event>
<event>
 7    1  0.2755991E-011  0.5052886E+02  0.7816164E-02  0.1300439E+00
        -11   -1    0    0    0    0  0.00000000000E+00  0.00000000000E+00  0.45593999997E+02  0.45594000000E+02  0.51100000000E-03 0. -1.
         11   -1    0    0    0    0 -0.00000000000E+00 -0.00000000000E+00 -0.45593999997E+02  0.45594000000E+02  0.51100000000E-03 0.  1.
    9900012    2    1    2    0    0  0.29509983196E+01 -0.33059532574E+02 -0.23484561384E+02  0.50528859472E+02  0.29999998851E+02 0.  0.
         12    1    1    2    0    0 -0.29509983196E+01  0.33059532574E+02  0.23484561384E+02  0.40659140528E+02  0.00000000000E+00 0. -1.
         11    1    3    3    0    0  0.23270206420E+01 -0.10585873591E+02  0.71846579563E+00  0.10862409406E+02  0.51100000000E-03 0. -1.
        -11    1    3    3    0    0  0.66403790717E+01 -0.20479066164E+02 -0.92619890983E+01  0.23436536166E+02  0.51100000000E-03 0.  1.
        -12    1    3    3    0    0 -0.60164013941E+01 -0.19945928193E+01 -0.14941038081E+02  0.16229913900E+02  0.00000000000E+00 0.  1.
</event>
<event>
 7    1  0.2755991E-011  0.5052886E+02  0.7816164E-02  0.1300439E+00
        -11   -1    0    0    0    0  0.00000000000E+00  0.00000000000E+00  0.45593999997E+02  0.45594000000E+02  0.51100000000E-03 0. -1.
         11   -1    0    0    0    0 -0.00000000000E+00 -0.00000000000E+00 -0.45593999997E+02  0.45594000000E+02  0.51100000000E-03 0.  1.
    9900012    2    1    2    0    0  0.61965215293E+01  0.11741519683E+02 -0.38430530549E+02  0.50528857833E+02  0.29999993869E+02 0.  0.
         12    1    1    2    0    0 -0.61965215293E+01 -0.11741519683E+02  0.38430530549E+02  0.40659142167E+02  0.00000000000E+00 0. -1.
         11    1    3    3    0    0  0.40233812112E+00  0.10909404166E+01 -0.15375201488E+01  0.19276917350E+01  0.51100000000E-03 0. -1.
        -11    1    3    3    0    0 -0.62171836227E+01  0.15937918156E+02 -0.13556806935E+02  0.21827909242E+02  0.51100000000E-03 0.  1.
        -12    1    3    3    0    0  0.12011367031E+02 -0.52873388901E+01 -0.23336203465E+02  0.26773256856E+02  0.00000000000E+00 0.  1.
</event>
<event>
 7    1  0.2755991E-011  0.5052883E+02  0.7816164E-02  0.1300439E+00
        -11   -1    0    0    0    0  0.00000000000E+00  0.00000000000E+00  0.45593999997E+02  0.45594000000E+02  0.51100000000E-03 0. -1.
         11   -1    0    0    0    0 -0.00000000000E+00 -0.00000000000E+00 -0.45593999997E+02  0.45594000000E+02  0.51100000000E-03 0.  1.
    9900012    2    1    2    0    0 -0.90181641894E+01  0.16987589404E+02 -0.35822659137E+02  0.50528826537E+02  0.29999898741E+02 0.  0.
         12    1    1    2    0    0  0.90181641894E+01 -0.16987589404E+02  0.35822659137E+02  0.40659173463E+02  0.00000000000E+00 0. -1.
         11    1    3    3    0    0  0.54662299085E+01  0.19124860475E-01 -0.25433752426E+00  0.54721771727E+01  0.51100000000E-03 0. -1.
        -11    1    3    3    0    0 -0.46184622845E+00 -0.29824947671E+01 -0.61077540667E+01  0.68127261045E+01  0.51100000000E-03 0.  1.
         12    1    3    3    0    0 -0.14022547869E+02  0.19950959310E+02 -0.29460567546E+02  0.38243923259E+02  0.00000000000E+00 0. -1.
</event>
<event>
 7    1  0.2755991E-011  0.5052888E+02  0.7816164E-02  0.1300439E+00
        -11   -1    0    0    0    0  0.00000000000E+00  0.00000000000E+00  0.45593999997E+02  0.45594000000E+02  0.51100000000E-03 0.  1.
         11   -1    0    0    0    0 -0.00000000000E+00 -0.00000000000E+00 -0.45593999997E+02  0.45594000000E+02  0.51100000000E-03 0. -1.
    9900012    2    1    2    0    0  0.12198397120E+02 -0.37009867155E+02 -0.11603155046E+02  0.50528875979E+02  0.30000049026E+02 0.  0.
         12    1    1    2    0    0 -0.12198397120E+02  0.37009867155E+02  0.11603155046E+02  0.40659124021E+02  0.00000000000E+00 0. -1.
         11    1    3    3    0    0  0.10421222716E+02 -0.12275129273E+02 -0.43947730185E+01  0.16691156691E+02  0.51100000000E-03 0. -1.
        -11    1    3    3    0    0  0.96100468831E+01 -0.99848306084E+01  0.31149253998E+01  0.14203964372E+02  0.51100000000E-03 0.  1.
        -12    1    3    3    0    0 -0.78328724788E+01 -0.14749907274E+02 -0.10323307427E+02  0.19633754916E+02  0.00000000000E+00 0.  1.
</event>
<event>
 7    1  0.2755991E-011  0.5052886E+02  0.7816164E-02  0.1300439E+00
        -11   -1    0    0    0    0  0.00000000000E+00  0.00000000000E+00  0.45593999997E+02  0.45594000000E+02  0.51100000000E-03 0.  1.
         11   -1    0    0    0    0 -0.00000000000E+00 -0.00000000000E+00 -0.45593999997E+02  0.45594000000E+02  0.51100000000E-03 0. -1.
    9900012    2    1    2    0    0 -0.31471462375E+02  0.55737039714E+01  0.25132579404E+02  0.50528859976E+02  0.30000000384E+02 0.  0.
         12    1    1    2    0    0  0.31471462375E+02 -0.55737039714E+01 -0.25132579404E+02  0.40659140024E+02  0.00000000000E+00 0. -1.
         11    1    3    3    0    0 -0.14310971638E+01  0.79259906929E+01  0.89363497912E+01  0.12030283264E+02  0.51100000000E-03 0. -1.
        -11    1    3    3    0    0 -0.98504299921E+01  0.27835706323E+01  0.14290979148E+02  0.17578717864E+02  0.51100000000E-03 0.  1.
        -12    1    3    3    0    0 -0.20189935219E+02 -0.51358573538E+01  0.19052504656E+01  0.20919858848E+02  0.00000000000E+00 0.  1.
</event>
<event>
 7    1  0.2755991E-011  0.5052885E+02  0.7816164E-02  0.1300439E+00
        -11   -1    0    0    0    0  0.00000000000E+00  0.00000000000E+00  0.45593999997E+02  0.45594000000E+02  0.51100000000E-03 0.  1.
         11   -1    0    0    0    0 -0.00000000000E+00 -0.00000000000E+00 -0.45593999997E+02  0.45594000000E+02  0.51100000000E-03 0. -1.
    9900012    2    1    2    0    0  0.64809952180E-01 -0.56294705167E+01  0.40267495429E+02  0.50528851869E+02  0.29999975742E+02 0.  0.
         12    1    1    2    0    0 -0.64809952180E-01  0.56294705167E+01 -0.40267495429E+02  0.40659148131E+02  0.00000000000E+00 0. -1.
         11    1    3    3    0    0 -0.43443198591E+00 -0.44047053773E+00  0.19810746245E+02  0.19820403944E+02  0.51100000000E-03 0. -1.
        -11    1    3    3    0    0  0.17058773970E+01 -0.10837774548E+02  0.22125293297E+02  0.24696072129E+02  0.51100000000E-03 0.  1.
         12    1    3    3    0    0 -0.12066354589E+01  0.56487745691E+01 -0.16685441136E+01  0.60123757968E+01  0.00000000000E+00 0. -1.
</event>
<event>
 7    1  0.2755991E-011  0.5052885E+02  0.7816164E-02  0.1300439E+00
        -11   -1    0    0    0    0  0.00000000000E+00  0.00000000000E+00  0.45593999997E+02  0.45594000000E+02  0.51100000000E-03 0.  1.
         11   -1    0    0    0    0 -0.00000000000E+00 -0.00000000000E+00 -0.45593999997E+02  0.45594000000E+02  0.51100000000E-03 0. -1.
    9900012    2    1    2    0    0 -0.30555176842E+02 -0.69977697988E+01  0.25895540976E+02  0.50528847815E+02  0.29999963418E+02 0.  0.
         12    1    1    2    0    0  0.30555176842E+02  0.69977697988E+01 -0.25895540976E+02  0.40659152185E+02  0.00000000000E+00 0. -1.
         11    1    3    3    0    0 -0.31025418586E+01 -0.49015354017E+01  0.20593319300E+02  0.21394756725E+02  0.51100000000E-03 0. -1.
        -11    1    3    3    0    0 -0.82108701156E+00 -0.27510189211E+00  0.20719258693E+01  0.22456050411E+01  0.51100000000E-03 0.  1.
        -12    1    3    3    0    0 -0.26631547972E+02 -0.18211325050E+01  0.32302958065E+01  0.26888486048E+02  0.00000000000E+00 0.  1.
</event>
<event>
 7    1  0.2755991E-011  0.5052885E+02  0.7816164E-02  0.1300439E+00
        -11   -1    0    0    0    0  0.00000000000E+00  0.00000000000E+00  0.45593999997E+02  0.45594000000E+02  0.51100000000E-03 0. -1.
         11   -1    0    0    0    0 -0.00000000000E+00 -0.00000000000E+00 -0.45593999997E+02  0.45594000000E+02  0.51100000000E-03 0.  1.
    9900012    2    1    2    0    0  0.30344526097E+02  0.34040703872E+01 -0.26847498367E+02  0.50528854315E+02  0.29999983177E+02 0.  0.
         12    1    1    2    0    0 -0.30344526097E+02 -0.34040703872E+01  0.26847498367E+02  0.40659145685E+02  0.00000000000E+00 0. -1.
         11    1    3    3    0    0  0.68455442839E+01 -0.45019186623E+01 -0.70452012958E+01  0.10805721158E+02  0.51100000000E-03 0. -1.
        -11    1    3    3    0    0  0.15483497554E+02 -0.42724435657E+01 -0.19334743199E+02  0.25136124708E+02  0.51100000000E-03 0.  1.
         12    1    3    3    0    0  0.80154842588E+01  0.12178432615E+02 -0.46755387226E+00  0.14587008449E+02  0.00000000000E+00 0. -1.
</event>
<event>
 7    1  0.2755991E-011  0.5052886E+02  0.7816164E-02  0.1300439E+00
        -11   -1    0    0    0    0  0.00000000000E+00  0.00000000000E+00  0.45593999997E+02  0.45594000000E+02  0.51100000000E-03 0.  1.
         11   -1    0    0    0    0 -0.00000000000E+00 -0.00000000000E+00 -0.45593999997E+02  0.45594000000E+02  0.51100000000E-03 0. -1.
    9900012    2    1    2    0    0 -0.17349417948E+02  0.35692703022E+02 -0.88427413128E+01  0.50528862945E+02  0.30000009406E+02 0.  0.
         12    1    1    2    0    0  0.17349417948E+02 -0.35692703022E+02  0.88427413128E+01  0.40659137055E+02  0.00000000000E+00 0. -1.
         11    1    3    3    0    0 -0.29635244966E+01  0.63453194070E+01 -0.28144657794E+01  0.75476336493E+01  0.51100000000E-03 0. -1.
        -11    1    3    3    0    0 -0.21687058530E+02  0.17151414062E+02 -0.76137033113E+01  0.28678702732E+02  0.51100000000E-03 0.  1.
         12    1    3    3    0    0  0.73011650789E+01  0.12195969553E+02  0.15854277779E+01  0.14302526563E+02  0.00000000000E+00 0. -1.
</event>
<event>
 7    1  0.2755991E-011  0.5052887E+02  0.7816164E-02  0.1300439E+00
        -11   -1    0    0    0    0  0.00000000000E+00  0.00000000000E+00  0.45593999997E+02  0.45594000000E+02  0.51100000000E-03 0.  1.
         11   -1    0    0    0    0 -0.00000000000E+00 -0.00000000000E+00 -0.45593999997E+02  0.45594000000E+02  0.51100000000E-03 0. -1.
    9900012    2    1    2    0    0 -0.49077496337E+01  0.24498361141E+02  0.32076613749E+02  0.50528869972E+02  0.30000030766E+02 0.  0.
         12    1    1    2    0    0  0.49077496337E+01 -0.24498361141E+02 -0.32076613749E+02  0.40659130028E+02  0.00000000000E+00 0. -1.
         11    1    3    3    0    0  0.30722523922E+01  0.39542211888E+01  0.11852447520E+02  0.12866822158E+02  0.51100000000E-03 0. -1.
        -11    1    3    3    0    0  0.19020029970E+01  0.61980198208E+01  0.19139840181E+02  0.20208081243E+02  0.51100000000E-03 0.  1.
         12    1    3    3    0    0 -0.98820050228E+01  0.14346120131E+02  0.10843260482E+01  0.17453966571E+02  0.00000000000E+00 0. -1.
</event>
<event>
 7    1  0.2755991E-011  0.5052887E+02  0.7816164E-02  0.1300439E+00
        -11   -1    0    0    0    0  0.00000000000E+00  0.00000000000E+00  0.45593999997E+02  0.45594000000E+02  0.51100000000E-03 0.  1.
         11   -1    0    0    0    0 -0.00000000000E+00 -0.00000000000E+00 -0.45593999997E+02  0.45594000000E+02  0.51100000000E-03 0. -1.
    9900012    2    1    2    0    0  0.16669160034E+02  0.24532599295E+02  0.27811073868E+02  0.50528866289E+02  0.30000019573E+02 0.  0.
         12    1    1    2    0    0 -0.16669160034E+02 -0.24532599295E+02 -0.27811073868E+02  0.40659133711E+02  0.00000000000E+00 0. -1.
         11    1    3    3    0    0  0.85736535797E+01 -0.14208379982E-01  0.58058634683E+01  0.10354505708E+02  0.51100000000E-03 0. -1.
        -11    1    3    3    0    0  0.32445723917E+01 -0.36978317120E+01  0.25993375473E+01  0.55639702839E+01  0.51100000000E-03 0.  1.
        -12    1    3    3    0    0  0.48509340627E+01  0.28244639387E+02  0.19405872852E+02  0.34610390297E+02  0.00000000000E+00 0.  1.
</event>
<event>
 7    1  0.2755991E-011  0.5052885E+02  0.7816164E-02  0.1300439E+00
        -11   -1    0    0    0    0  0.00000000000E+00  0.00000000000E+00  0.45593999997E+02  0.45594000000E+02  0.51100000000E-03 0.  1.
         11   -1    0    0    0    0 -0.00000000000E+00 -0.00000000000E+00 -0.45593999997E+02  0.45594000000E+02  0.51100000000E-03 0. -1.
    9900012    2    1    2    0    0 -0.18657635260E+02 -0.26159095052E+02  0.24915078378E+02  0.50528846811E+02  0.29999960367E+02 0.  0.
         12    1    1    2    0    0  0.18657635260E+02  0.26159095052E+02 -0.24915078378E+02  0.40659153189E+02  0.00000000000E+00 0. -1.
         11    1    3    3    0    0 -0.16184274154E+02 -0.87170027334E+01  0.98884904755E+01  0.20873406782E+02  0.51100000000E-03 0. -1.
        -11    1    3    3    0    0 -0.64411532875E+01 -0.57956908345E+01 -0.17609361068E+01  0.88419106621E+01  0.51100000000E-03 0.  1.
         12    1    3    3    0    0  0.39677921820E+01 -0.11646401484E+02  0.16787524009E+02  0.20813529367E+02  0.00000000000E+00 0. -1.
</event>
<event>
 7    1  0.2755991E-011  0.5052886E+02  0.7816164E-02  0.1300439E+00
        -11   -1    0    0    0    0  0.00000000000E+00  0.00000000000E+00  0.45593999997E+02  0.45594000000E+02  0.51100000000E-03 0.  1.
         11   -1    0    0    0    0 -0.00000000000E+00 -0.00000000000E+00 -0.45593999997E+02  0.45594000000E+02  0.51100000000E-03 0. -1.
    9900012    2    1    2    0    0 -0.66497505812E+01 -0.38890692108E+02  0.98214245637E+01  0.50528862086E+02  0.30000006797E+02 0.  0.
         12    1    1    2    0    0  0.66497505812E+01  0.38890692108E+02 -0.98214245637E+01  0.40659137914E+02  0.00000000000E+00 0. -1.
         11    1    3    3    0    0 -0.64021451170E+01 -0.18706966827E+02  0.96400564394E+01  0.21997017034E+02  0.51100000000E-03 0.  1.
        -11    1    3    3    0    0 -0.78707606689E+01 -0.90241036590E+01 -0.63142380416E+01  0.13537094321E+02  0.51100000000E-03 0. -1.
        -12    1    3    3    0    0  0.76231552048E+01 -0.11159621622E+02  0.64956061659E+01  0.14994750731E+02  0.00000000000E+00 0.  1.
</event>
<event>
 7    1  0.2755991E-011  0.5052886E+02  0.7816164E-02  0.1300439E+00
        -11   -1    0    0    0    0  0.00000000000E+00  0.00000000000E+00  0.45593999997E+02  0.45594000000E+02  0.51100000000E-03 0.  1.
         11   -1    0    0    0    0 -0.00000000000E+00 -0.00000000000E+00 -0.45593999997E+02  0.45594000000E+02  0.51100000000E-03 0. -1.
    9900012    2    1    2    0    0 -0.18187632086E+02 -0.14057539624E+02  0.33537461865E+02  0.50528859213E+02  0.29999998062E+02 0.  0.
         12    1    1    2    0    0  0.18187632086E+02  0.14057539624E+02 -0.33537461865E+02  0.40659140787E+02  0.00000000000E+00 0. -1.
         11    1    3    3    0    0 -0.57995304721E+01 -0.63136556905E+01 -0.36283805757E+01  0.93092399119E+01  0.51100000000E-03 0. -1.
        -11    1    3    3    0    0 -0.24367169061E+01 -0.34939183859E+01  0.25790652157E+01  0.49796217342E+01  0.51100000000E-03 0.  1.
        -12    1    3    3    0    0 -0.99513847082E+01 -0.42499655481E+01  0.34586777225E+02  0.36239997566E+02  0.00000000000E+00 0.  1.
</event>
<event>
 7    1  0.2755991E-011  0.5052887E+02  0.7816164E-02  0.1300439E+00
        -11   -1    0    0    0    0  0.00000000000E+00  0.00000000000E+00  0.45593999997E+02  0.45594000000E+02  0.51100000000E-03 0.  1.
         11   -1    0    0    0    0 -0.00000000000E+00 -0.00000000000E+00 -0.45593999997E+02  0.45594000000E+02  0.51100000000E-03 0. -1.
    9900012    2    1    2    0    0 -0.99014275481E+01  0.77929001701E+01  0.38657437881E+02  0.50528867397E+02  0.30000022939E+02 0.  0.
         12    1    1    2    0    0  0.99014275481E+01 -0.77929001701E+01 -0.38657437881E+02  0.40659132603E+02  0.00000000000E+00 0. -1.
         11    1    3    3    0    0 -0.36609591852E+01 -0.41364630076E+01  0.49537767168E+01  0.74197609388E+01  0.51100000000E-03 0. -1.
        -11    1    3    3    0    0 -0.37293414614E+01  0.23361186417E+01 -0.28442560041E+01  0.52397738999E+01  0.51100000000E-03 0.  1.
        -12    1    3    3    0    0 -0.25111269015E+01  0.95932445360E+01  0.36547917168E+02  0.37869332558E+02  0.00000000000E+00 0.  1.
</event>
<event>
 7    1  0.2755991E-011  0.5052886E+02  0.7816164E-02  0.1300439E+00
        -11   -1    0    0    0    0  0.00000000000E+00  0.00000000000E+00  0.45593999997E+02  0.45594000000E+02  0.51100000000E-03 0.  1.
         11   -1    0    0    0    0 -0.00000000000E+00 -0.00000000000E+00 -0.45593999997E+02  0.45594000000E+02  0.51100000000E-03 0. -1.
    9900012    2    1    2    0    0  0.71855175401E+01  0.75406613343E+01  0.39302321524E+02  0.50528859418E+02  0.29999998687E+02 0.  0.
         12    1    1    2    0    0 -0.71855175401E+01 -0.75406613343E+01 -0.39302321524E+02  0.40659140582E+02  0.00000000000E+00 0. -1.
         11    1    3    3    0    0  0.42339452103E+01  0.21263923848E+01  0.31973781251E+01  0.57158607185E+01  0.51100000000E-03 0. -1.
        -11    1    3    3    0    0 -0.33121264954E+01  0.13178174092E+02  0.10012129028E+02  0.16878305076E+02  0.51100000000E-03 0.  1.
        -12    1    3    3    0    0  0.62636988252E+01 -0.77639051421E+01  0.26092814371E+02  0.27934693623E+02  0.00000000000E+00 0.  1.
</event>
<event>
 7    1  0.2755991E-011  0.5052879E+02  0.7816164E-02  0.1300439E+00
        -11   -1    0    0    0    0  0.00000000000E+00  0.00000000000E+00  0.45593999997E+02  0.45594000000E+02  0.51100000000E-03 0.  1.
         11   -1    0    0    0    0 -0.00000000000E+00 -0.00000000000E+00 -0.45593999997E+02  0.45594000000E+02  0.51100000000E-03 0. -1.
    9900012    2    1    2    0    0  0.36303503733E+02  0.27881997421E+00  0.18307074308E+02  0.50528793250E+02  0.29999797561E+02 0.  0.
         12    1    1    2    0    0 -0.36303503733E+02 -0.27881997421E+00 -0.18307074308E+02  0.40659206750E+02  0.00000000000E+00 0. -1.
         11    1    3    3    0    0  0.12091795832E+02 -0.14751961746E+01  0.35584214604E+01  0.12690551357E+02  0.51100000000E-03 0. -1.
        -11    1    3    3    0    0  0.28977936915E+02  0.21292440626E+01  0.15604710475E+02  0.32981229471E+02  0.51100000000E-03 0.  1.
         12    1    3    3    0    0 -0.47662290144E+01 -0.37522791382E+00 -0.85605762749E+00  0.48570124219E+01  0.00000000000E+00 0. -1.
</event>
<event>
 7    1  0.2755991E-011  0.5052887E+02  0.7816164E-02  0.1300439E+00
        -11   -1    0    0    0    0  0.00000000000E+00  0.00000000000E+00  0.45593999997E+02  0.45594000000E+02  0.51100000000E-03 0.  1.
         11   -1    0    0    0    0 -0.00000000000E+00 -0.00000000000E+00 -0.45593999997E+02  0.45594000000E+02  0.51100000000E-03 0. -1.
    9900012    2    1    2    0    0 -0.21820621708E+02  0.77616296692E+01  0.33418297597E+02  0.50528867679E+02  0.30000023796E+02 0.  0.
         12    1    1    2    0    0  0.21820621708E+02 -0.77616296692E+01 -0.33418297597E+02  0.40659132321E+02  0.00000000000E+00 0. -1.
         11    1    3    3    0    0  0.11654297101E+01 -0.91347411389E+00  0.20541179483E+00  0.14949433542E+01  0.51100000000E-03 0. -1.
        -11    1    3    3    0    0 -0.99452523081E+00 -0.81004163096E+01  0.10126145721E+02  0.13005562358E+02  0.51100000000E-03 0.  1.
        -12    1    3    3    0    0 -0.21991526187E+02  0.16775520093E+02  0.23086740081E+02  0.36028361966E+02  0.00000000000E+00 0.  1.
</event>
<event>
 7    1  0.2755991E-011  0.5052886E+02  0.7816164E-02  0.1300439E+00
        -11   -1    0    0    0    0  0.00000000000E+00  0.00000000000E+00  0.45593999997E+02  0.45594000000E+02  0.51100000000E-03 0.  1.
         11   -1    0    0    0    0 -0.00000000000E+00 -0.00000000000E+00 -0.45593999997E+02  0.45594000000E+02  0.51100000000E-03 0. -1.
    9900012    2    1    2    0    0 -0.17927634852E+02 -0.12319472164E+02  0.34351071821E+02  0.50528860548E+02  0.30000002121E+02 0.  0.
         12    1    1    2    0    0  0.17927634852E+02  0.12319472164E+02 -0.34351071821E+02  0.40659139452E+02  0.00000000000E+00 0. -1.
         11    1    3    3    0    0 -0.18929557166E+00  0.48512641148E+00  0.51280560454E+01  0.51544291162E+01  0.51100000000E-03 0. -1.
        -11    1    3    3    0    0 -0.76597081204E+01 -0.10536758104E+02  0.32106820914E+02  0.34648843405E+02  0.51100000000E-03 0.  1.
         12    1    3    3    0    0 -0.10078631159E+02 -0.22678404706E+01 -0.28838051382E+01  0.10725588027E+02  0.00000000000E+00 0. -1.
</event>
<event>
 7    1  0.2755991E-011  0.5052886E+02  0.7816164E-02  0.1300439E+00
        -11   -1    0    0    0    0  0.00000000000E+00  0.00000000000E+00  0.45593999997E+02  0.45594000000E+02  0.51100000000E-03 0.  1.
         11   -1    0    0    0    0 -0.00000000000E+00 -0.00000000000E+00 -0.45593999997E+02  0.45594000000E+02  0.51100000000E-03 0. -1.
    9900012    2    1    2    0    0 -0.92488711089E+01  0.20983418254E+02  0.33575594916E+02  0.50528855489E+02  0.29999986743E+02 0.  0.
         12    1    1    2    0    0  0.92488711089E+01 -0.20983418254E+02 -0.33575594916E+02  0.40659144511E+02  0.00000000000E+00 0. -1.
         11    1    3    3    0    0 -0.33649951862E+01  0.14803123584E+02  0.12957499039E+01  0.15235964968E+02  0.51100000000E-03 0.  1.
        -11    1    3    3    0    0 -0.72033239241E+01 -0.26581503514E+00  0.12288780738E+02  0.14246847563E+02  0.51100000000E-03 0. -1.
        -12    1    3    3    0    0  0.13194480014E+01  0.64461097057E+01  0.19991064274E+02  0.21046042958E+02  0.00000000000E+00 0.  1.
</event>
<event>
 7    1  0.2755991E-011  0.5052887E+02  0.7816164E-02  0.1300439E+00
        -11   -1    0    0    0    0  0.00000000000E+00  0.00000000000E+00  0.45593999997E+02  0.45594000000E+02  0.51100000000E-03 0.  1.
         11   -1    0    0    0    0 -0.00000000000E+00 -0.00000000000E+00 -0.45593999997E+02  0.45594000000E+02  0.51100000000E-03 0. -1.
    9900012    2    1    2    0    0  0.95680045999E+01 -0.21036121066E+02  0.33452943478E+02  0.50528873978E+02  0.30000042942E+02 0.  0.
         12    1    1    2    0    0 -0.95680045999E+01  0.21036121066E+02 -0.33452943478E+02  0.40659126022E+02  0.00000000000E+00 0. -1.
         11    1    3    3    0    0 -0.21597480077E+01  0.94814607224E+00  0.10629086716E+02  0.10887652506E+02  0.51100000000E-03 0. -1.
        -11    1    3    3    0    0 -0.14694985491E+01 -0.11646030207E+02  0.19177523300E+02  0.22484813669E+02  0.51100000000E-03 0.  1.
         12    1    3    3    0    0  0.13197251157E+02 -0.10338236931E+02  0.36463334629E+01  0.17156407802E+02  0.00000000000E+00 0. -1.
</event>
<event>
 7    1  0.2755991E-011  0.5052886E+02  0.7816164E-02  0.1300439E+00
        -11   -1    0    0    0    0  0.00000000000E+00  0.00000000000E+00  0.45593999997E+02  0.45594000000E+02  0.51100000000E-03 0.  1.
         11   -1    0    0    0    0 -0.00000000000E+00 -0.00000000000E+00 -0.45593999997E+02  0.45594000000E+02  0.51100000000E-03 0. -1.
    9900012    2    1    2    0    0 -0.96896559806E+01 -0.20871101996E+02  0.33521237882E+02  0.50528859322E+02  0.29999998395E+02 0.  0.
         12    1    1    2    0    0  0.96896559806E+01  0.20871101996E+02 -0.33521237882E+02  0.40659140678E+02  0.00000000000E+00 0. -1.
         11    1    3    3    0    0 -0.10431531649E+02 -0.34264888489E+01  0.86553623193E+01  0.13981165027E+02  0.51100000000E-03 0. -1.
        -11    1    3    3    0    0 -0.41829574353E+01 -0.15228138495E+02  0.59498917149E+01  0.16875856915E+02  0.51100000000E-03 0.  1.
         12    1    3    3    0    0  0.49248331031E+01 -0.22164746514E+01  0.18915983848E+02  0.19671837380E+02  0.00000000000E+00 0. -1.
</event>
<event>
 7    1  0.2755991E-011  0.5052890E+02  0.7816164E-02  0.1300439E+00
        -11   -1    0    0    0    0  0.00000000000E+00  0.00000000000E+00  0.45593999997E+02  0.45594000000E+02  0.51100000000E-03 0.  1.
         11   -1    0    0    0    0 -0.00000000000E+00 -0.00000000000E+00 -0.45593999997E+02  0.45594000000E+02  0.51100000000E-03 0. -1.
    9900012    2    1    2    0    0 -0.36482240541E+02  0.17612069355E+02 -0.34674816008E+01  0.50528901504E+02  0.30000126612E+02 0.  0.
         12    1    1    2    0    0  0.36482240541E+02 -0.17612069355E+02  0.34674816008E+01  0.40659098496E+02  0.00000000000E+00 0. -1.
         11    1    3    3    0    0 -0.91211307810E+01 -0.57703473927E+01  0.16712968464E+01  0.10921775001E+02  0.51100000000E-03 0. -1.
        -11    1    3    3    0    0 -0.46820186231E+01  0.10284467984E+00 -0.53444957183E+01  0.71060192907E+01  0.51100000000E-03 0.  1.
        -12    1    3    3    0    0 -0.22679091137E+02  0.23279572068E+02  0.20571727115E+00  0.32501107213E+02  0.00000000000E+00 0.  1.
</event>
<event>
 7    1  0.2755991E-011  0.5052886E+02  0.7816164E-02  0.1300439E+00
        -11   -1    0    0    0    0  0.00000000000E+00  0.00000000000E+00  0.45593999997E+02  0.45594000000E+02  0.51100000000E-03 0.  1.
         11   -1    0    0    0    0 -0.00000000000E+00 -0.00000000000E+00 -0.45593999997E+02  0.45594000000E+02  0.51100000000E-03 0. -1.
    9900012    2    1    2    0    0  0.97175472346E+01  0.50247522005E+01  0.39159757109E+02  0.50528862825E+02  0.30000009043E+02 0.  0.
         12    1    1    2    0    0 -0.97175472346E+01 -0.50247522005E+01 -0.39159757109E+02  0.40659137175E+02  0.00000000000E+00 0. -1.
         11    1    3    3    0    0  0.11744171728E+01  0.33756923724E+01  0.54925151385E+01  0.65530357466E+01  0.51100000000E-03 0. -1.
        -11    1    3    3    0    0  0.82327322416E+01  0.59815073930E+00  0.38318369204E+02  0.39197360666E+02  0.51100000000E-03 0.  1.
         12    1    3    3    0    0  0.31039782020E+00  0.10509090888E+01 -0.46511272329E+01  0.47784664126E+01  0.00000000000E+00 0. -1.
</event>
<event>
 7    1  0.2755991E-011  0.5052887E+02  0.7816164E-02  0.1300439E+00
        -11   -1    0    0    0    0  0.00000000000E+00  0.00000000000E+00  0.45593999997E+02  0.45594000000E+02  0.51100000000E-03 0.  1.
         11   -1    0    0    0    0 -0.00000000000E+00 -0.00000000000E+00 -0.45593999997E+02  0.45594000000E+02  0.51100000000E-03 0. -1.
    9900012    2    1    2    0    0  0.22995061699E+02 -0.32023818486E+02  0.99432074477E+01  0.50528865881E+02  0.30000018331E+02 0.  0.
         12    1    1    2    0    0 -0.22995061699E+02  0.32023818486E+02 -0.99432074477E+01  0.40659134119E+02  0.00000000000E+00 0. -1.
         11    1    3    3    0    0  0.93701194141E+01 -0.12211218446E+02  0.76150593083E+01  0.17172714471E+02  0.51100000000E-03 0. -1.
        -11    1    3    3    0    0  0.48591183491E+01 -0.15021767212E+02  0.11706070519E+02  0.19654429744E+02  0.51100000000E-03 0.  1.
         12    1    3    3    0    0  0.87658239357E+01 -0.47908328278E+01 -0.93779223794E+01  0.13701721666E+02  0.00000000000E+00 0. -1.
</event>
<event>
 7    1  0.2755991E-011  0.5052887E+02  0.7816164E-02  0.1300439E+00
        -11   -1    0    0    0    0  0.00000000000E+00  0.00000000000E+00  0.45593999997E+02  0.45594000000E+02  0.51100000000E-03 0. -1.
         11   -1    0    0    0    0 -0.00000000000E+00 -0.00000000000E+00 -0.45593999997E+02  0.45594000000E+02  0.51100000000E-03 0.  1.
    9900012    2    1    2    0    0  0.27557659178E+02  0.28229577291E+02 -0.98403062619E+01  0.50528865224E+02  0.30000016335E+02 0.  0.
         12    1    1    2    0    0 -0.27557659178E+02 -0.28229577291E+02  0.98403062619E+01  0.40659134776E+02  0.00000000000E+00 0. -1.
         11    1    3    3    0    0  0.10983566468E+02  0.31857328144E+01  0.12674228504E+01  0.11506258595E+02  0.51100000000E-03 0. -1.
        -11    1    3    3    0    0  0.14169062477E+02  0.37941780688E+01 -0.97113858003E+01  0.17591734796E+02  0.51100000000E-03 0.  1.
         12    1    3    3    0    0  0.24050302324E+01  0.21249666408E+02 -0.13963433120E+01  0.21430871833E+02  0.00000000000E+00 0. -1.
</event>
<event>
 7    1  0.2755991E-011  0.5052886E+02  0.7816164E-02  0.1300439E+00
        -11   -1    0    0    0    0  0.00000000000E+00  0.00000000000E+00  0.45593999997E+02  0.45594000000E+02  0.51100000000E-03 0. -1.
         11   -1    0    0    0    0 -0.00000000000E+00 -0.00000000000E+00 -0.45593999997E+02  0.45594000000E+02  0.51100000000E-03 0.  1.
    9900012    2    1    2    0    0  0.39602503323E+02  0.58905152104E+00  0.91902129250E+01  0.50528864929E+02  0.30000015437E+02 0.  0.
         12    1    1    2    0    0 -0.39602503323E+02 -0.58905152104E+00 -0.91902129250E+01  0.40659135071E+02  0.00000000000E+00 0. -1.
         11    1    3    3    0    0  0.12228440265E+02 -0.47221574348E+01  0.33787989542E+01  0.13536979160E+02  0.51100000000E-03 0. -1.
        -11    1    3    3    0    0  0.69683467980E+01 -0.87223705633E+01 -0.12638982690E+01  0.11235436994E+02  0.51100000000E-03 0.  1.
         12    1    3    3    0    0  0.20405716260E+02  0.14033579519E+02  0.70753122398E+01  0.25756448775E+02  0.00000000000E+00 0. -1.
</event>
<event>
 7    1  0.2755991E-011  0.5052886E+02  0.7816164E-02  0.1300439E+00
        -11   -1    0    0    0    0  0.00000000000E+00  0.00000000000E+00  0.45593999997E+02  0.45594000000E+02  0.51100000000E-03 0. -1.
         11   -1    0    0    0    0 -0.00000000000E+00 -0.00000000000E+00 -0.45593999997E+02  0.45594000000E+02  0.51100000000E-03 0.  1.
    9900012    2    1    2    0    0 -0.21317992197E+02  0.31830793676E+02 -0.13620198790E+02  0.50528855488E+02  0.29999986742E+02 0.  0.
         12    1    1    2    0    0  0.21317992197E+02 -0.31830793676E+02  0.13620198790E+02  0.40659144512E+02  0.00000000000E+00 0. -1.
         11    1    3    3    0    0  0.24917588284E+01  0.30957805851E+01  0.58126536964E+01  0.70412827486E+01  0.51100000000E-03 0. -1.
        -11    1    3    3    0    0 -0.18132623271E+01  0.94698495281E+01 -0.54563453432E+01  0.11078703675E+02  0.51100000000E-03 0.  1.
         12    1    3    3    0    0 -0.21996488698E+02  0.19265163563E+02 -0.13976507143E+02  0.32408869065E+02  0.00000000000E+00 0. -1.
</event>
<event>
 7    1  0.2755991E-011  0.5052888E+02  0.7816164E-02  0.1300439E+00
        -11   -1    0    0    0    0  0.00000000000E+00  0.00000000000E+00  0.45593999997E+02  0.45594000000E+02  0.51100000000E-03 0. -1.
         11   -1    0    0    0    0 -0.00000000000E+00 -0.00000000000E+00 -0.45593999997E+02  0.45594000000E+02  0.51100000000E-03 0.  1.
    9900012    2    1    2    0    0 -0.15640556369E+02 -0.70989345913E+01 -0.36852976795E+02  0.50528883255E+02  0.30000071141E+02 0.  0.
         12    1    1    2    0    0  0.15640556369E+02  0.70989345913E+01  0.36852976795E+02  0.40659116745E+02  0.00000000000E+00 0. -1.
         11    1    3    3    0    0 -0.12485053841E+02 -0.40474986701E+00 -0.32566407631E+01  0.12909147965E+02  0.51100000000E-03 0. -1.
        -11    1    3    3    0    0 -0.49391422224E+01  0.36521976056E+01 -0.15871963925E+02  0.17019192470E+02  0.51100000000E-03 0.  1.
        -12    1    3    3    0    0  0.17836396940E+01 -0.10346382330E+02 -0.17724372107E+02  0.20600542819E+02  0.00000000000E+00 0.  1.
</event>
<event>
 7    1  0.2755991E-011  0.5052885E+02  0.7816164E-02  0.1300439E+00
        -11   -1    0    0    0    0  0.00000000000E+00  0.00000000000E+00  0.45593999997E+02  0.45594000000E+02  0.51100000000E-03 0. -1.
         11   -1    0    0    0    0 -0.00000000000E+00 -0.00000000000E+00 -0.45593999997E+02  0.45594000000E+02  0.51100000000E-03 0.  1.
    9900012    2    1    2    0    0 -0.36261733164E+02  0.17648160814E+02 -0.51764083303E+01  0.50528854960E+02  0.29999985137E+02 0.  0.
         12    1    1    2    0    0  0.36261733164E+02 -0.17648160814E+02  0.51764083303E+01  0.40659145040E+02  0.00000000000E+00 0. -1.
         11    1    3    3    0    0 -0.34137645550E+01  0.80327114385E+01  0.76168197188E+00  0.87611872014E+01  0.51100000000E-03 0. -1.
        -11    1    3    3    0    0 -0.17453394053E+02  0.16814459536E+02 -0.19651213613E+01  0.24314783891E+02  0.51100000000E-03 0.  1.
         12    1    3    3    0    0 -0.15394574557E+02 -0.71990101612E+01 -0.39729689408E+01  0.17452883867E+02  0.00000000000E+00 0. -1.
</event>
<event>
 7    1  0.2755991E-011  0.5052886E+02  0.7816164E-02  0.1300439E+00
        -11   -1    0    0    0    0  0.00000000000E+00  0.00000000000E+00  0.45593999997E+02  0.45594000000E+02  0.51100000000E-03 0.  1.
         11   -1    0    0    0    0 -0.00000000000E+00 -0.00000000000E+00 -0.45593999997E+02  0.45594000000E+02  0.51100000000E-03 0. -1.
    9900012    2    1    2    0    0  0.15113959473E+02  0.25490190815E+02  0.27838531819E+02  0.50528862619E+02  0.30000008417E+02 0.  0.
         12    1    1    2    0    0 -0.15113959473E+02 -0.25490190815E+02 -0.27838531819E+02  0.40659137381E+02  0.00000000000E+00 0. -1.
         11    1    3    3    0    0  0.10165113146E+02  0.79568591953E+01  0.32705886440E+01  0.13316827094E+02  0.51100000000E-03 0. -1.
        -11    1    3    3    0    0  0.31812103461E+01  0.10829761517E+01 -0.33593917671E+01  0.47516786420E+01  0.51100000000E-03 0.  1.
        -12    1    3    3    0    0  0.17676359813E+01  0.16450355468E+02  0.27927334942E+02  0.32460356882E+02  0.00000000000E+00 0.  1.
</event>
<event>
 7    1  0.2755991E-011  0.5052886E+02  0.7816164E-02  0.1300439E+00
        -11   -1    0    0    0    0  0.00000000000E+00  0.00000000000E+00  0.45593999997E+02  0.45594000000E+02  0.51100000000E-03 0.  1.
         11   -1    0    0    0    0 -0.00000000000E+00 -0.00000000000E+00 -0.45593999997E+02  0.45594000000E+02  0.51100000000E-03 0. -1.
    9900012    2    1    2    0    0 -0.39527736233E+01  0.31651423173E+02  0.25213663759E+02  0.50528857752E+02  0.29999993624E+02 0.  0.
         12    1    1    2    0    0  0.39527736233E+01 -0.31651423173E+02 -0.25213663759E+02  0.40659142248E+02  0.00000000000E+00 0. -1.
         11    1    3    3    0    0 -0.41014547844E+01  0.12005292579E+02 -0.28608574600E+01  0.13005133099E+02  0.51100000000E-03 0. -1.
        -11    1    3    3    0    0 -0.10452141240E+01 -0.18910820792E+01  0.52736182008E-01  0.21613526693E+01  0.51100000000E-03 0.  1.
        -12    1    3    3    0    0  0.11938952851E+01  0.21537212673E+02  0.28021785037E+02  0.35362371984E+02  0.00000000000E+00 0.  1.
</event>
<event>
 7    1  0.2755991E-011  0.5052888E+02  0.7816164E-02  0.1300439E+00
        -11   -1    0    0    0    0  0.00000000000E+00  0.00000000000E+00  0.45593999997E+02  0.45594000000E+02  0.51100000000E-03 0.  1.
         11   -1    0    0    0    0 -0.00000000000E+00 -0.00000000000E+00 -0.45593999997E+02  0.45594000000E+02  0.51100000000E-03 0. -1.
    9900012    2    1    2    0    0  0.37302907227E+02 -0.13373550044E+02 -0.90997611517E+01  0.50528875792E+02  0.30000048456E+02 0.  0.
         12    1    1    2    0    0 -0.37302907227E+02  0.13373550044E+02  0.90997611517E+01  0.40659124208E+02  0.00000000000E+00 0. -1.
         11    1    3    3    0    0  0.10475346524E+02 -0.87382343022E+01  0.74155763776E+00  0.13661607940E+02  0.51100000000E-03 0. -1.
        -11    1    3    3    0    0 -0.71952624636E+00 -0.59308805988E+01  0.27191250201E+01  0.65640463003E+01  0.51100000000E-03 0.  1.
        -12    1    3    3    0    0  0.27547086950E+02  0.12955648567E+01 -0.12560443810E+02  0.30303221551E+02  0.00000000000E+00 0.  1.
</event>
<event>
 7    1  0.2755991E-011  0.5052885E+02  0.7816164E-02  0.1300439E+00
        -11   -1    0    0    0    0  0.00000000000E+00  0.00000000000E+00  0.45593999997E+02  0.45594000000E+02  0.51100000000E-03 0.  1.
         11   -1    0    0    0    0 -0.00000000000E+00 -0.00000000000E+00 -0.45593999997E+02  0.45594000000E+02  0.51100000000E-03 0. -1.
    9900012    2    1    2    0    0 -0.27416169532E+02  0.10298902034E+02  0.28203768313E+02  0.50528852420E+02  0.29999977415E+02 0.  0.
         12    1    1    2    0    0  0.27416169532E+02 -0.10298902034E+02 -0.28203768313E+02  0.40659147580E+02  0.00000000000E+00 0. -1.
         11    1    3    3    0    0  0.34124300565E+01 -0.30407133153E+00 -0.31064693752E+01  0.46246395000E+01  0.51100000000E-03 0. -1.
        -11    1    3    3    0    0 -0.80925924438E+01 -0.67238699825E+00  0.88943472757E+01  0.12043735735E+02  0.51100000000E-03 0.  1.
         12    1    3    3    0    0 -0.22736007145E+02  0.11275360364E+02  0.22415890412E+02  0.33860477185E+02  0.00000000000E+00 0. -1.
</event>
<event>
 7    1  0.2755991E-011  0.5052884E+02  0.7816164E-02  0.1300439E+00
        -11   -1    0    0    0    0  0.00000000000E+00  0.00000000000E+00  0.45593999997E+02  0.45594000000E+02  0.51100000000E-03 0.  1.
         11   -1    0    0    0    0 -0.00000000000E+00 -0.00000000000E+00 -0.45593999997E+02  0.45594000000E+02  0.51100000000E-03 0. -1.
    9900012    2    1    2    0    0  0.24595900059E+02  0.30774093286E+01  0.32229468813E+02  0.50528838574E+02  0.29999935330E+02 0.  0.
         12    1    1    2    0    0 -0.24595900059E+02 -0.30774093286E+01 -0.32229468813E+02  0.40659161426E+02  0.00000000000E+00 0. -1.
         11    1    3    3    0    0  0.81624511726E+01 -0.36475352411E+01 -0.77391276758E+00  0.89737987337E+01  0.51100000000E-03 0. -1.
        -11    1    3    3    0    0  0.62742070856E+01 -0.45082503906E+00  0.49873682157E-02  0.62903849568E+01  0.51100000000E-03 0.  1.
        -12    1    3    3    0    0  0.10159241801E+02  0.71757696088E+01  0.32998394213E+02  0.35264654884E+02  0.00000000000E+00 0.  1.
</event>
<event>
 7    1  0.2755991E-011  0.5052885E+02  0.7816164E-02  0.1300439E+00
        -11   -1    0    0    0    0  0.00000000000E+00  0.00000000000E+00  0.45593999997E+02  0.45594000000E+02  0.51100000000E-03 0.  1.
         11   -1    0    0    0    0 -0.00000000000E+00 -0.00000000000E+00 -0.45593999997E+02  0.45594000000E+02  0.51100000000E-03 0. -1.
    9900012    2    1    2    0    0 -0.19500720091E+02 -0.24903292134E+02  0.25548278908E+02  0.50528848529E+02  0.29999965590E+02 0.  0.
         12    1    1    2    0    0  0.19500720091E+02  0.24903292134E+02 -0.25548278908E+02  0.40659151471E+02  0.00000000000E+00 0. -1.
         11    1    3    3    0    0  0.15960166029E+01  0.10078591938E+01  0.67461442780E+01  0.70052488915E+01  0.51100000000E-03 0. -1.
        -11    1    3    3    0    0 -0.89090278802E+01  0.13679561371E+01  0.69457826579E+01  0.11379190602E+02  0.51100000000E-03 0.  1.
        -12    1    3    3    0    0 -0.12187708813E+02 -0.27279107465E+02  0.11856351972E+02  0.32144409036E+02  0.00000000000E+00 0.  1.
</event>
<event>
 7    1  0.2755991E-011  0.5052886E+02  0.7816164E-02  0.1300439E+00
        -11   -1    0    0    0    0  0.00000000000E+00  0.00000000000E+00  0.45593999997E+02  0.45594000000E+02  0.51100000000E-03 0.  1.
         11   -1    0    0    0    0 -0.00000000000E+00 -0.00000000000E+00 -0.45593999997E+02  0.45594000000E+02  0.51100000000E-03 0. -1.
    9900012    2    1    2    0    0 -0.13490105895E+02 -0.35543280813E+02  0.14417290337E+02  0.50528855535E+02  0.29999986883E+02 0.  0.
         12    1    1    2    0    0  0.13490105895E+02  0.35543280813E+02 -0.14417290337E+02  0.40659144465E+02  0.00000000000E+00 0. -1.
         11    1    3    3    0    0 -0.86651798669E+01 -0.19714588088E+01  0.60923006394E+01  0.10774419674E+02  0.51100000000E-03 0. -1.
        -11    1    3    3    0    0 -0.67251677099E+01 -0.12657119697E+02  0.11677487958E+02  0.18487679276E+02  0.51100000000E-03 0.  1.
         12    1    3    3    0    0  0.19002416821E+01 -0.20914702307E+02 -0.33524982602E+01  0.21266756585E+02  0.00000000000E+00 0. -1.
</event>
<event>
 7    1  0.2755991E-011  0.5052899E+02  0.7816164E-02  0.1300438E+00
        -11   -1    0    0    0    0  0.00000000000E+00  0.00000000000E+00  0.45593999997E+02  0.45594000000E+02  0.51100000000E-03 0. -1.
         11   -1    0    0    0    0 -0.00000000000E+00 -0.00000000000E+00 -0.45593999997E+02  0.45594000000E+02  0.51100000000E-03 0.  1.
    9900012    2    1    2    0    0  0.18186303977E+02 -0.21654096642E+02 -0.29214951187E+02  0.50528992062E+02  0.30000401868E+02 0.  0.
         12    1    1    2    0    0 -0.18186303977E+02  0.21654096642E+02  0.29214951187E+02  0.40659007938E+02  0.00000000000E+00 0. -1.
         11    1    3    3    0    0  0.55640829242E+01 -0.93888366369E+00 -0.16283153113E+02  0.17233154003E+02  0.51100000000E-03 0.  1.
        -11    1    3    3    0    0  0.10811002217E+02 -0.38236464110E+01  0.73742930411E+00  0.11490946133E+02  0.51100000000E-03 0. -1.
         12    1    3    3    0    0  0.18112188359E+01 -0.16891566567E+02 -0.13669227377E+02  0.21804891925E+02  0.00000000000E+00 0. -1.
</event>
<event>
 7    1  0.2755991E-011  0.5052873E+02  0.7816164E-02  0.1300439E+00
        -11   -1    0    0    0    0  0.00000000000E+00  0.00000000000E+00  0.45593999997E+02  0.45594000000E+02  0.51100000000E-03 0. -1.
         11   -1    0    0    0    0 -0.00000000000E+00 -0.00000000000E+00 -0.45593999997E+02  0.45594000000E+02  0.51100000000E-03 0.  1.
    9900012    2    1    2    0    0  0.26903732590E+02 -0.12544726760E+00 -0.30485242386E+02  0.50528725933E+02  0.29999592943E+02 0.  0.
         12    1    1    2    0    0 -0.26903732590E+02  0.12544726760E+00  0.30485242386E+02  0.40659274067E+02  0.00000000000E+00 0. -1.
         11    1    3    3    0    0  0.13109391123E+02 -0.27613844276E+00 -0.19400865463E+02  0.23416361140E+02  0.51100000000E-03 0. -1.
        -11    1    3    3    0    0  0.63471263513E+01  0.78605716307E+01 -0.12746548031E+02  0.16264964994E+02  0.51100000000E-03 0.  1.
         12    1    3    3    0    0  0.74472151161E+01 -0.77098804555E+01  0.16621711074E+01  0.10847399800E+02  0.00000000000E+00 0. -1.
</event>
<event>
 7    1  0.2755991E-011  0.5052885E+02  0.7816164E-02  0.1300439E+00
        -11   -1    0    0    0    0  0.00000000000E+00  0.00000000000E+00  0.45593999997E+02  0.45594000000E+02  0.51100000000E-03 0.  1.
         11   -1    0    0    0    0 -0.00000000000E+00 -0.00000000000E+00 -0.45593999997E+02  0.45594000000E+02  0.51100000000E-03 0. -1.
    9900012    2    1    2    0    0  0.19299090742E+02 -0.29729499187E+02  0.19921551417E+02  0.50528852982E+02  0.29999979124E+02 0.  0.
         12    1    1    2    0    0 -0.19299090742E+02  0.29729499187E+02 -0.19921551417E+02  0.40659147018E+02  0.00000000000E+00 0. -1.
         11    1    3    3    0    0  0.11528359693E+02 -0.26182788021E+02  0.12697429352E+02  0.31299619457E+02  0.51100000000E-03 0. -1.
        -11    1    3    3    0    0  0.21462283013E+01 -0.88362281088E+01  0.70504614384E+01  0.11506269155E+02  0.51100000000E-03 0.  1.
         12    1    3    3    0    0  0.56245027476E+01  0.52895169427E+01  0.17366062647E+00  0.77229643699E+01  0.00000000000E+00 0. -1.
</event>
<event>
 7    1  0.2755991E-011  0.5052885E+02  0.7816164E-02  0.1300439E+00
        -11   -1    0    0    0    0  0.00000000000E+00  0.00000000000E+00  0.45593999997E+02  0.45594000000E+02  0.51100000000E-03 0.  1.
         11   -1    0    0    0    0 -0.00000000000E+00 -0.00000000000E+00 -0.45593999997E+02  0.45594000000E+02  0.51100000000E-03 0. -1.
    9900012    2    1    2    0    0 -0.22225721901E+02  0.19766636938E+02  0.27721173355E+02  0.50528854632E+02  0.29999984140E+02 0.  0.
         12    1    1    2    0    0  0.22225721901E+02 -0.19766636938E+02 -0.27721173355E+02  0.40659145368E+02  0.00000000000E+00 0. -1.
         11    1    3    3    0    0 -0.18922189674E+02  0.77895536205E+01  0.53882151336E+01  0.21160323019E+02  0.51100000000E-03 0. -1.
        -11    1    3    3    0    0 -0.73105343412E+01  0.65498129132E+01  0.19914264136E+02  0.22201844020E+02  0.51100000000E-03 0.  1.
         12    1    3    3    0    0  0.40070021144E+01  0.54272704040E+01  0.24186940859E+01  0.71666875936E+01  0.00000000000E+00 0. -1.
</event>
<event>
 7    1  0.2755991E-011  0.5052887E+02  0.7816164E-02  0.1300439E+00
        -11   -1    0    0    0    0  0.00000000000E+00  0.00000000000E+00  0.45593999997E+02  0.45594000000E+02  0.51100000000E-03 0.  1.
         11   -1    0    0    0    0 -0.00000000000E+00 -0.00000000000E+00 -0.45593999997E+02  0.45594000000E+02  0.51100000000E-03 0. -1.
    9900012    2    1    2    0    0 -0.50720821645E+01  0.28142029126E+02 -0.28904412941E+02  0.50528869312E+02  0.30000028760E+02 0.  0.
         12    1    1    2    0    0  0.50720821645E+01 -0.28142029126E+02  0.28904412941E+02  0.40659130688E+02  0.00000000000E+00 0. -1.
         11    1    3    3    0    0 -0.97328707838E+00  0.84623918511E+00 -0.14586150507E+02  0.14643059631E+02  0.51100000000E-03 0. -1.
        -11    1    3    3    0    0  0.46692639426E+01  0.16081322463E+02 -0.13702493414E+02  0.21637219875E+02  0.51100000000E-03 0.  1.
        -12    1    3    3    0    0 -0.87680590287E+01  0.11214467479E+02 -0.61576902087E+00  0.14248589805E+02  0.00000000000E+00 0.  1.
</event>
<event>
 7    1  0.2755991E-011  0.5052885E+02  0.7816164E-02  0.1300439E+00
        -11   -1    0    0    0    0  0.00000000000E+00  0.00000000000E+00  0.45593999997E+02  0.45594000000E+02  0.51100000000E-03 0. -1.
         11   -1    0    0    0    0 -0.00000000000E+00 -0.00000000000E+00 -0.45593999997E+02  0.45594000000E+02  0.51100000000E-03 0.  1.
    9900012    2    1    2    0    0  0.21410673837E+02 -0.16048180001E+02 -0.30613808511E+02  0.50528852111E+02  0.29999976477E+02 0.  0.
         12    1    1    2    0    0 -0.21410673837E+02  0.16048180001E+02  0.30613808511E+02  0.40659147889E+02  0.00000000000E+00 0. -1.
         11    1    3    3    0    0  0.27041508186E+01 -0.29564514748E+01  0.69955119981E+00  0.40672360535E+01  0.51100000000E-03 0. -1.
        -11    1    3    3    0    0  0.18155069573E+01 -0.98653158670E+01  0.76977023052E+00  0.10060470622E+02  0.51100000000E-03 0.  1.
        -12    1    3    3    0    0  0.16891016061E+02 -0.32264126595E+01 -0.32083129941E+02  0.36401145436E+02  0.00000000000E+00 0.  1.
</event>
<event>
 7    1  0.2755991E-011  0.5052883E+02  0.7816164E-02  0.1300439E+00
        -11   -1    0    0    0    0  0.00000000000E+00  0.00000000000E+00  0.45593999997E+02  0.45594000000E+02  0.51100000000E-03 0.  1.
         11   -1    0    0    0    0 -0.00000000000E+00 -0.00000000000E+00 -0.45593999997E+02  0.45594000000E+02  0.51100000000E-03 0. -1.
    9900012    2    1    2    0    0  0.18932481378E+02 -0.80984405409E+01  0.35059153347E+02  0.50528833460E+02  0.29999919784E+02 0.  0.
         12    1    1    2    0    0 -0.18932481378E+02  0.80984405409E+01 -0.35059153347E+02  0.40659166540E+02  0.00000000000E+00 0. -1.
         11    1    3    3    0    0 -0.19456267046E+01  0.23410979187E+01  0.58816764768E+01  0.66227125241E+01  0.51100000000E-03 0. -1.
        -11    1    3    3    0    0  0.19027948543E+02  0.40353029234E+00  0.26428119114E+02  0.32567946552E+02  0.51100000000E-03 0.  1.
         12    1    3    3    0    0  0.18501595393E+01 -0.10843068752E+02  0.27493577567E+01  0.11338174384E+02  0.00000000000E+00 0. -1.
</event>
<event>
 7    1  0.2755991E-011  0.5052886E+02  0.7816164E-02  0.1300439E+00
        -11   -1    0    0    0    0  0.00000000000E+00  0.00000000000E+00  0.45593999997E+02  0.45594000000E+02  0.51100000000E-03 0.  1.
         11   -1    0    0    0    0 -0.00000000000E+00 -0.00000000000E+00 -0.45593999997E+02  0.45594000000E+02  0.51100000000E-03 0. -1.
    9900012    2    1    2    0    0  0.35476569389E+02  0.19307807344E+02 -0.46676683356E+01  0.50528861695E+02  0.30000005607E+02 0.  0.
         12    1    1    2    0    0 -0.35476569389E+02 -0.19307807344E+02  0.46676683356E+01  0.40659138305E+02  0.00000000000E+00 0. -1.
         11    1    3    3    0    0  0.25274006101E+02  0.22817753535E+01 -0.39110978504E+01  0.25676420502E+02  0.51100000000E-03 0. -1.
        -11    1    3    3    0    0  0.13938753016E+02  0.13341206140E+02  0.99540171776E+00  0.19320130480E+02  0.51100000000E-03 0.  1.
         12    1    3    3    0    0 -0.37361897274E+01  0.36848258503E+01 -0.17519722029E+01  0.55323107131E+01  0.00000000000E+00 0. -1.
</event>
<event>
 7    1  0.2755991E-011  0.5052887E+02  0.7816164E-02  0.1300439E+00
        -11   -1    0    0    0    0  0.00000000000E+00  0.00000000000E+00  0.45593999997E+02  0.45594000000E+02  0.51100000000E-03 0.  1.
         11   -1    0    0    0    0 -0.00000000000E+00 -0.00000000000E+00 -0.45593999997E+02  0.45594000000E+02  0.51100000000E-03 0. -1.
    9900012    2    1    2    0    0 -0.32341270657E+02 -0.24059538563E+02  0.53240758961E+01  0.50528868581E+02  0.30000026539E+02 0.  0.
         12    1    1    2    0    0  0.32341270657E+02  0.24059538563E+02 -0.53240758961E+01  0.40659131419E+02  0.00000000000E+00 0. -1.
         11    1    3    3    0    0 -0.15549901399E+02 -0.32771964413E+00 -0.11854575886E+01  0.15598466067E+02  0.51100000000E-03 0. -1.
        -11    1    3    3    0    0 -0.83764652898E+01  0.76431372011E+00  0.13141558082E+01  0.85133044092E+01  0.51100000000E-03 0.  1.
        -12    1    3    3    0    0 -0.84149039679E+01 -0.24496132639E+02  0.51953776765E+01  0.26417098105E+02  0.00000000000E+00 0.  1.
</event>
<event>
 7    1  0.2755991E-011  0.5052881E+02  0.7816164E-02  0.1300439E+00
        -11   -1    0    0    0    0  0.00000000000E+00  0.00000000000E+00  0.45593999997E+02  0.45594000000E+02  0.51100000000E-03 0. -1.
         11   -1    0    0    0    0 -0.00000000000E+00 -0.00000000000E+00 -0.45593999997E+02  0.45594000000E+02  0.51100000000E-03 0.  1.
    9900012    2    1    2    0    0 -0.12566645769E+02 -0.36481962823E+02  0.12818573577E+02  0.50528806380E+02  0.29999837471E+02 0.  0.
         12    1    1    2    0    0  0.12566645769E+02  0.36481962823E+02 -0.12818573577E+02  0.40659193620E+02  0.00000000000E+00 0. -1.
         11    1    3    3    0    0  0.17452871971E+00 -0.41361043253E+01 -0.32794303794E+01  0.52813334621E+01  0.51100000000E-03 0. -1.
        -11    1    3    3    0    0 -0.81341714925E+01 -0.17801828502E+02 -0.40382400925E+01  0.19984424615E+02  0.51100000000E-03 0.  1.
        -12    1    3    3    0    0 -0.46070029960E+01 -0.14544029996E+02  0.20136244049E+02  0.25263048303E+02  0.00000000000E+00 0.  1.
</event>
<event>
 7    1  0.2755991E-011  0.5052887E+02  0.7816164E-02  0.1300439E+00
        -11   -1    0    0    0    0  0.00000000000E+00  0.00000000000E+00  0.45593999997E+02  0.45594000000E+02  0.51100000000E-03 0. -1.
         11   -1    0    0    0    0 -0.00000000000E+00 -0.00000000000E+00 -0.45593999997E+02  0.45594000000E+02  0.51100000000E-03 0.  1.
    9900012    2    1    2    0    0  0.21243813555E+02 -0.32734987862E+02  0.11414286321E+02  0.50528868469E+02  0.30000026197E+02 0.  0.
         12    1    1    2    0    0 -0.21243813555E+02  0.32734987862E+02 -0.11414286321E+02  0.40659131531E+02  0.00000000000E+00 0. -1.
         11    1    3    3    0    0  0.29007769582E+00 -0.90499499026E+00 -0.68532785654E+01  0.69188574460E+01  0.51100000000E-03 0.  1.
        -11    1    3    3    0    0  0.44846674077E+01 -0.10387759691E+01  0.12788539256E+01  0.47777363778E+01  0.51100000000E-03 0. -1.
        -12    1    3    3    0    0  0.16469068451E+02 -0.30791216903E+02  0.16988710960E+02  0.38832274645E+02  0.00000000000E+00 0.  1.
</event>
<event>
 7    1  0.2755991E-011  0.5052886E+02  0.7816164E-02  0.1300439E+00
        -11   -1    0    0    0    0  0.00000000000E+00  0.00000000000E+00  0.45593999997E+02  0.45594000000E+02  0.51100000000E-03 0.  1.
         11   -1    0    0    0    0 -0.00000000000E+00 -0.00000000000E+00 -0.45593999997E+02  0.45594000000E+02  0.51100000000E-03 0. -1.
    9900012    2    1    2    0    0  0.26983928177E+02 -0.15681695871E+01  0.30373906995E+02  0.50528858816E+02  0.29999996856E+02 0.  0.
         12    1    1    2    0    0 -0.26983928177E+02  0.15681695871E+01 -0.30373906995E+02  0.40659141184E+02  0.00000000000E+00 0. -1.
         11    1    3    3    0    0  0.64436209924E+01 -0.24310749142E+01 -0.28139705329E+00  0.68927179904E+01  0.51100000000E-03 0. -1.
        -11    1    3    3    0    0  0.21333545982E+02  0.52567349654E+01  0.13228738241E+02  0.25646694960E+02  0.51100000000E-03 0.  1.
         12    1    3    3    0    0 -0.79323879775E+00 -0.43938296383E+01  0.17426565808E+02  0.17989445865E+02  0.00000000000E+00 0. -1.
</event>
<event>
 7    1  0.2755991E-011  0.5052886E+02  0.7816164E-02  0.1300439E+00
        -11   -1    0    0    0    0  0.00000000000E+00  0.00000000000E+00  0.45593999997E+02  0.45594000000E+02  0.51100000000E-03 0.  1.
         11   -1    0    0    0    0 -0.00000000000E+00 -0.00000000000E+00 -0.45593999997E+02  0.45594000000E+02  0.51100000000E-03 0. -1.
    9900012    2    1    2    0    0 -0.23158290500E+02  0.33414451093E+02  0.57739134018E+00  0.50528863985E+02  0.30000012569E+02 0.  0.
         12    1    1    2    0    0  0.23158290500E+02 -0.33414451093E+02 -0.57739134018E+00  0.40659136015E+02  0.00000000000E+00 0. -1.
         11    1    3    3    0    0 -0.48061103496E+01  0.97336088013E+01  0.61665656056E+01  0.12484725412E+02  0.51100000000E-03 0.  1.
        -11    1    3    3    0    0 -0.77524418600E+01  0.19884163338E+02  0.57103237846E+01  0.22092716095E+02  0.51100000000E-03 0. -1.
         12    1    3    3    0    0 -0.10599738291E+02  0.37966789532E+01 -0.11299498050E+02  0.15951422478E+02  0.00000000000E+00 0. -1.
</event>
<event>
 7    1  0.2755991E-011  0.5052884E+02  0.7816164E-02  0.1300439E+00
        -11   -1    0    0    0    0  0.00000000000E+00  0.00000000000E+00  0.45593999997E+02  0.45594000000E+02  0.51100000000E-03 0.  1.
         11   -1    0    0    0    0 -0.00000000000E+00 -0.00000000000E+00 -0.45593999997E+02  0.45594000000E+02  0.51100000000E-03 0. -1.
    9900012    2    1    2    0    0  0.17962664254E+02 -0.22642861278E+02  0.28597386488E+02  0.50528843739E+02  0.29999951028E+02 0.  0.
         12    1    1    2    0    0 -0.17962664254E+02  0.22642861278E+02 -0.28597386488E+02  0.40659156261E+02  0.00000000000E+00 0. -1.
         11    1    3    3    0    0  0.14082452663E+02 -0.13830614846E+02  0.17618686120E+02  0.26457881262E+02  0.51100000000E-03 0.  1.
        -11    1    3    3    0    0  0.20838323244E+01  0.50764058688E+01 -0.10771543842E+01  0.55921834313E+01  0.51100000000E-03 0. -1.
         12    1    3    3    0    0  0.17963792666E+01 -0.13888652300E+02  0.12055854753E+02  0.18478779045E+02  0.00000000000E+00 0. -1.
</event>
<event>
 7    1  0.2755991E-011  0.5052887E+02  0.7816164E-02  0.1300439E+00
        -11   -1    0    0    0    0  0.00000000000E+00  0.00000000000E+00  0.45593999997E+02  0.45594000000E+02  0.51100000000E-03 0. -1.
         11   -1    0    0    0    0 -0.00000000000E+00 -0.00000000000E+00 -0.45593999997E+02  0.45594000000E+02  0.51100000000E-03 0.  1.
    9900012    2    1    2    0    0 -0.97100164426E+00  0.32643470614E+02  0.24220366726E+02  0.50528865943E+02  0.30000018521E+02 0.  0.
         12    1    1    2    0    0  0.97100164426E+00 -0.32643470614E+02 -0.24220366726E+02  0.40659134057E+02  0.00000000000E+00 0. -1.
         11    1    3    3    0    0 -0.84770423628E+01  0.33385403337E+01  0.41743945945E-01  0.91108639326E+01  0.51100000000E-03 0. -1.
        -11    1    3    3    0    0  0.87575182155E+01  0.68458601481E+01  0.86452757325E+01  0.14081928817E+02  0.51100000000E-03 0.  1.
         12    1    3    3    0    0 -0.12514774970E+01  0.22459070132E+02  0.15533347047E+02  0.27336073193E+02  0.00000000000E+00 0. -1.
</event>
<event>
 7    1  0.2755991E-011  0.5052885E+02  0.7816164E-02  0.1300439E+00
        -11   -1    0    0    0    0  0.00000000000E+00  0.00000000000E+00  0.45593999997E+02  0.45594000000E+02  0.51100000000E-03 0.  1.
         11   -1    0    0    0    0 -0.00000000000E+00 -0.00000000000E+00 -0.45593999997E+02  0.45594000000E+02  0.51100000000E-03 0. -1.
    9900012    2    1    2    0    0  0.17332716966E+02 -0.29749486709E+02  0.21626636926E+02  0.50528850211E+02  0.29999970700E+02 0.  0.
         12    1    1    2    0    0 -0.17332716966E+02  0.29749486709E+02 -0.21626636926E+02  0.40659149789E+02  0.00000000000E+00 0. -1.
         11    1    3    3    0    0  0.24464534522E+01 -0.41626169660E+01  0.21403716233E+00  0.48330452788E+01  0.51100000000E-03 0. -1.
        -11    1    3    3    0    0  0.19550026995E+02 -0.17437912189E+02  0.24443347521E+02  0.35829618688E+02  0.51100000000E-03 0.  1.
        -12    1    3    3    0    0 -0.46637634819E+01 -0.81489575541E+01 -0.30307477572E+01  0.98661862440E+01  0.00000000000E+00 0.  1.
</event>
<event>
 7    1  0.2755991E-011  0.5052886E+02  0.7816164E-02  0.1300439E+00
        -11   -1    0    0    0    0  0.00000000000E+00  0.00000000000E+00  0.45593999997E+02  0.45594000000E+02  0.51100000000E-03 0.  1.
         11   -1    0    0    0    0 -0.00000000000E+00 -0.00000000000E+00 -0.45593999997E+02  0.45594000000E+02  0.51100000000E-03 0. -1.
    9900012    2    1    2    0    0 -0.13018301474E+02  0.37822685197E+02  0.72893238694E+01  0.50528856732E+02  0.29999990524E+02 0.  0.
         12    1    1    2    0    0  0.13018301474E+02 -0.37822685197E+02 -0.72893238694E+01  0.40659143268E+02  0.00000000000E+00 0. -1.
         11    1    3    3    0    0  0.36114738289E+01  0.30615303970E+00  0.56220756869E+01  0.66891111660E+01  0.51100000000E-03 0. -1.
        -11    1    3    3    0    0 -0.20083209764E+01  0.99655431798E+01  0.67990010404E+01  0.12229955823E+02  0.51100000000E-03 0.  1.
         12    1    3    3    0    0 -0.14621454326E+02  0.27550988978E+02 -0.51317528579E+01  0.31609789744E+02  0.00000000000E+00 0. -1.
</event>
<event>
 7    1  0.2755991E-011  0.5052888E+02  0.7816164E-02  0.1300439E+00
        -11   -1    0    0    0    0  0.00000000000E+00  0.00000000000E+00  0.45593999997E+02  0.45594000000E+02  0.51100000000E-03 0. -1.
         11   -1    0    0    0    0 -0.00000000000E+00 -0.00000000000E+00 -0.45593999997E+02  0.45594000000E+02  0.51100000000E-03 0.  1.
    9900012    2    1    2    0    0  0.29441010410E+02  0.21696980286E+02  0.17766030749E+02  0.50528881760E+02  0.30000066599E+02 0.  0.
         12    1    1    2    0    0 -0.29441010410E+02 -0.21696980286E+02 -0.17766030749E+02  0.40659118240E+02  0.00000000000E+00 0. -1.
         11    1    3    3    0    0  0.79183800363E+01  0.19256981847E+02  0.45388588496E+01  0.21310404317E+02  0.51100000000E-03 0. -1.
        -11    1    3    3    0    0  0.18713453197E+02  0.60926124428E+01  0.58693590473E+01  0.20536860345E+02  0.51100000000E-03 0.  1.
        -12    1    3    3    0    0  0.28091771759E+01 -0.36526140039E+01  0.73578128521E+01  0.86816170979E+01  0.00000000000E+00 0.  1.
</event>
<event>
 7    1  0.2755991E-011  0.5052886E+02  0.7816164E-02  0.1300439E+00
        -11   -1    0    0    0    0  0.00000000000E+00  0.00000000000E+00  0.45593999997E+02  0.45594000000E+02  0.51100000000E-03 0. -1.
         11   -1    0    0    0    0 -0.00000000000E+00 -0.00000000000E+00 -0.45593999997E+02  0.45594000000E+02  0.51100000000E-03 0.  1.
    9900012    2    1    2    0    0  0.23480671217E+02 -0.23936266457E+01 -0.33107313746E+02  0.50528860895E+02  0.30000003175E+02 0.  0.
         12    1    1    2    0    0 -0.23480671217E+02  0.23936266457E+01  0.33107313746E+02  0.40659139105E+02  0.00000000000E+00 0. -1.
         11    1    3    3    0    0  0.69773075284E+01 -0.44430355261E+01 -0.14142037482E+01  0.83918625784E+01  0.51100000000E-03 0. -1.
        -11    1    3    3    0    0  0.12415651470E+02  0.11810074484E+02 -0.20815296757E+02  0.26961135734E+02  0.51100000000E-03 0.  1.
         12    1    3    3    0    0  0.40877122181E+01 -0.97606656035E+01 -0.10877813241E+02  0.15175862582E+02  0.00000000000E+00 0. -1.
</event>
<event>
 7    1  0.2755991E-011  0.5052886E+02  0.7816164E-02  0.1300439E+00
        -11   -1    0    0    0    0  0.00000000000E+00  0.00000000000E+00  0.45593999997E+02  0.45594000000E+02  0.51100000000E-03 0. -1.
         11   -1    0    0    0    0 -0.00000000000E+00 -0.00000000000E+00 -0.45593999997E+02  0.45594000000E+02  0.51100000000E-03 0.  1.
    9900012    2    1    2    0    0 -0.11793599060E+02 -0.13084778905E+02 -0.36645128771E+02  0.50528857358E+02  0.29999992424E+02 0.  0.
         12    1    1    2    0    0  0.11793599060E+02  0.13084778905E+02  0.36645128771E+02  0.40659142642E+02  0.00000000000E+00 0. -1.
         11    1    3    3    0    0 -0.14128090895E+02 -0.14214357297E+02 -0.11604286865E+02  0.23158376014E+02  0.51100000000E-03 0. -1.
        -11    1    3    3    0    0  0.20028059327E+01 -0.21354621517E+01 -0.98076272201E+00  0.30876084569E+01  0.51100000000E-03 0.  1.
         12    1    3    3    0    0  0.33168590242E+00  0.32650405436E+01 -0.24060079184E+02  0.24282872886E+02  0.00000000000E+00 0. -1.
</event>
<event>
 7    1  0.2755991E-011  0.5052886E+02  0.7816164E-02  0.1300439E+00
        -11   -1    0    0    0    0  0.00000000000E+00  0.00000000000E+00  0.45593999997E+02  0.45594000000E+02  0.51100000000E-03 0. -1.
         11   -1    0    0    0    0 -0.00000000000E+00 -0.00000000000E+00 -0.45593999997E+02  0.45594000000E+02  0.51100000000E-03 0.  1.
    9900012    2    1    2    0    0  0.24170654302E+02  0.31385753628E+02  0.91586009914E+01  0.50528855490E+02  0.29999986748E+02 0.  0.
         12    1    1    2    0    0 -0.24170654302E+02 -0.31385753628E+02 -0.91586009914E+01  0.40659144510E+02  0.00000000000E+00 0. -1.
         11    1    3    3    0    0  0.51289061079E+01 -0.23321220353E+01  0.23411796617E+01  0.61012780236E+01  0.51100000000E-03 0. -1.
        -11    1    3    3    0    0  0.17653398314E+02  0.10762623940E+02  0.54906303798E+01  0.21392138003E+02  0.51100000000E-03 0.  1.
         12    1    3    3    0    0  0.13883498798E+01  0.22955251723E+02  0.13267909499E+01  0.23035439464E+02  0.00000000000E+00 0. -1.
</event>
<event>
 7    1  0.2755991E-011  0.5052886E+02  0.7816164E-02  0.1300439E+00
        -11   -1    0    0    0    0  0.00000000000E+00  0.00000000000E+00  0.45593999997E+02  0.45594000000E+02  0.51100000000E-03 0.  1.
         11   -1    0    0    0    0 -0.00000000000E+00 -0.00000000000E+00 -0.45593999997E+02  0.45594000000E+02  0.51100000000E-03 0. -1.
    9900012    2    1    2    0    0 -0.15848160112E+02  0.38681309529E+01  0.37242972296E+02  0.50528860788E+02  0.30000002851E+02 0.  0.
         12    1    1    2    0    0  0.15848160112E+02 -0.38681309529E+01 -0.37242972296E+02  0.40659139212E+02  0.00000000000E+00 0. -1.
         11    1    3    3    0    0  0.55675655405E+01  0.13883210837E+01  0.89822517876E+01  0.10658614775E+02  0.51100000000E-03 0. -1.
        -11    1    3    3    0    0  0.24713727483E+01  0.24177741907E+01  0.73538791448E+01  0.81260601791E+01  0.51100000000E-03 0.  1.
         12    1    3    3    0    0 -0.23887098401E+02  0.62035678466E-01  0.20906841364E+02  0.31744185834E+02  0.00000000000E+00 0. -1.
</event>
<event>
 7    1  0.2755991E-011  0.5052886E+02  0.7816164E-02  0.1300439E+00
        -11   -1    0    0    0    0  0.00000000000E+00  0.00000000000E+00  0.45593999997E+02  0.45594000000E+02  0.51100000000E-03 0.  1.
         11   -1    0    0    0    0 -0.00000000000E+00 -0.00000000000E+00 -0.45593999997E+02  0.45594000000E+02  0.51100000000E-03 0. -1.
    9900012    2    1    2    0    0 -0.12306747058E+02  0.14227884107E+02  0.36045488436E+02  0.50528856552E+02  0.29999989976E+02 0.  0.
         12    1    1    2    0    0  0.12306747058E+02 -0.14227884107E+02 -0.36045488436E+02  0.40659143448E+02  0.00000000000E+00 0. -1.
         11    1    3    3    0    0  0.47047701812E+01  0.58425215925E+01  0.11462158855E+02  0.13698576820E+02  0.51100000000E-03 0. -1.
        -11    1    3    3    0    0 -0.19840003668E+01  0.48878602774E+01  0.20074183648E+02  0.20755728967E+02  0.51100000000E-03 0.  1.
         12    1    3    3    0    0 -0.15027516873E+02  0.34975022374E+01  0.45091459327E+01  0.16074550765E+02  0.00000000000E+00 0. -1.
</event>
<event>
 7    1  0.2755991E-011  0.5052886E+02  0.7816164E-02  0.1300439E+00
        -11   -1    0    0    0    0  0.00000000000E+00  0.00000000000E+00  0.45593999997E+02  0.45594000000E+02  0.51100000000E-03 0.  1.
         11   -1    0    0    0    0 -0.00000000000E+00 -0.00000000000E+00 -0.45593999997E+02  0.45594000000E+02  0.51100000000E-03 0. -1.
    9900012    2    1    2    0    0 -0.89016397086E-01  0.26978311681E+02  0.30419209929E+02  0.50528861325E+02  0.30000004483E+02 0.  0.
         12    1    1    2    0    0  0.89016397086E-01 -0.26978311681E+02 -0.30419209929E+02  0.40659138675E+02  0.00000000000E+00 0. -1.
         11    1    3    3    0    0 -0.76798860343E+01  0.18203853594E+02  0.22420990986E+02  0.29884139141E+02  0.51100000000E-03 0. -1.
        -11    1    3    3    0    0  0.53016927455E+01  0.36319066865E+01  0.12085776134E+02  0.13688121754E+02  0.51100000000E-03 0.  1.
         12    1    3    3    0    0  0.22891768917E+01  0.51425514011E+01 -0.40875571902E+01  0.69566004296E+01  0.00000000000E+00 0. -1.
</event>
<event>
 7    1  0.2755991E-011  0.5052886E+02  0.7816164E-02  0.1300439E+00
        -11   -1    0    0    0    0  0.00000000000E+00  0.00000000000E+00  0.45593999997E+02  0.45594000000E+02  0.51100000000E-03 0.  1.
         11   -1    0    0    0    0 -0.00000000000E+00 -0.00000000000E+00 -0.45593999997E+02  0.45594000000E+02  0.51100000000E-03 0. -1.
    9900012    2    1    2    0    0  0.25843340693E+02 -0.18882581196E+00  0.31388722817E+02  0.50528857936E+02  0.29999994181E+02 0.  0.
         12    1    1    2    0    0 -0.25843340693E+02  0.18882581196E+00 -0.31388722817E+02  0.40659142064E+02  0.00000000000E+00 0. -1.
         11    1    3    3    0    0  0.18068017632E+02 -0.44771123125E+01  0.61873050535E+01  0.19615823711E+02  0.51100000000E-03 0. -1.
        -11    1    3    3    0    0  0.77931423727E+01 -0.45180458611E+01  0.11209855843E+02  0.14380774483E+02  0.51100000000E-03 0.  1.
         12    1    3    3    0    0 -0.17819311667E-01  0.88063323616E+01  0.13991561920E+02  0.16532259741E+02  0.00000000000E+00 0. -1.
</event>
<event>
 7    1  0.2755991E-011  0.5052886E+02  0.7816164E-02  0.1300439E+00
        -11   -1    0    0    0    0  0.00000000000E+00  0.00000000000E+00  0.45593999997E+02  0.45594000000E+02  0.51100000000E-03 0.  1.
         11   -1    0    0    0    0 -0.00000000000E+00 -0.00000000000E+00 -0.45593999997E+02  0.45594000000E+02  0.51100000000E-03 0. -1.
    9900012    2    1    2    0    0  0.69035427541E+01  0.39417683025E+02  0.71939764202E+01  0.50528856694E+02  0.29999990408E+02 0.  0.
         12    1    1    2    0    0 -0.69035427541E+01 -0.39417683025E+02 -0.71939764202E+01  0.40659143306E+02  0.00000000000E+00 0. -1.
         11    1    3    3    0    0  0.73238239178E+01  0.13705393344E+02  0.78980486103E+01  0.17431447892E+02  0.51100000000E-03 0.  1.
        -11    1    3    3    0    0 -0.83107104071E+01  0.18182923720E+02  0.52521484847E+01  0.20670551189E+02  0.51100000000E-03 0. -1.
         12    1    3    3    0    0  0.78904292434E+01  0.75293659607E+01 -0.59562206747E+01  0.12426857613E+02  0.00000000000E+00 0. -1.
</event>
<event>
 7    1  0.2755991E-011  0.5052886E+02  0.7816164E-02  0.1300439E+00
        -11   -1    0    0    0    0  0.00000000000E+00  0.00000000000E+00  0.45593999997E+02  0.45594000000E+02  0.51100000000E-03 0.  1.
         11   -1    0    0    0    0 -0.00000000000E+00 -0.00000000000E+00 -0.45593999997E+02  0.45594000000E+02  0.51100000000E-03 0. -1.
    9900012    2    1    2    0    0 -0.17100310151E+02 -0.32521380298E+02 -0.17409898130E+02  0.50528864045E+02  0.30000012750E+02 0.  0.
         12    1    1    2    0    0  0.17100310151E+02  0.32521380298E+02  0.17409898130E+02  0.40659135955E+02  0.00000000000E+00 0. -1.
         11    1    3    3    0    0 -0.46566799202E+01 -0.13101173357E+01 -0.72984915270E-01  0.48380163675E+01  0.51100000000E-03 0. -1.
        -11    1    3    3    0    0 -0.18686272085E+02 -0.12539859406E+02 -0.10669902556E+02  0.24905253646E+02  0.51100000000E-03 0.  1.
        -12    1    3    3    0    0  0.62426418547E+01 -0.18671403556E+02 -0.66670106583E+01  0.20785594031E+02  0.00000000000E+00 0.  1.
</event>
<event>
 7    1  0.2755991E-011  0.5052886E+02  0.7816164E-02  0.1300439E+00
        -11   -1    0    0    0    0  0.00000000000E+00  0.00000000000E+00  0.45593999997E+02  0.45594000000E+02  0.51100000000E-03 0. -1.
         11   -1    0    0    0    0 -0.00000000000E+00 -0.00000000000E+00 -0.45593999997E+02  0.45594000000E+02  0.51100000000E-03 0.  1.
    9900012    2    1    2    0    0  0.28954556411E+02 -0.85849455289E+00 -0.28531778658E+02  0.50528859044E+02  0.29999997550E+02 0.  0.
         12    1    1    2    0    0 -0.28954556411E+02  0.85849455289E+00  0.28531778658E+02  0.40659140956E+02  0.00000000000E+00 0. -1.
         11    1    3    3    0    0  0.27335241554E+01  0.85121693366E+01 -0.89119159144E+01  0.12623447495E+02  0.51100000000E-03 0. -1.
        -11    1    3    3    0    0  0.53591072991E+01 -0.49439930968E+01 -0.14104050926E+02  0.15877258944E+02  0.51100000000E-03 0.  1.
         12    1    3    3    0    0  0.20861924957E+02 -0.44266707927E+01 -0.55158118180E+01  0.22028152606E+02  0.00000000000E+00 0. -1.
</event>
<event>
 7    1  0.2755991E-011  0.5052886E+02  0.7816164E-02  0.1300439E+00
        -11   -1    0    0    0    0  0.00000000000E+00  0.00000000000E+00  0.45593999997E+02  0.45594000000E+02  0.51100000000E-03 0.  1.
         11   -1    0    0    0    0 -0.00000000000E+00 -0.00000000000E+00 -0.45593999997E+02  0.45594000000E+02  0.51100000000E-03 0. -1.
    9900012    2    1    2    0    0 -0.31554452230E+02 -0.69050407987E+01  0.24694186439E+02  0.50528857266E+02  0.29999992146E+02 0.  0.
         12    1    1    2    0    0  0.31554452230E+02  0.69050407987E+01 -0.24694186439E+02  0.40659142734E+02  0.00000000000E+00 0. -1.
         11    1    3    3    0    0 -0.19802390350E+02 -0.78949569441E+00  0.80485295260E+01  0.21390109743E+02  0.51100000000E-03 0. -1.
        -11    1    3    3    0    0 -0.13160706632E+02 -0.79515821554E+01  0.34721079219E+01  0.15763482848E+02  0.51100000000E-03 0.  1.
         12    1    3    3    0    0  0.14086447526E+01  0.18360370511E+01  0.13173548991E+02  0.13375264674E+02  0.00000000000E+00 0. -1.
</event>
<event>
 7    1  0.2755991E-011  0.5052888E+02  0.7816164E-02  0.1300439E+00
        -11   -1    0    0    0    0  0.00000000000E+00  0.00000000000E+00  0.45593999997E+02  0.45594000000E+02  0.51100000000E-03 0. -1.
         11   -1    0    0    0    0 -0.00000000000E+00 -0.00000000000E+00 -0.45593999997E+02  0.45594000000E+02  0.51100000000E-03 0.  1.
    9900012    2    1    2    0    0  0.25092629412E+02 -0.42845531607E+01 -0.31704356347E+02  0.50528884687E+02  0.30000075495E+02 0.  0.
         12    1    1    2    0    0 -0.25092629412E+02  0.42845531607E+01  0.31704356347E+02  0.40659115313E+02  0.00000000000E+00 0. -1.
         11    1    3    3    0    0  0.23621636818E+01 -0.27589898917E+01 -0.16312584794E+02  0.16712039534E+02  0.51100000000E-03 0. -1.
        -11    1    3    3    0    0  0.11845885811E+02 -0.10562777626E+02 -0.68133255408E+01  0.17271904556E+02  0.51100000000E-03 0.  1.
         12    1    3    3    0    0  0.10884579920E+02  0.90372143566E+01 -0.85784460127E+01  0.16544940597E+02  0.00000000000E+00 0. -1.
</event>
<event>
 7    1  0.2755991E-011  0.5052886E+02  0.7816164E-02  0.1300439E+00
        -11   -1    0    0    0    0  0.00000000000E+00  0.00000000000E+00  0.45593999997E+02  0.45594000000E+02  0.51100000000E-03 0. -1.
         11   -1    0    0    0    0 -0.00000000000E+00 -0.00000000000E+00 -0.45593999997E+02  0.45594000000E+02  0.51100000000E-03 0.  1.
    9900012    2    1    2    0    0 -0.34771608897E+02 -0.16315388374E+02  0.13338267610E+02  0.50528855076E+02  0.29999985490E+02 0.  0.
         12    1    1    2    0    0  0.34771608897E+02  0.16315388374E+02 -0.13338267610E+02  0.40659144924E+02  0.00000000000E+00 0. -1.
         11    1    3    3    0    0 -0.56961917600E+01  0.61452299089E+01  0.42401186245E+01  0.93909029071E+01  0.51100000000E-03 0. -1.
        -11    1    3    3    0    0 -0.18398349297E+02 -0.21978695681E+02  0.10130009119E+02  0.30400319171E+02  0.51100000000E-03 0.  1.
         12    1    3    3    0    0 -0.10677067841E+02 -0.48192260131E+00 -0.10318601330E+01  0.10737632998E+02  0.00000000000E+00 0. -1.
</event>
<event>
 7    1  0.2755991E-011  0.5052885E+02  0.7816164E-02  0.1300439E+00
        -11   -1    0    0    0    0  0.00000000000E+00  0.00000000000E+00  0.45593999997E+02  0.45594000000E+02  0.51100000000E-03 0.  1.
         11   -1    0    0    0    0 -0.00000000000E+00 -0.00000000000E+00 -0.45593999997E+02  0.45594000000E+02  0.51100000000E-03 0. -1.
    9900012    2    1    2    0    0  0.16664299865E+02  0.19449030316E+02  0.31578516788E+02  0.50528851057E+02  0.29999973273E+02 0.  0.
         12    1    1    2    0    0 -0.16664299865E+02 -0.19449030316E+02 -0.31578516788E+02  0.40659148943E+02  0.00000000000E+00 0. -1.
         11    1    3    3    0    0 -0.27272127776E+01  0.20808105786E+01  0.18389033918E+01  0.38921752458E+01  0.51100000000E-03 0. -1.
        -11    1    3    3    0    0 -0.51408246891E+01  0.73300646932E+01  0.10958367590E+02  0.14150750771E+02  0.51100000000E-03 0.  1.
         12    1    3    3    0    0  0.24532337332E+02  0.10038155045E+02  0.18781245806E+02  0.32485925040E+02  0.00000000000E+00 0. -1.
</event>
<event>
 7    1  0.2755991E-011  0.5052888E+02  0.7816164E-02  0.1300439E+00
        -11   -1    0    0    0    0  0.00000000000E+00  0.00000000000E+00  0.45593999997E+02  0.45594000000E+02  0.51100000000E-03 0.  1.
         11   -1    0    0    0    0 -0.00000000000E+00 -0.00000000000E+00 -0.45593999997E+02  0.45594000000E+02  0.51100000000E-03 0. -1.
    9900012    2    1    2    0    0 -0.12896568678E+02 -0.26147630786E+02  0.28339801191E+02  0.50528875428E+02  0.30000047351E+02 0.  0.
         12    1    1    2    0    0  0.12896568678E+02  0.26147630786E+02 -0.28339801191E+02  0.40659124572E+02  0.00000000000E+00 0. -1.
         11    1    3    3    0    0 -0.97496443135E+01  0.67782087303E+00  0.44501000396E+01  0.10738640324E+02  0.51100000000E-03 0. -1.
        -11    1    3    3    0    0  0.66238259781E+00 -0.77549366467E+01  0.17774991192E+02  0.19404332125E+02  0.51100000000E-03 0.  1.
         12    1    3    3    0    0 -0.38093069628E+01 -0.19070515012E+02  0.61147099598E+01  0.20385902979E+02  0.00000000000E+00 0. -1.
</event>
<event>
 7    1  0.2755991E-011  0.5052886E+02  0.7816164E-02  0.1300439E+00
        -11   -1    0    0    0    0  0.00000000000E+00  0.00000000000E+00  0.45593999997E+02  0.45594000000E+02  0.51100000000E-03 0.  1.
         11   -1    0    0    0    0 -0.00000000000E+00 -0.00000000000E+00 -0.45593999997E+02  0.45594000000E+02  0.51100000000E-03 0. -1.
    9900012    2    1    2    0    0  0.31348443487E+02 -0.15021603846E+02  0.21090099248E+02  0.50528858624E+02  0.29999996273E+02 0.  0.
         12    1    1    2    0    0 -0.31348443487E+02  0.15021603846E+02 -0.21090099248E+02  0.40659141376E+02  0.00000000000E+00 0. -1.
         11    1    3    3    0    0  0.63309138684E+01  0.55184039311E+01 -0.15693162988E+01  0.85437700263E+01  0.51100000000E-03 0. -1.
        -11    1    3    3    0    0  0.13945994296E+01 -0.86711820678E+01  0.41574945626E+01  0.97169474282E+01  0.51100000000E-03 0.  1.
        -12    1    3    3    0    0  0.23622930189E+02 -0.11868825709E+02  0.18501920984E+02  0.32268141169E+02  0.00000000000E+00 0.  1.
</event>
<event>
 7    1  0.2755991E-011  0.5052886E+02  0.7816164E-02  0.1300439E+00
        -11   -1    0    0    0    0  0.00000000000E+00  0.00000000000E+00  0.45593999997E+02  0.45594000000E+02  0.51100000000E-03 0. -1.
         11   -1    0    0    0    0 -0.00000000000E+00 -0.00000000000E+00 -0.45593999997E+02  0.45594000000E+02  0.51100000000E-03 0.  1.
    9900012    2    1    2    0    0  0.36792875164E+02 -0.15825114393E+02  0.70011258829E+01  0.50528859920E+02  0.30000000213E+02 0.  0.
         12    1    1    2    0    0 -0.36792875164E+02  0.15825114393E+02 -0.70011258829E+01  0.40659140080E+02  0.00000000000E+00 0. -1.
         11    1    3    3    0    0  0.50166754246E+01 -0.53777401412E+01  0.87923510715E+01  0.11462659332E+02  0.51100000000E-03 0. -1.
        -11    1    3    3    0    0  0.15997275873E+02  0.38090802418E+01 -0.57783136176E+01  0.17430170285E+02  0.51100000000E-03 0.  1.
         12    1    3    3    0    0  0.15778923867E+02 -0.14256454493E+02  0.39870884290E+01  0.21636030303E+02  0.00000000000E+00 0. -1.
</event>
<event>
 7    1  0.2755991E-011  0.5052882E+02  0.7816164E-02  0.1300439E+00
        -11   -1    0    0    0    0  0.00000000000E+00  0.00000000000E+00  0.45593999997E+02  0.45594000000E+02  0.51100000000E-03 0.  1.
         11   -1    0    0    0    0 -0.00000000000E+00 -0.00000000000E+00 -0.45593999997E+02  0.45594000000E+02  0.51100000000E-03 0. -1.
    9900012    2    1    2    0    0  0.18811745546E+02  0.82790694157E+01  0.35081963461E+02  0.50528819964E+02  0.29999878764E+02 0.  0.
         12    1    1    2    0    0 -0.18811745546E+02 -0.82790694157E+01 -0.35081963461E+02  0.40659180036E+02  0.00000000000E+00 0. -1.
         11    1    3    3    0    0 -0.32166384455E+01  0.37449262814E+01  0.11088572558E+01  0.50597233538E+01  0.51100000000E-03 0. -1.
        -11    1    3    3    0    0  0.13934071524E+02  0.11033580224E+02  0.12847272426E+02  0.21930587107E+02  0.51100000000E-03 0.  1.
        -12    1    3    3    0    0  0.80943124683E+01 -0.64994370898E+01  0.21125833779E+02  0.23538509504E+02  0.00000000000E+00 0.  1.
</event>
<event>
 7    1  0.2755991E-011  0.5052886E+02  0.7816164E-02  0.1300439E+00
        -11   -1    0    0    0    0  0.00000000000E+00  0.00000000000E+00  0.45593999997E+02  0.45594000000E+02  0.51100000000E-03 0. -1.
         11   -1    0    0    0    0 -0.00000000000E+00 -0.00000000000E+00 -0.45593999997E+02  0.45594000000E+02  0.51100000000E-03 0.  1.
    9900012    2    1    2    0    0 -0.20402473805E+02  0.14054691533E+02 -0.32239264991E+02  0.50528862053E+02  0.30000006696E+02 0.  0.
         12    1    1    2    0    0  0.20402473805E+02 -0.14054691533E+02  0.32239264991E+02  0.40659137947E+02  0.00000000000E+00 0. -1.
         11    1    3    3    0    0 -0.15415102534E+02  0.13432042305E+02 -0.30244024317E+02  0.36506795994E+02  0.51100000000E-03 0. -1.
        -11    1    3    3    0    0 -0.70725176355E+01  0.48886196826E+01  0.58590507233E+00  0.86175630616E+01  0.51100000000E-03 0.  1.
         12    1    3    3    0    0  0.20851463645E+01 -0.42659704548E+01 -0.25811457463E+01  0.54045029971E+01  0.00000000000E+00 0. -1.
</event>
<event>
 7    1  0.2755991E-011  0.5052886E+02  0.7816164E-02  0.1300439E+00
        -11   -1    0    0    0    0  0.00000000000E+00  0.00000000000E+00  0.45593999997E+02  0.45594000000E+02  0.51100000000E-03 0. -1.
         11   -1    0    0    0    0 -0.00000000000E+00 -0.00000000000E+00 -0.45593999997E+02  0.45594000000E+02  0.51100000000E-03 0.  1.
    9900012    2    1    2    0    0  0.32745940855E+02  0.11062314592E+02 -0.21412480100E+02  0.50528858953E+02  0.29999997275E+02 0.  0.
         12    1    1    2    0    0 -0.32745940855E+02 -0.11062314592E+02  0.21412480100E+02  0.40659141047E+02  0.00000000000E+00 0. -1.
         11    1    3    3    0    0 -0.62923037326E+00  0.21877489176E+00 -0.16468009149E+01  0.17764421832E+01  0.51100000000E-03 0. -1.
        -11    1    3    3    0    0  0.26756510437E+02  0.18472855547E+02 -0.20802414806E+02  0.38599193060E+02  0.51100000000E-03 0.  1.
        -12    1    3    3    0    0  0.66186607910E+01 -0.76293158472E+01  0.10367356209E+01  0.10153223710E+02  0.00000000000E+00 0.  1.
</event>
<event>
 7    1  0.2755991E-011  0.5052886E+02  0.7816164E-02  0.1300439E+00
        -11   -1    0    0    0    0  0.00000000000E+00  0.00000000000E+00  0.45593999997E+02  0.45594000000E+02  0.51100000000E-03 0. -1.
         11   -1    0    0    0    0 -0.00000000000E+00 -0.00000000000E+00 -0.45593999997E+02  0.45594000000E+02  0.51100000000E-03 0.  1.
    9900012    2    1    2    0    0  0.30152852399E+02  0.14383702849E+02  0.23174989775E+02  0.50528861217E+02  0.30000004156E+02 0.  0.
         12    1    1    2    0    0 -0.30152852399E+02 -0.14383702849E+02 -0.23174989775E+02  0.40659138783E+02  0.00000000000E+00 0. -1.
         11    1    3    3    0    0  0.12650883060E+02  0.10844959714E+02  0.10986466037E+02  0.19958968652E+02  0.51100000000E-03 0.  1.
        -11    1    3    3    0    0  0.94590119254E+01  0.87734067447E+01  0.15727199724E+02  0.20341838263E+02  0.51100000000E-03 0. -1.
         12    1    3    3    0    0  0.80429574142E+01 -0.52346636095E+01 -0.35386759862E+01  0.10228054302E+02  0.00000000000E+00 0. -1.
</event>
<event>
 7    1  0.2755991E-011  0.5052886E+02  0.7816164E-02  0.1300439E+00
        -11   -1    0    0    0    0  0.00000000000E+00  0.00000000000E+00  0.45593999997E+02  0.45594000000E+02  0.51100000000E-03 0.  1.
         11   -1    0    0    0    0 -0.00000000000E+00 -0.00000000000E+00 -0.45593999997E+02  0.45594000000E+02  0.51100000000E-03 0. -1.
    9900012    2    1    2    0    0  0.27445228659E+02 -0.13235539221E+02  0.26921096474E+02  0.50528861913E+02  0.30000006269E+02 0.  0.
         12    1    1    2    0    0 -0.27445228659E+02  0.13235539221E+02 -0.26921096474E+02  0.40659138087E+02  0.00000000000E+00 0. -1.
         11    1    3    3    0    0  0.23608724788E+01  0.42142735261E+01  0.68083881355E+01  0.83479320481E+01  0.51100000000E-03 0. -1.
        -11    1    3    3    0    0  0.45527520924E+00  0.13607811120E+01  0.92208645238E+01  0.93318456683E+01  0.51100000000E-03 0.  1.
        -12    1    3    3    0    0  0.24629080971E+02 -0.18810593860E+02  0.10891843815E+02  0.32849084196E+02  0.00000000000E+00 0.  1.
</event>
<event>
 7    1  0.2755991E-011  0.5052886E+02  0.7816164E-02  0.1300439E+00
        -11   -1    0    0    0    0  0.00000000000E+00  0.00000000000E+00  0.45593999997E+02  0.45594000000E+02  0.51100000000E-03 0.  1.
         11   -1    0    0    0    0 -0.00000000000E+00 -0.00000000000E+00 -0.45593999997E+02  0.45594000000E+02  0.51100000000E-03 0. -1.
    9900012    2    1    2    0    0  0.37253963706E+02 -0.11140144886E+02  0.11882982516E+02  0.50528856952E+02  0.29999991192E+02 0.  0.
         12    1    1    2    0    0 -0.37253963706E+02  0.11140144886E+02 -0.11882982516E+02  0.40659143048E+02  0.00000000000E+00 0. -1.
         11    1    3    3    0    0 -0.22823506351E+01 -0.38257675471E+01 -0.50455322302E+00  0.44833242088E+01  0.51100000000E-03 0. -1.
        -11    1    3    3    0    0  0.21730506554E+02 -0.11284935259E+02  0.93165267006E+00  0.24503727387E+02  0.51100000000E-03 0.  1.
        -12    1    3    3    0    0  0.17805807787E+02  0.39705579193E+01  0.11455883069E+02  0.21541805357E+02  0.00000000000E+00 0.  1.
</event>
<event>
 7    1  0.2755991E-011  0.5052886E+02  0.7816164E-02  0.1300439E+00
        -11   -1    0    0    0    0  0.00000000000E+00  0.00000000000E+00  0.45593999997E+02  0.45594000000E+02  0.51100000000E-03 0.  1.
         11   -1    0    0    0    0 -0.00000000000E+00 -0.00000000000E+00 -0.45593999997E+02  0.45594000000E+02  0.51100000000E-03 0. -1.
    9900012    2    1    2    0    0  0.24646877749E+02 -0.31431441941E+02  0.76000875256E+01  0.50528862581E+02  0.30000008301E+02 0.  0.
         12    1    1    2    0    0 -0.24646877749E+02  0.31431441941E+02 -0.76000875256E+01  0.40659137419E+02  0.00000000000E+00 0. -1.
         11    1    3    3    0    0 -0.38543142764E+01 -0.14928012349E+02 -0.53450544262E+00  0.15426826880E+02  0.51100000000E-03 0.  1.
        -11    1    3    3    0    0  0.54864744861E+01 -0.25895958648E+00  0.36050723756E+01  0.65700083295E+01  0.51100000000E-03 0. -1.
        -12    1    3    3    0    0  0.23014717539E+02 -0.16244470005E+02  0.45295205926E+01  0.28532027372E+02  0.00000000000E+00 0.  1.
</event>
<event>
 7    1  0.2755991E-011  0.5052886E+02  0.7816164E-02  0.1300439E+00
        -11   -1    0    0    0    0  0.00000000000E+00  0.00000000000E+00  0.45593999997E+02  0.45594000000E+02  0.51100000000E-03 0. -1.
         11   -1    0    0    0    0 -0.00000000000E+00 -0.00000000000E+00 -0.45593999997E+02  0.45594000000E+02  0.51100000000E-03 0.  1.
    9900012    2    1    2    0    0 -0.26226589016E+02 -0.24219245115E+02 -0.19461756198E+02  0.50528858842E+02  0.29999996937E+02 0.  0.
         12    1    1    2    0    0  0.26226589016E+02  0.24219245115E+02  0.19461756198E+02  0.40659141158E+02  0.00000000000E+00 0. -1.
         11    1    3    3    0    0 -0.11991567931E+02 -0.39716445209E+01  0.45532022154E+01  0.13427706890E+02  0.51100000000E-03 0. -1.
        -11    1    3    3    0    0 -0.10037866863E+02 -0.45236718383E+01 -0.50570373491E+01  0.12115940123E+02  0.51100000000E-03 0.  1.
        -12    1    3    3    0    0 -0.41971542224E+01 -0.15723928756E+02 -0.18957921065E+02  0.24985211830E+02  0.00000000000E+00 0.  1.
</event>
<event>
 7    1  0.2755991E-011  0.5052886E+02  0.7816164E-02  0.1300439E+00
        -11   -1    0    0    0    0  0.00000000000E+00  0.00000000000E+00  0.45593999997E+02  0.45594000000E+02  0.51100000000E-03 0. -1.
         11   -1    0    0    0    0 -0.00000000000E+00 -0.00000000000E+00 -0.45593999997E+02  0.45594000000E+02  0.51100000000E-03 0.  1.
    9900012    2    1    2    0    0 -0.27483722147E+01 -0.37392675961E+02 -0.15728941262E+02  0.50528863775E+02  0.30000011930E+02 0.  0.
         12    1    1    2    0    0  0.27483722147E+01  0.37392675961E+02  0.15728941262E+02  0.40659136225E+02  0.00000000000E+00 0. -1.
         11    1    3    3    0    0 -0.89830782689E+01 -0.19438489980E+02  0.27773750643E+01  0.21593156332E+02  0.51100000000E-03 0.  1.
        -11    1    3    3    0    0  0.48839522822E+01 -0.73354218779E+00 -0.34874410989E+01  0.60459341475E+01  0.51100000000E-03 0. -1.
        -12    1    3    3    0    0  0.13507537719E+01 -0.17220643793E+02 -0.15018875228E+02  0.22889773295E+02  0.00000000000E+00 0.  1.
</event>
<event>
 7    1  0.2755991E-011  0.5052886E+02  0.7816164E-02  0.1300439E+00
        -11   -1    0    0    0    0  0.00000000000E+00  0.00000000000E+00  0.45593999997E+02  0.45594000000E+02  0.51100000000E-03 0.  1.
         11   -1    0    0    0    0 -0.00000000000E+00 -0.00000000000E+00 -0.45593999997E+02  0.45594000000E+02  0.51100000000E-03 0. -1.
    9900012    2    1    2    0    0  0.21297489498E+01 -0.40189123459E+02  0.57848450913E+01  0.50528857022E+02  0.29999991403E+02 0.  0.
         12    1    1    2    0    0 -0.21297489498E+01  0.40189123459E+02 -0.57848450913E+01  0.40659142978E+02  0.00000000000E+00 0. -1.
         11    1    3    3    0    0  0.73527693424E+01 -0.21641377877E+02  0.74207552574E+01  0.24030814848E+02  0.51100000000E-03 0. -1.
        -11    1    3    3    0    0  0.23461392572E+01 -0.17605284815E+02 -0.45471164556E+01  0.18333758239E+02  0.51100000000E-03 0.  1.
         12    1    3    3    0    0 -0.75691596498E+01 -0.94246076682E+00  0.29112062895E+01  0.81642839343E+01  0.00000000000E+00 0. -1.
</event>
<event>
 7    1  0.2755991E-011  0.5052886E+02  0.7816164E-02  0.1300439E+00
        -11   -1    0    0    0    0  0.00000000000E+00  0.00000000000E+00  0.45593999997E+02  0.45594000000E+02  0.51100000000E-03 0.  1.
         11   -1    0    0    0    0 -0.00000000000E+00 -0.00000000000E+00 -0.45593999997E+02  0.45594000000E+02  0.51100000000E-03 0. -1.
    9900012    2    1    2    0    0 -0.35645698157E+02  0.10885472811E+01 -0.19528561498E+02  0.50528862694E+02  0.30000008644E+02 0.  0.
         12    1    1    2    0    0  0.35645698157E+02 -0.10885472811E+01  0.19528561498E+02  0.40659137306E+02  0.00000000000E+00 0. -1.
         11    1    3    3    0    0 -0.14164057236E+02 -0.33720682415E+01 -0.77865709391E+01  0.16511270358E+02  0.51100000000E-03 0. -1.
        -11    1    3    3    0    0 -0.20919389809E+02  0.51852952504E+01 -0.17761807164E+02  0.27928300178E+02  0.51100000000E-03 0.  1.
         12    1    3    3    0    0 -0.56225111278E+00 -0.72467972784E+00  0.60198166053E+01  0.60892921578E+01  0.00000000000E+00 0. -1.
</event>
<event>
 7    1  0.2755991E-011  0.5052887E+02  0.7816164E-02  0.1300439E+00
        -11   -1    0    0    0    0  0.00000000000E+00  0.00000000000E+00  0.45593999997E+02  0.45594000000E+02  0.51100000000E-03 0.  1.
         11   -1    0    0    0    0 -0.00000000000E+00 -0.00000000000E+00 -0.45593999997E+02  0.45594000000E+02  0.51100000000E-03 0. -1.
    9900012    2    1    2    0    0 -0.12577974622E+02 -0.29662234968E+02  0.24801429831E+02  0.50528873712E+02  0.30000042134E+02 0.  0.
         12    1    1    2    0    0  0.12577974622E+02  0.29662234968E+02 -0.24801429831E+02  0.40659126288E+02  0.00000000000E+00 0. -1.
         11    1    3    3    0    0 -0.23906483058E+01 -0.66087718272E+01  0.95883369779E+00  0.70929843301E+01  0.51100000000E-03 0. -1.
        -11    1    3    3    0    0 -0.14875438405E+02 -0.26024559582E+02  0.23083537023E+02  0.37833927248E+02  0.51100000000E-03 0.  1.
        -12    1    3    3    0    0  0.46881120883E+01  0.29710964417E+01  0.75905910939E+00  0.56019621339E+01  0.00000000000E+00 0.  1.
</event>
<event>
 7    1  0.2755991E-011  0.5052886E+02  0.7816164E-02  0.1300439E+00
        -11   -1    0    0    0    0  0.00000000000E+00  0.00000000000E+00  0.45593999997E+02  0.45594000000E+02  0.51100000000E-03 0.  1.
         11   -1    0    0    0    0 -0.00000000000E+00 -0.00000000000E+00 -0.45593999997E+02  0.45594000000E+02  0.51100000000E-03 0. -1.
    9900012    2    1    2    0    0  0.25220401354E+02 -0.90538260878E+01  0.30579823073E+02  0.50528856005E+02  0.29999988311E+02 0.  0.
         12    1    1    2    0    0 -0.25220401354E+02  0.90538260878E+01 -0.30579823073E+02  0.40659143995E+02  0.00000000000E+00 0. -1.
         11    1    3    3    0    0 -0.37311743578E+01 -0.11686421182E+01  0.12166132698E+01  0.40948180177E+01  0.51100000000E-03 0. -1.
        -11    1    3    3    0    0 -0.94311171696E+00 -0.37979130885E+01 -0.54369876726E+00  0.39508495478E+01  0.51100000000E-03 0.  1.
        -12    1    3    3    0    0  0.29894687429E+02 -0.40872708811E+01  0.29906908570E+02  0.42483188439E+02  0.00000000000E+00 0.  1.
</event>
<event>
 7    1  0.2755991E-011  0.5052886E+02  0.7816164E-02  0.1300439E+00
        -11   -1    0    0    0    0  0.00000000000E+00  0.00000000000E+00  0.45593999997E+02  0.45594000000E+02  0.51100000000E-03 0. -1.
         11   -1    0    0    0    0 -0.00000000000E+00 -0.00000000000E+00 -0.45593999997E+02  0.45594000000E+02  0.51100000000E-03 0.  1.
    9900012    2    1    2    0    0  0.18810897186E+02 -0.35480650379E+02 -0.63591671689E+01  0.50528863126E+02  0.30000009957E+02 0.  0.
         12    1    1    2    0    0 -0.18810897186E+02  0.35480650379E+02  0.63591671689E+01  0.40659136874E+02  0.00000000000E+00 0. -1.
         11    1    3    3    0    0  0.92119035568E+00 -0.84255487199E+01  0.26410072985E+00  0.84798710108E+01  0.51100000000E-03 0. -1.
        -11    1    3    3    0    0  0.98501628692E+01 -0.30831590147E+02 -0.71640065608E+01  0.33150198337E+02  0.51100000000E-03 0.  1.
        -12    1    3    3    0    0  0.80395439615E+01  0.37764884875E+01  0.54073866205E+00  0.88987937781E+01  0.00000000000E+00 0.  1.
</event>
<event>
 7    1  0.2755991E-011  0.5052886E+02  0.7816164E-02  0.1300439E+00
        -11   -1    0    0    0    0  0.00000000000E+00  0.00000000000E+00  0.45593999997E+02  0.45594000000E+02  0.51100000000E-03 0.  1.
         11   -1    0    0    0    0 -0.00000000000E+00 -0.00000000000E+00 -0.45593999997E+02  0.45594000000E+02  0.51100000000E-03 0. -1.
    9900012    2    1    2    0    0 -0.28300131957E+02 -0.12243252291E+02  0.26502277034E+02  0.50528863469E+02  0.30000011001E+02 0.  0.
         12    1    1    2    0    0  0.28300131957E+02  0.12243252291E+02 -0.26502277034E+02  0.40659136531E+02  0.00000000000E+00 0. -1.
         11    1    3    3    0    0  0.36738530739E+01  0.18152395654E+01  0.16943935088E+01  0.44343275377E+01  0.51100000000E-03 0. -1.
        -11    1    3    3    0    0 -0.43967184646E+01  0.33457348266E+01  0.70692549827E+01  0.89721480738E+01  0.51100000000E-03 0.  1.
        -12    1    3    3    0    0 -0.27577266566E+02 -0.17404226683E+02  0.17738628542E+02  0.37122387858E+02  0.00000000000E+00 0.  1.
</event>
<event>
 7    1  0.2755991E-011  0.5052886E+02  0.7816164E-02  0.1300439E+00
        -11   -1    0    0    0    0  0.00000000000E+00  0.00000000000E+00  0.45593999997E+02  0.45594000000E+02  0.51100000000E-03 0. -1.
         11   -1    0    0    0    0 -0.00000000000E+00 -0.00000000000E+00 -0.45593999997E+02  0.45594000000E+02  0.51100000000E-03 0.  1.
    9900012    2    1    2    0    0 -0.25295128893E+02 -0.31410978099E+02  0.51645457085E+01  0.50528860520E+02  0.30000002037E+02 0.  0.
         12    1    1    2    0    0  0.25295128893E+02  0.31410978099E+02 -0.51645457085E+01  0.40659139480E+02  0.00000000000E+00 0. -1.
         11    1    3    3    0    0 -0.32253784505E+01 -0.23533789769E+01 -0.66137577368E+01  0.77254935389E+01  0.51100000000E-03 0. -1.
        -11    1    3    3    0    0 -0.24925699061E+02 -0.21227460670E+02  0.83257268947E+01  0.33781848511E+02  0.51100000000E-03 0.  1.
         12    1    3    3    0    0  0.28559486183E+01 -0.78301384515E+01  0.34525765506E+01  0.90215184708E+01  0.00000000000E+00 0. -1.
</event>
<event>
 7    1  0.2755991E-011  0.5052885E+02  0.7816164E-02  0.1300439E+00
        -11   -1    0    0    0    0  0.00000000000E+00  0.00000000000E+00  0.45593999997E+02  0.45594000000E+02  0.51100000000E-03 0.  1.
         11   -1    0    0    0    0 -0.00000000000E+00 -0.00000000000E+00 -0.45593999997E+02  0.45594000000E+02  0.51100000000E-03 0. -1.
    9900012    2    1    2    0    0  0.69877640014E-01  0.16611261687E+02  0.37111015342E+02  0.50528851491E+02  0.29999974593E+02 0.  0.
         12    1    1    2    0    0 -0.69877640014E-01 -0.16611261687E+02 -0.37111015342E+02  0.40659148509E+02  0.00000000000E+00 0. -1.
         11    1    3    3    0    0  0.65454786101E+01  0.10001040581E+02  0.35121958229E+02  0.37100081577E+02  0.51100000000E-03 0. -1.
        -11    1    3    3    0    0  0.11447633022E+00  0.22909699524E+01 -0.32417056166E+01  0.39711841708E+01  0.51100000000E-03 0.  1.
        -12    1    3    3    0    0 -0.65900773003E+01  0.43192511537E+01  0.52307627298E+01  0.94575857431E+01  0.00000000000E+00 0.  1.
</event>
<event>
 7    1  0.2755991E-011  0.5052888E+02  0.7816164E-02  0.1300439E+00
        -11   -1    0    0    0    0  0.00000000000E+00  0.00000000000E+00  0.45593999997E+02  0.45594000000E+02  0.51100000000E-03 0.  1.
         11   -1    0    0    0    0 -0.00000000000E+00 -0.00000000000E+00 -0.45593999997E+02  0.45594000000E+02  0.51100000000E-03 0. -1.
    9900012    2    1    2    0    0  0.58213543678E+01  0.39939933501E+02  0.49069031477E+01  0.50528878597E+02  0.30000056984E+02 0.  0.
         12    1    1    2    0    0 -0.58213543678E+01 -0.39939933501E+02 -0.49069031477E+01  0.40659121403E+02  0.00000000000E+00 0. -1.
         11    1    3    3    0    0  0.12560203718E+01  0.94125416023E+01  0.80509905968E+01  0.12449577360E+02  0.51100000000E-03 0. -1.
        -11    1    3    3    0    0  0.38876155085E+01  0.27903755302E+02  0.57737922581E+01  0.28758821110E+02  0.51100000000E-03 0.  1.
         12    1    3    3    0    0  0.67771848743E+00  0.26236365963E+01 -0.89178797072E+01  0.93204801276E+01  0.00000000000E+00 0. -1.
</event>
<event>
 7    1  0.2755991E-011  0.5052886E+02  0.7816164E-02  0.1300439E+00
        -11   -1    0    0    0    0  0.00000000000E+00  0.00000000000E+00  0.45593999997E+02  0.45594000000E+02  0.51100000000E-03 0.  1.
         11   -1    0    0    0    0 -0.00000000000E+00 -0.00000000000E+00 -0.45593999997E+02  0.45594000000E+02  0.51100000000E-03 0. -1.
    9900012    2    1    2    0    0 -0.36637242214E+02 -0.13801139142E+02  0.10972996756E+02  0.50528860604E+02  0.30000002291E+02 0.  0.
         12    1    1    2    0    0  0.36637242214E+02  0.13801139142E+02 -0.10972996756E+02  0.40659139396E+02  0.00000000000E+00 0. -1.
         11    1    3    3    0    0 -0.15217196154E+02 -0.47657323178E+01  0.12020923888E+02  0.19969423494E+02  0.51100000000E-03 0. -1.
        -11    1    3    3    0    0 -0.13350815173E+01 -0.37698807691E+01  0.71850218940E+01  0.82230762826E+01  0.51100000000E-03 0.  1.
        -12    1    3    3    0    0 -0.20084964543E+02 -0.52655260554E+01 -0.82329490265E+01  0.22336360827E+02  0.00000000000E+00 0.  1.
</event>
<event>
 7    1  0.2755991E-011  0.5052885E+02  0.7816164E-02  0.1300439E+00
        -11   -1    0    0    0    0  0.00000000000E+00  0.00000000000E+00  0.45593999997E+02  0.45594000000E+02  0.51100000000E-03 0. -1.
         11   -1    0    0    0    0 -0.00000000000E+00 -0.00000000000E+00 -0.45593999997E+02  0.45594000000E+02  0.51100000000E-03 0.  1.
    9900012    2    1    2    0    0  0.29225313871E+02 -0.24177116785E+02 -0.14646310095E+02  0.50528851628E+02  0.29999975009E+02 0.  0.
         12    1    1    2    0    0 -0.29225313871E+02  0.24177116785E+02  0.14646310095E+02  0.40659148372E+02  0.00000000000E+00 0. -1.
         11    1    3    3    0    0 -0.36086349694E+01 -0.32783352490E+01 -0.40882130078E+01  0.63626420774E+01  0.51100000000E-03 0. -1.
        -11    1    3    3    0    0  0.90801654259E+00  0.19838940279E+01 -0.36957639871E+01  0.42917363928E+01  0.51100000000E-03 0.  1.
        -12    1    3    3    0    0  0.31925932298E+02 -0.22882675564E+02 -0.68623331000E+01  0.39874473158E+02  0.00000000000E+00 0.  1.
</event>
<event>
 7    1  0.2755991E-011  0.5052886E+02  0.7816164E-02  0.1300439E+00
        -11   -1    0    0    0    0  0.00000000000E+00  0.00000000000E+00  0.45593999997E+02  0.45594000000E+02  0.51100000000E-03 0.  1.
         11   -1    0    0    0    0 -0.00000000000E+00 -0.00000000000E+00 -0.45593999997E+02  0.45594000000E+02  0.51100000000E-03 0. -1.
    9900012    2    1    2    0    0  0.17868329642E+02  0.26745056323E+02  0.24871470904E+02  0.50528864411E+02  0.30000013863E+02 0.  0.
         12    1    1    2    0    0 -0.17868329642E+02 -0.26745056323E+02 -0.24871470904E+02  0.40659135589E+02  0.00000000000E+00 0. -1.
         11    1    3    3    0    0 -0.24402069939E+01  0.72236381222E+01  0.11353428529E+02  0.13676106812E+02  0.51100000000E-03 0. -1.
        -11    1    3    3    0    0 -0.12611067512E+01  0.10962486828E+02  0.52295098786E+01  0.12211235872E+02  0.51100000000E-03 0.  1.
         12    1    3    3    0    0  0.21569643387E+02  0.85589313726E+01  0.82885324963E+01  0.24641521727E+02  0.00000000000E+00 0. -1.
</event>
<event>
 7    1  0.2755991E-011  0.5052882E+02  0.7816164E-02  0.1300439E+00
        -11   -1    0    0    0    0  0.00000000000E+00  0.00000000000E+00  0.45593999997E+02  0.45594000000E+02  0.51100000000E-03 0. -1.
         11   -1    0    0    0    0 -0.00000000000E+00 -0.00000000000E+00 -0.45593999997E+02  0.45594000000E+02  0.51100000000E-03 0.  1.
    9900012    2    1    2    0    0 -0.24014847098E+02 -0.25284769930E+02  0.20907815246E+02  0.50528816414E+02  0.29999867972E+02 0.  0.
         12    1    1    2    0    0  0.24014847098E+02  0.25284769930E+02 -0.20907815246E+02  0.40659183586E+02  0.00000000000E+00 0. -1.
         11    1    3    3    0    0 -0.62557044069E+01 -0.18570809520E+02  0.15059072318E+02  0.24714053961E+02  0.51100000000E-03 0. -1.
        -11    1    3    3    0    0 -0.77663044495E+01 -0.11503554221E+02  0.17054431733E+01  0.13984126044E+02  0.51100000000E-03 0.  1.
         12    1    3    3    0    0 -0.99928382411E+01  0.47895938113E+01  0.41432997542E+01  0.11830636409E+02  0.00000000000E+00 0. -1.
</event>
<event>
 7    1  0.2755991E-011  0.5052886E+02  0.7816164E-02  0.1300439E+00
        -11   -1    0    0    0    0  0.00000000000E+00  0.00000000000E+00  0.45593999997E+02  0.45594000000E+02  0.51100000000E-03 0.  1.
         11   -1    0    0    0    0 -0.00000000000E+00 -0.00000000000E+00 -0.45593999997E+02  0.45594000000E+02  0.51100000000E-03 0. -1.
    9900012    2    1    2    0    0  0.33506869658E+02 -0.21161674917E+00  0.23030645599E+02  0.50528859175E+02  0.29999997948E+02 0.  0.
         12    1    1    2    0    0 -0.33506869658E+02  0.21161674917E+00 -0.23030645599E+02  0.40659140825E+02  0.00000000000E+00 0. -1.
         11    1    3    3    0    0  0.62678006968E+01  0.17356195942E+01 -0.42430837650E+01  0.77654015381E+01  0.51100000000E-03 0. -1.
        -11    1    3    3    0    0  0.84910737282E+01 -0.67662014209E+01  0.21847666388E+01  0.11074882404E+02  0.51100000000E-03 0.  1.
        -12    1    3    3    0    0  0.18747995233E+02  0.48189650775E+01  0.25088962725E+02  0.31688575233E+02  0.00000000000E+00 0.  1.
</event>
<event>
 7    1  0.2755991E-011  0.5052886E+02  0.7816164E-02  0.1300439E+00
        -11   -1    0    0    0    0  0.00000000000E+00  0.00000000000E+00  0.45593999997E+02  0.45594000000E+02  0.51100000000E-03 0.  1.
         11   -1    0    0    0    0 -0.00000000000E+00 -0.00000000000E+00 -0.45593999997E+02  0.45594000000E+02  0.51100000000E-03 0. -1.
    9900012    2    1    2    0    0 -0.32686352964E+02  0.19869251275E+02  0.13783356202E+02  0.50528859275E+02  0.29999998252E+02 0.  0.
         12    1    1    2    0    0  0.32686352964E+02 -0.19869251275E+02 -0.13783356202E+02  0.40659140725E+02  0.00000000000E+00 0. -1.
         11    1    3    3    0    0 -0.22422141811E+01  0.14513177448E+02  0.18763751199E+01  0.14804750181E+02  0.51100000000E-03 0. -1.
        -11    1    3    3    0    0 -0.15263735973E+02  0.93060102237E+01  0.48448338313E+01  0.18521767660E+02  0.51100000000E-03 0.  1.
        -12    1    3    3    0    0 -0.15180402810E+02 -0.39499363971E+01  0.70621472507E+01  0.17202341434E+02  0.00000000000E+00 0.  1.
</event>
<event>
 7    1  0.2755991E-011  0.5052893E+02  0.7816164E-02  0.1300439E+00
        -11   -1    0    0    0    0  0.00000000000E+00  0.00000000000E+00  0.45593999997E+02  0.45594000000E+02  0.51100000000E-03 0. -1.
         11   -1    0    0    0    0 -0.00000000000E+00 -0.00000000000E+00 -0.45593999997E+02  0.45594000000E+02  0.51100000000E-03 0.  1.
    9900012    2    1    2    0    0 -0.23203743748E+02  0.33173505578E+02 -0.37768917695E+01  0.50528928347E+02  0.30000208202E+02 0.  0.
         12    1    1    2    0    0  0.23203743748E+02 -0.33173505578E+02  0.37768917695E+01  0.40659071653E+02  0.00000000000E+00 0. -1.
         11    1    3    3    0    0 -0.17950468476E+02  0.97273824000E+01  0.76655640289E+00  0.20431076718E+02  0.51100000000E-03 0. -1.
        -11    1    3    3    0    0 -0.10682439562E+02  0.12575972428E+02 -0.66053620626E+01  0.17773587307E+02  0.51100000000E-03 0.  1.
         12    1    3    3    0    0  0.54291642896E+01  0.10870150750E+02  0.20619138902E+01  0.12324264323E+02  0.00000000000E+00 0. -1.
</event>
<event>
 7    1  0.2755991E-011  0.5052886E+02  0.7816164E-02  0.1300439E+00
        -11   -1    0    0    0    0  0.00000000000E+00  0.00000000000E+00  0.45593999997E+02  0.45594000000E+02  0.51100000000E-03 0. -1.
         11   -1    0    0    0    0 -0.00000000000E+00 -0.00000000000E+00 -0.45593999997E+02  0.45594000000E+02  0.51100000000E-03 0.  1.
    9900012    2    1    2    0    0  0.20878685350E+02  0.22350004033E+02 -0.26790358689E+02  0.50528862024E+02  0.30000006609E+02 0.  0.
         12    1    1    2    0    0 -0.20878685350E+02 -0.22350004033E+02  0.26790358689E+02  0.40659137976E+02  0.00000000000E+00 0. -1.
         11    1    3    3    0    0  0.93481457003E+01  0.73045157703E+01 -0.44280312805E+01  0.12662987008E+02  0.51100000000E-03 0. -1.
        -11    1    3    3    0    0  0.83043168050E+01 -0.58734198654E+00  0.21648824263E+01  0.86019395713E+01  0.51100000000E-03 0.  1.
        -12    1    3    3    0    0  0.32262228451E+01  0.15632830249E+02 -0.24527209835E+02  0.29263935445E+02  0.00000000000E+00 0.  1.
</event>
<event>
 7    1  0.2755991E-011  0.5052886E+02  0.7816164E-02  0.1300439E+00
        -11   -1    0    0    0    0  0.00000000000E+00  0.00000000000E+00  0.45593999997E+02  0.45594000000E+02  0.51100000000E-03 0. -1.
         11   -1    0    0    0    0 -0.00000000000E+00 -0.00000000000E+00 -0.45593999997E+02  0.45594000000E+02  0.51100000000E-03 0.  1.
    9900012    2    1    2    0    0  0.27703964723E+02  0.21417982556E+02 -0.20662182622E+02  0.50528862911E+02  0.30000009303E+02 0.  0.
         12    1    1    2    0    0 -0.27703964723E+02 -0.21417982556E+02  0.20662182622E+02  0.40659137089E+02  0.00000000000E+00 0. -1.
         11    1    3    3    0    0 -0.18200196528E-01  0.84046460840E+01 -0.29475957573E+01  0.89065553417E+01  0.51100000000E-03 0. -1.
        -11    1    3    3    0    0  0.11856876107E+02  0.15917798031E+02 -0.15821357626E+02  0.25382615362E+02  0.51100000000E-03 0.  1.
         12    1    3    3    0    0  0.15865288812E+02 -0.29044615594E+01 -0.18932292388E+01  0.16239692207E+02  0.00000000000E+00 0. -1.
</event>
<event>
 7    1  0.2755991E-011  0.5052886E+02  0.7816164E-02  0.1300439E+00
        -11   -1    0    0    0    0  0.00000000000E+00  0.00000000000E+00  0.45593999997E+02  0.45594000000E+02  0.51100000000E-03 0. -1.
         11   -1    0    0    0    0 -0.00000000000E+00 -0.00000000000E+00 -0.45593999997E+02  0.45594000000E+02  0.51100000000E-03 0.  1.
    9900012    2    1    2    0    0  0.87638377401E+01  0.38155465889E+02  0.10978203700E+02  0.50528863442E+02  0.30000010919E+02 0.  0.
         12    1    1    2    0    0 -0.87638377401E+01 -0.38155465889E+02 -0.10978203700E+02  0.40659136558E+02  0.00000000000E+00 0. -1.
         11    1    3    3    0    0  0.90770557084E+01  0.15431760484E+02  0.94968476746E+01  0.20266284513E+02  0.51100000000E-03 0. -1.
        -11    1    3    3    0    0 -0.63851106184E+01  0.23070280735E+02  0.26014508937E+01  0.24078518181E+02  0.51100000000E-03 0.  1.
        -12    1    3    3    0    0  0.60718926502E+01 -0.34657532994E+00 -0.11200948682E+01  0.61840607475E+01  0.00000000000E+00 0.  1.
</event>
<event>
 7    1  0.2755991E-011  0.5052881E+02  0.7816164E-02  0.1300439E+00
        -11   -1    0    0    0    0  0.00000000000E+00  0.00000000000E+00  0.45593999997E+02  0.45594000000E+02  0.51100000000E-03 0. -1.
         11   -1    0    0    0    0 -0.00000000000E+00 -0.00000000000E+00 -0.45593999997E+02  0.45594000000E+02  0.51100000000E-03 0.  1.
    9900012    2    1    2    0    0 -0.48323312560E+01 -0.69810951224E+01 -0.39762830791E+02  0.50528808826E+02  0.29999844906E+02 0.  0.
         12    1    1    2    0    0  0.48323312560E+01  0.69810951224E+01  0.39762830791E+02  0.40659191174E+02  0.00000000000E+00 0. -1.
         11    1    3    3    0    0  0.97135987922E+00 -0.11849499889E+02 -0.16077552612E+02  0.19996046757E+02  0.51100000000E-03 0.  1.
        -11    1    3    3    0    0 -0.25938510207E+01  0.31128527387E+01  0.20484470226E+01  0.45402698991E+01  0.51100000000E-03 0. -1.
         12    1    3    3    0    0 -0.32098401145E+01  0.17555520281E+01 -0.25733725201E+02  0.25992492170E+02  0.00000000000E+00 0. -1.
</event>
<event>
 7    1  0.2755991E-011  0.5052886E+02  0.7816164E-02  0.1300439E+00
        -11   -1    0    0    0    0  0.00000000000E+00  0.00000000000E+00  0.45593999997E+02  0.45594000000E+02  0.51100000000E-03 0.  1.
         11   -1    0    0    0    0 -0.00000000000E+00 -0.00000000000E+00 -0.45593999997E+02  0.45594000000E+02  0.51100000000E-03 0. -1.
    9900012    2    1    2    0    0 -0.44730621583E+01 -0.95406974496E+00  0.40401083157E+02  0.50528855218E+02  0.29999985920E+02 0.  0.
         12    1    1    2    0    0  0.44730621583E+01  0.95406974496E+00 -0.40401083157E+02  0.40659144782E+02  0.00000000000E+00 0. -1.
         11    1    3    3    0    0  0.34218419970E+01 -0.27512676520E+01  0.13005878847E+02  0.13727030312E+02  0.51100000000E-03 0. -1.
        -11    1    3    3    0    0  0.58621508144E+01  0.75599334930E+01  0.12281251128E+02  0.15567483295E+02  0.51100000000E-03 0.  1.
         12    1    3    3    0    0 -0.13757054970E+02 -0.57627355860E+01  0.15113953182E+02  0.21234341611E+02  0.00000000000E+00 0. -1.
</event>
<event>
 7    1  0.2755991E-011  0.5052887E+02  0.7816164E-02  0.1300439E+00
        -11   -1    0    0    0    0  0.00000000000E+00  0.00000000000E+00  0.45593999997E+02  0.45594000000E+02  0.51100000000E-03 0.  1.
         11   -1    0    0    0    0 -0.00000000000E+00 -0.00000000000E+00 -0.45593999997E+02  0.45594000000E+02  0.51100000000E-03 0. -1.
    9900012    2    1    2    0    0  0.76467627973E+01  0.31785313952E+02  0.24174074560E+02  0.50528867629E+02  0.30000023644E+02 0.  0.
         12    1    1    2    0    0 -0.76467627973E+01 -0.31785313952E+02 -0.24174074560E+02  0.40659132371E+02  0.00000000000E+00 0. -1.
         11    1    3    3    0    0 -0.38236890691E+01  0.58175882534E+01  0.18023007144E+01  0.71911903959E+01  0.51100000000E-03 0. -1.
        -11    1    3    3    0    0 -0.34635994566E+01  0.20846577517E+02  0.14992971510E+02  0.25910721918E+02  0.51100000000E-03 0.  1.
         12    1    3    3    0    0  0.14934051323E+02  0.51211481819E+01  0.73788023363E+01  0.17426955315E+02  0.00000000000E+00 0. -1.
</event>
<event>
 7    1  0.2755991E-011  0.5052888E+02  0.7816164E-02  0.1300439E+00
        -11   -1    0    0    0    0  0.00000000000E+00  0.00000000000E+00  0.45593999997E+02  0.45594000000E+02  0.51100000000E-03 0.  1.
         11   -1    0    0    0    0 -0.00000000000E+00 -0.00000000000E+00 -0.45593999997E+02  0.45594000000E+02  0.51100000000E-03 0. -1.
    9900012    2    1    2    0    0 -0.27022357065E+01 -0.29605833916E+02  0.27737273227E+02  0.50528882870E+02  0.30000069972E+02 0.  0.
         12    1    1    2    0    0  0.27022357065E+01  0.29605833916E+02 -0.27737273227E+02  0.40659117130E+02  0.00000000000E+00 0. -1.
         11    1    3    3    0    0 -0.10818890263E+02 -0.31031852621E+01  0.71974343048E+01  0.13359685855E+02  0.51100000000E-03 0. -1.
        -11    1    3    3    0    0 -0.13055241253E+01 -0.30624365864E+01  0.86096374227E+01  0.92308595428E+01  0.51100000000E-03 0.  1.
         12    1    3    3    0    0  0.94221786821E+01 -0.23440212068E+02  0.11930201500E+02  0.27938337473E+02  0.00000000000E+00 0. -1.
</event>
<event>
 7    1  0.2755991E-011  0.5052887E+02  0.7816164E-02  0.1300439E+00
        -11   -1    0    0    0    0  0.00000000000E+00  0.00000000000E+00  0.45593999997E+02  0.45594000000E+02  0.51100000000E-03 0.  1.
         11   -1    0    0    0    0 -0.00000000000E+00 -0.00000000000E+00 -0.45593999997E+02  0.45594000000E+02  0.51100000000E-03 0. -1.
    9900012    2    1    2    0    0 -0.31612857065E+02 -0.18237063421E+02  0.17922103258E+02  0.50528868194E+02  0.30000025362E+02 0.  0.
         12    1    1    2    0    0  0.31612857065E+02  0.18237063421E+02 -0.17922103258E+02  0.40659131806E+02  0.00000000000E+00 0. -1.
         11    1    3    3    0    0 -0.31719560861E+01  0.26795179919E+00 -0.14054793462E+01  0.34797235569E+01  0.51100000000E-03 0. -1.
        -11    1    3    3    0    0 -0.21100769587E+02 -0.16372448423E+02  0.48152935207E+00  0.26712008821E+02  0.51100000000E-03 0.  1.
        -12    1    3    3    0    0 -0.73401313926E+01 -0.21325667975E+01  0.18846053252E+02  0.20337135816E+02  0.00000000000E+00 0.  1.
</event>
<event>
 7    1  0.2755991E-011  0.5052886E+02  0.7816164E-02  0.1300439E+00
        -11   -1    0    0    0    0  0.00000000000E+00  0.00000000000E+00  0.45593999997E+02  0.45594000000E+02  0.51100000000E-03 0. -1.
         11   -1    0    0    0    0 -0.00000000000E+00 -0.00000000000E+00 -0.45593999997E+02  0.45594000000E+02  0.51100000000E-03 0.  1.
    9900012    2    1    2    0    0 -0.32459925357E+02  0.24388149827E+02  0.21764600127E+01  0.50528860998E+02  0.30000003491E+02 0.  0.
         12    1    1    2    0    0  0.32459925357E+02 -0.24388149827E+02 -0.21764600127E+01  0.40659139002E+02  0.00000000000E+00 0. -1.
         11    1    3    3    0    0 -0.13359072640E+02  0.90355650736E+01  0.10300120421E+02  0.19136319890E+02  0.51100000000E-03 0. -1.
        -11    1    3    3    0    0  0.18206576214E+01  0.77772466477E+01 -0.31928324433E+01  0.86020078392E+01  0.51100000000E-03 0.  1.
         12    1    3    3    0    0 -0.20921510339E+02  0.75753381055E+01 -0.49308279647E+01  0.22790533269E+02  0.00000000000E+00 0. -1.
</event>
<event>
 7    1  0.2755991E-011  0.5052886E+02  0.7816164E-02  0.1300439E+00
        -11   -1    0    0    0    0  0.00000000000E+00  0.00000000000E+00  0.45593999997E+02  0.45594000000E+02  0.51100000000E-03 0.  1.
         11   -1    0    0    0    0 -0.00000000000E+00 -0.00000000000E+00 -0.45593999997E+02  0.45594000000E+02  0.51100000000E-03 0. -1.
    9900012    2    1    2    0    0  0.19713899211E+02 -0.34167709329E+02  0.98536882518E+01  0.50528863818E+02  0.30000012060E+02 0.  0.
         12    1    1    2    0    0 -0.19713899211E+02  0.34167709329E+02 -0.98536882518E+01  0.40659136182E+02  0.00000000000E+00 0. -1.
         11    1    3    3    0    0  0.75538743557E+01 -0.43112013855E+01  0.23228290758E+01  0.90023891464E+01  0.51100000000E-03 0. -1.
        -11    1    3    3    0    0  0.63983859118E+01  0.30172756303E+01 -0.82339345321E+00  0.71218867967E+01  0.51100000000E-03 0.  1.
        -12    1    3    3    0    0  0.57616389440E+01 -0.32873783574E+02  0.83542526292E+01  0.34404587874E+02  0.00000000000E+00 0.  1.
</event>
<event>
 7    1  0.2755991E-011  0.5052886E+02  0.7816164E-02  0.1300439E+00
        -11   -1    0    0    0    0  0.00000000000E+00  0.00000000000E+00  0.45593999997E+02  0.45594000000E+02  0.51100000000E-03 0. -1.
         11   -1    0    0    0    0 -0.00000000000E+00 -0.00000000000E+00 -0.45593999997E+02  0.45594000000E+02  0.51100000000E-03 0.  1.
    9900012    2    1    2    0    0 -0.60119511732E+01  0.37843145275E+02 -0.13598479339E+02  0.50528857835E+02  0.29999993876E+02 0.  0.
         12    1    1    2    0    0  0.60119511732E+01 -0.37843145275E+02  0.13598479339E+02  0.40659142165E+02  0.00000000000E+00 0. -1.
         11    1    3    3    0    0  0.11353631704E+01  0.35618216539E+01  0.48233466584E+01  0.61024827957E+01  0.51100000000E-03 0. -1.
        -11    1    3    3    0    0  0.52946563707E+01  0.23038108364E+02 -0.10106459228E+02  0.25708526630E+02  0.51100000000E-03 0.  1.
        -12    1    3    3    0    0 -0.12441970714E+02  0.11243215257E+02 -0.83153667697E+01  0.18717848410E+02  0.00000000000E+00 0.  1.
</event>
<event>
 7    1  0.2755991E-011  0.5052886E+02  0.7816164E-02  0.1300439E+00
        -11   -1    0    0    0    0  0.00000000000E+00  0.00000000000E+00  0.45593999997E+02  0.45594000000E+02  0.51100000000E-03 0.  1.
         11   -1    0    0    0    0 -0.00000000000E+00 -0.00000000000E+00 -0.45593999997E+02  0.45594000000E+02  0.51100000000E-03 0. -1.
    9900012    2    1    2    0    0  0.31030979323E+02  0.74767773237E+01  0.25186141890E+02  0.50528860557E+02  0.30000002149E+02 0.  0.
         12    1    1    2    0    0 -0.31030979323E+02 -0.74767773237E+01 -0.25186141890E+02  0.40659139443E+02  0.00000000000E+00 0. -1.
         11    1    3    3    0    0  0.12796497596E+02  0.15889835400E+02  0.15749337724E+02  0.25773607795E+02  0.51100000000E-03 0. -1.
        -11    1    3    3    0    0  0.63561499316E+01  0.22621327728E+01  0.14571433525E+01  0.69022571414E+01  0.51100000000E-03 0.  1.
        -12    1    3    3    0    0  0.11878331796E+02 -0.10675190849E+02  0.79796608135E+01  0.17852995620E+02  0.00000000000E+00 0.  1.
</event>
<event>
 7    1  0.2755991E-011  0.5052886E+02  0.7816164E-02  0.1300439E+00
        -11   -1    0    0    0    0  0.00000000000E+00  0.00000000000E+00  0.45593999997E+02  0.45594000000E+02  0.51100000000E-03 0. -1.
         11   -1    0    0    0    0 -0.00000000000E+00 -0.00000000000E+00 -0.45593999997E+02  0.45594000000E+02  0.51100000000E-03 0.  1.
    9900012    2    1    2    0    0  0.21918496711E+02 -0.19432301402E+02 -0.28198071263E+02  0.50528855164E+02  0.29999985755E+02 0.  0.
         12    1    1    2    0    0 -0.21918496711E+02  0.19432301402E+02  0.28198071263E+02  0.40659144836E+02  0.00000000000E+00 0. -1.
         11    1    3    3    0    0  0.25609832735E+01 -0.12150370029E+02 -0.30670139009E+01  0.12790492629E+02  0.51100000000E-03 0. -1.
        -11    1    3    3    0    0 -0.13461999667E+01 -0.30136281279E+01 -0.12900534923E+02  0.13316080895E+02  0.51100000000E-03 0.  1.
         12    1    3    3    0    0  0.20703713405E+02 -0.42683032455E+01 -0.12230522439E+02  0.24422281639E+02  0.00000000000E+00 0. -1.
</event>
<event>
 7    1  0.2755991E-011  0.5052890E+02  0.7816164E-02  0.1300439E+00
        -11   -1    0    0    0    0  0.00000000000E+00  0.00000000000E+00  0.45593999997E+02  0.45594000000E+02  0.51100000000E-03 0.  1.
         11   -1    0    0    0    0 -0.00000000000E+00 -0.00000000000E+00 -0.45593999997E+02  0.45594000000E+02  0.51100000000E-03 0. -1.
    9900012    2    1    2    0    0 -0.56605340489E+00  0.26672763793E+02  0.30682339662E+02  0.50528896321E+02  0.30000110858E+02 0.  0.
         12    1    1    2    0    0  0.56605340489E+00 -0.26672763793E+02 -0.30682339662E+02  0.40659103679E+02  0.00000000000E+00 0. -1.
         11    1    3    3    0    0  0.26410486851E+01 -0.19164741147E+01  0.12215526703E+01  0.34842793196E+01  0.51100000000E-03 0. -1.
        -11    1    3    3    0    0 -0.22520177789E+01 -0.95875190222E+00  0.12957736361E+02  0.13186876853E+02  0.51100000000E-03 0.  1.
         12    1    3    3    0    0 -0.95508431104E+00  0.29547989810E+02  0.16503050631E+02  0.33857740149E+02  0.00000000000E+00 0. -1.
</event>
<event>
 7    1  0.2755991E-011  0.5052887E+02  0.7816164E-02  0.1300439E+00
        -11   -1    0    0    0    0  0.00000000000E+00  0.00000000000E+00  0.45593999997E+02  0.45594000000E+02  0.51100000000E-03 0. -1.
         11   -1    0    0    0    0 -0.00000000000E+00 -0.00000000000E+00 -0.45593999997E+02  0.45594000000E+02  0.51100000000E-03 0.  1.
    9900012    2    1    2    0    0 -0.19289211811E+02 -0.62908685869E+01 -0.35235156869E+02  0.50528868191E+02  0.30000025353E+02 0.  0.
         12    1    1    2    0    0  0.19289211811E+02  0.62908685869E+01  0.35235156869E+02  0.40659131809E+02  0.00000000000E+00 0. -1.
         11    1    3    3    0    0 -0.13800254614E+02 -0.75273883070E+01 -0.40346643417E+01  0.16229205734E+02  0.51100000000E-03 0. -1.
        -11    1    3    3    0    0 -0.33429334624E+01 -0.58747014302E+01 -0.16447518677E+02  0.17782243725E+02  0.51100000000E-03 0.  1.
         12    1    3    3    0    0 -0.21460237345E+01  0.71112211503E+01 -0.14752973851E+02  0.16517418732E+02  0.00000000000E+00 0. -1.
</event>
<event>
 7    1  0.2755991E-011  0.5052886E+02  0.7816164E-02  0.1300439E+00
        -11   -1    0    0    0    0  0.00000000000E+00  0.00000000000E+00  0.45593999997E+02  0.45594000000E+02  0.51100000000E-03 0.  1.
         11   -1    0    0    0    0 -0.00000000000E+00 -0.00000000000E+00 -0.45593999997E+02  0.45594000000E+02  0.51100000000E-03 0. -1.
    9900012    2    1    2    0    0  0.25411479314E+01  0.35516444319E+02  0.19628809219E+02  0.50528863250E+02  0.30000010334E+02 0.  0.
         12    1    1    2    0    0 -0.25411479314E+01 -0.35516444319E+02 -0.19628809219E+02  0.40659136750E+02  0.00000000000E+00 0. -1.
         11    1    3    3    0    0 -0.59754107518E+01  0.49108811805E+01  0.93977271701E+01  0.12171259748E+02  0.51100000000E-03 0. -1.
        -11    1    3    3    0    0  0.34424626429E+01  0.69583196983E-01  0.62664087630E+01  0.71500538401E+01  0.51100000000E-03 0.  1.
        -12    1    3    3    0    0  0.50740960403E+01  0.30535979942E+02  0.39646732863E+01  0.31207549662E+02  0.00000000000E+00 0.  1.
</event>
<event>
 7    1  0.2755991E-011  0.5052885E+02  0.7816164E-02  0.1300439E+00
        -11   -1    0    0    0    0  0.00000000000E+00  0.00000000000E+00  0.45593999997E+02  0.45594000000E+02  0.51100000000E-03 0.  1.
         11   -1    0    0    0    0 -0.00000000000E+00 -0.00000000000E+00 -0.45593999997E+02  0.45594000000E+02  0.51100000000E-03 0. -1.
    9900012    2    1    2    0    0  0.39914479886E+02  0.75271148912E+01  0.18285034767E+01  0.50528848655E+02  0.29999965971E+02 0.  0.
         12    1    1    2    0    0 -0.39914479886E+02 -0.75271148912E+01 -0.18285034767E+01  0.40659151345E+02  0.00000000000E+00 0. -1.
         11    1    3    3    0    0  0.26182305868E+02  0.37806394553E+01  0.67561035104E+01  0.27302954239E+02  0.51100000000E-03 0. -1.
        -11    1    3    3    0    0  0.54552441790E+01  0.23736759964E+01  0.66532661414E+01  0.89252438285E+01  0.51100000000E-03 0.  1.
         12    1    3    3    0    0  0.82769298391E+01  0.13727994395E+01 -0.11580866175E+02  0.14300650588E+02  0.00000000000E+00 0. -1.
</event>
<event>
 7    1  0.2755991E-011  0.5052886E+02  0.7816164E-02  0.1300439E+00
        -11   -1    0    0    0    0  0.00000000000E+00  0.00000000000E+00  0.45593999997E+02  0.45594000000E+02  0.51100000000E-03 0.  1.
         11   -1    0    0    0    0 -0.00000000000E+00 -0.00000000000E+00 -0.45593999997E+02  0.45594000000E+02  0.51100000000E-03 0. -1.
    9900012    2    1    2    0    0 -0.39843355461E+02  0.72564179515E+01  0.36079505509E+01  0.50528857325E+02  0.29999992326E+02 0.  0.
         12    1    1    2    0    0  0.39843355461E+02 -0.72564179515E+01 -0.36079505509E+01  0.40659142675E+02  0.00000000000E+00 0. -1.
         11    1    3    3    0    0 -0.17473082797E+02 -0.46031643618E+01 -0.52361723388E+01  0.18812635265E+02  0.51100000000E-03 0. -1.
        -11    1    3    3    0    0 -0.19922086194E+02  0.17826256309E+01  0.69488468551E+01  0.21174365288E+02  0.51100000000E-03 0.  1.
        -12    1    3    3    0    0 -0.24481864694E+01  0.10076956682E+02  0.18952760347E+01  0.10541856773E+02  0.00000000000E+00 0.  1.
</event>
<event>
 7    1  0.2755991E-011  0.5052886E+02  0.7816164E-02  0.1300439E+00
        -11   -1    0    0    0    0  0.00000000000E+00  0.00000000000E+00  0.45593999997E+02  0.45594000000E+02  0.51100000000E-03 0.  1.
         11   -1    0    0    0    0 -0.00000000000E+00 -0.00000000000E+00 -0.45593999997E+02  0.45594000000E+02  0.51100000000E-03 0. -1.
    9900012    2    1    2    0    0 -0.32312477629E+02  0.23965219115E+02  0.58938991856E+01  0.50528856067E+02  0.29999988501E+02 0.  0.
         12    1    1    2    0    0  0.32312477629E+02 -0.23965219115E+02 -0.58938991856E+01  0.40659143933E+02  0.00000000000E+00 0. -1.
         11    1    3    3    0    0 -0.60800290885E+01  0.25512466080E+01 -0.18308571521E+01  0.68430732236E+01  0.51100000000E-03 0. -1.
        -11    1    3    3    0    0 -0.10966685898E+02  0.36195686359E+01 -0.92038865373E+01  0.14767565959E+02  0.51100000000E-03 0.  1.
        -12    1    3    3    0    0 -0.15265762642E+02  0.17794403871E+02  0.16928642875E+02  0.28918216884E+02  0.00000000000E+00 0.  1.
</event>
<event>
 7    1  0.2755991E-011  0.5052886E+02  0.7816164E-02  0.1300439E+00
        -11   -1    0    0    0    0  0.00000000000E+00  0.00000000000E+00  0.45593999997E+02  0.45594000000E+02  0.51100000000E-03 0.  1.
         11   -1    0    0    0    0 -0.00000000000E+00 -0.00000000000E+00 -0.45593999997E+02  0.45594000000E+02  0.51100000000E-03 0. -1.
    9900012    2    1    2    0    0 -0.43730939907E+01 -0.13268900915E+02  0.38183476233E+02  0.50528861546E+02  0.30000005156E+02 0.  0.
         12    1    1    2    0    0  0.43730939907E+01  0.13268900915E+02 -0.38183476233E+02  0.40659138454E+02  0.00000000000E+00 0. -1.
         11    1    3    3    0    0 -0.28173229022E+01 -0.91061576672E+01  0.22232613353E+01  0.97878652944E+01  0.51100000000E-03 0. -1.
        -11    1    3    3    0    0 -0.34573925632E+01 -0.99518051048E+01  0.11775433427E+02  0.15800405717E+02  0.51100000000E-03 0.  1.
        -12    1    3    3    0    0  0.19016214747E+01  0.57890618567E+01  0.24184781471E+02  0.24940590535E+02  0.00000000000E+00 0.  1.
</event>
<event>
 7    1  0.2755991E-011  0.5052892E+02  0.7816164E-02  0.1300439E+00
        -11   -1    0    0    0    0  0.00000000000E+00  0.00000000000E+00  0.45593999997E+02  0.45594000000E+02  0.51100000000E-03 0. -1.
         11   -1    0    0    0    0 -0.00000000000E+00 -0.00000000000E+00 -0.45593999997E+02  0.45594000000E+02  0.51100000000E-03 0.  1.
    9900012    2    1    2    0    0 -0.26226231855E+02 -0.27724146205E+02 -0.14025604299E+02  0.50528916193E+02  0.30000171259E+02 0.  0.
         12    1    1    2    0    0  0.26226231855E+02  0.27724146205E+02  0.14025604299E+02  0.40659083807E+02  0.00000000000E+00 0. -1.
         11    1    3    3    0    0 -0.26549634944E+01 -0.19795392614E+01  0.39502165208E+01  0.51547664997E+01  0.51100000000E-03 0. -1.
        -11    1    3    3    0    0 -0.20172528761E+02 -0.15581810326E+02 -0.12630863125E+01  0.25520954468E+02  0.51100000000E-03 0.  1.
        -12    1    3    3    0    0 -0.33987395993E+01 -0.10162796618E+02 -0.16712734507E+02  0.19853195226E+02  0.00000000000E+00 0.  1.
</event>
<event>
 7    1  0.2755991E-011  0.5052886E+02  0.7816164E-02  0.1300439E+00
        -11   -1    0    0    0    0  0.00000000000E+00  0.00000000000E+00  0.45593999997E+02  0.45594000000E+02  0.51100000000E-03 0.  1.
         11   -1    0    0    0    0 -0.00000000000E+00 -0.00000000000E+00 -0.45593999997E+02  0.45594000000E+02  0.51100000000E-03 0. -1.
    9900012    2    1    2    0    0 -0.27776967360E+02 -0.66765734124E+01  0.28931456804E+02  0.50528859072E+02  0.29999997634E+02 0.  0.
         12    1    1    2    0    0  0.27776967360E+02  0.66765734124E+01 -0.28931456804E+02  0.40659140928E+02  0.00000000000E+00 0. -1.
         11    1    3    3    0    0 -0.18622159736E+00 -0.59317518786E+01  0.18855111032E+02  0.19767032431E+02  0.51100000000E-03 0. -1.
        -11    1    3    3    0    0 -0.96351570394E+01  0.29690140721E+01  0.67333795357E+01  0.12123930714E+02  0.51100000000E-03 0.  1.
        -12    1    3    3    0    0 -0.17955588723E+02 -0.37138356059E+01  0.33429662362E+01  0.18637895926E+02  0.00000000000E+00 0.  1.
</event>
<event>
 7    1  0.2755991E-011  0.5052885E+02  0.7816164E-02  0.1300439E+00
        -11   -1    0    0    0    0  0.00000000000E+00  0.00000000000E+00  0.45593999997E+02  0.45594000000E+02  0.51100000000E-03 0.  1.
         11   -1    0    0    0    0 -0.00000000000E+00 -0.00000000000E+00 -0.45593999997E+02  0.45594000000E+02  0.51100000000E-03 0. -1.
    9900012    2    1    2    0    0  0.36205925669E+02 -0.17801855402E+02 -0.50389736207E+01  0.50528851405E+02  0.29999974330E+02 0.  0.
         12    1    1    2    0    0 -0.36205925669E+02  0.17801855402E+02  0.50389736207E+01  0.40659148595E+02  0.00000000000E+00 0. -1.
         11    1    3    3    0    0  0.13923329064E+02 -0.94057088732E+01  0.16742862233E+01  0.16885783554E+02  0.51100000000E-03 0. -1.
        -11    1    3    3    0    0  0.23047488972E+02 -0.13697276261E+02 -0.26916156244E+01  0.26945257835E+02  0.51100000000E-03 0.  1.
         12    1    3    3    0    0 -0.76489236604E+00  0.53011297323E+01 -0.40216442195E+01  0.66978100152E+01  0.00000000000E+00 0. -1.
</event>
<event>
 7    1  0.2755991E-011  0.5052886E+02  0.7816164E-02  0.1300439E+00
        -11   -1    0    0    0    0  0.00000000000E+00  0.00000000000E+00  0.45593999997E+02  0.45594000000E+02  0.51100000000E-03 0.  1.
         11   -1    0    0    0    0 -0.00000000000E+00 -0.00000000000E+00 -0.45593999997E+02  0.45594000000E+02  0.51100000000E-03 0. -1.
    9900012    2    1    2    0    0 -0.14907827934E+02 -0.15658370918E+02  0.34434546513E+02  0.50528857030E+02  0.29999991427E+02 0.  0.
         12    1    1    2    0    0  0.14907827934E+02  0.15658370918E+02 -0.34434546513E+02  0.40659142970E+02  0.00000000000E+00 0. -1.
         11    1    3    3    0    0 -0.21341838797E+02 -0.54463488513E+01  0.14297898466E+02  0.26259602051E+02  0.51100000000E-03 0. -1.
        -11    1    3    3    0    0  0.30264184060E+01 -0.10603974972E+01  0.23414084939E+01  0.39706227745E+01  0.51100000000E-03 0.  1.
        -12    1    3    3    0    0  0.34075924573E+01 -0.91516245694E+01  0.17795239553E+02  0.20298632204E+02  0.00000000000E+00 0.  1.
</event>
<event>
 7    1  0.2755991E-011  0.5052886E+02  0.7816164E-02  0.1300439E+00
        -11   -1    0    0    0    0  0.00000000000E+00  0.00000000000E+00  0.45593999997E+02  0.45594000000E+02  0.51100000000E-03 0. -1.
         11   -1    0    0    0    0 -0.00000000000E+00 -0.00000000000E+00 -0.45593999997E+02  0.45594000000E+02  0.51100000000E-03 0.  1.
    9900012    2    1    2    0    0  0.16587169916E+02 -0.30879315537E+02 -0.20603373860E+02  0.50528863901E+02  0.30000012315E+02 0.  0.
         12    1    1    2    0    0 -0.16587169916E+02  0.30879315537E+02  0.20603373860E+02  0.40659136099E+02  0.00000000000E+00 0. -1.
         11    1    3    3    0    0  0.47417531321E+01 -0.16520353352E+02  0.63767845681E+00  0.17199213113E+02  0.51100000000E-03 0. -1.
        -11    1    3    3    0    0 -0.57970151716E+00 -0.93014762989E+01 -0.14665653688E+01  0.94342105886E+01  0.51100000000E-03 0.  1.
         12    1    3    3    0    0  0.12425118301E+02 -0.50574858866E+01 -0.19774486948E+02  0.23895440200E+02  0.00000000000E+00 0. -1.
</event>
<event>
 7    1  0.2755991E-011  0.5052886E+02  0.7816164E-02  0.1300439E+00
        -11   -1    0    0    0    0  0.00000000000E+00  0.00000000000E+00  0.45593999997E+02  0.45594000000E+02  0.51100000000E-03 0.  1.
         11   -1    0    0    0    0 -0.00000000000E+00 -0.00000000000E+00 -0.45593999997E+02  0.45594000000E+02  0.51100000000E-03 0. -1.
    9900012    2    1    2    0    0  0.20835513994E+02 -0.31116663928E+02  0.15836685202E+02  0.50528855695E+02  0.29999987370E+02 0.  0.
         12    1    1    2    0    0 -0.20835513994E+02  0.31116663928E+02 -0.15836685202E+02  0.40659144305E+02  0.00000000000E+00 0. -1.
         11    1    3    3    0    0  0.74216888899E+01 -0.62985132015E+01 -0.37707918792E+01  0.10438946603E+02  0.51100000000E-03 0. -1.
        -11    1    3    3    0    0  0.27643229108E+01 -0.73818035476E+01 -0.40245021641E+01  0.88503741560E+01  0.51100000000E-03 0.  1.
        -12    1    3    3    0    0  0.10649502194E+02 -0.17436347179E+02  0.23631979245E+02  0.31239534935E+02  0.00000000000E+00 0.  1.
</event>
<event>
 7    1  0.2755991E-011  0.5052886E+02  0.7816164E-02  0.1300439E+00
        -11   -1    0    0    0    0  0.00000000000E+00  0.00000000000E+00  0.45593999997E+02  0.45594000000E+02  0.51100000000E-03 0.  1.
         11   -1    0    0    0    0 -0.00000000000E+00 -0.00000000000E+00 -0.45593999997E+02  0.45594000000E+02  0.51100000000E-03 0. -1.
    9900012    2    1    2    0    0 -0.20657039102E+02  0.90937650932E+01  0.33819461859E+02  0.50528857996E+02  0.29999994366E+02 0.  0.
         12    1    1    2    0    0  0.20657039102E+02 -0.90937650932E+01 -0.33819461859E+02  0.40659142004E+02  0.00000000000E+00 0. -1.
         11    1    3    3    0    0  0.14678465550E+01  0.80031887392E+01  0.44853672210E+01  0.92910775948E+01  0.51100000000E-03 0. -1.
        -11    1    3    3    0    0 -0.22572087014E+01 -0.57245577852E+01  0.14395443563E+01  0.63196393230E+01  0.51100000000E-03 0.  1.
        -12    1    3    3    0    0 -0.19867676955E+02  0.68151341392E+01  0.27894550282E+02  0.34918141078E+02  0.00000000000E+00 0.  1.
</event>
<event>
 7    1  0.2755991E-011  0.5052886E+02  0.7816164E-02  0.1300439E+00
        -11   -1    0    0    0    0  0.00000000000E+00  0.00000000000E+00  0.45593999997E+02  0.45594000000E+02  0.51100000000E-03 0. -1.
         11   -1    0    0    0    0 -0.00000000000E+00 -0.00000000000E+00 -0.45593999997E+02  0.45594000000E+02  0.51100000000E-03 0.  1.
    9900012    2    1    2    0    0  0.36324379823E+02 -0.47268581993E+01 -0.17645440704E+02  0.50528864058E+02  0.30000012790E+02 0.  0.
         12    1    1    2    0    0 -0.36324379823E+02  0.47268581993E+01  0.17645440704E+02  0.40659135942E+02  0.00000000000E+00 0. -1.
         11    1    3    3    0    0  0.48558372573E+01  0.96350519408E+00 -0.12974414597E+02  0.13886789843E+02  0.51100000000E-03 0. -1.
        -11    1    3    3    0    0  0.25332909590E+01  0.30466531408E+01 -0.50440570716E+01  0.64142162768E+01  0.51100000000E-03 0.  1.
        -12    1    3    3    0    0  0.28935251606E+02 -0.87370165342E+01  0.37303096496E+00  0.30227857938E+02  0.00000000000E+00 0.  1.
</event>
<event>
 7    1  0.2755991E-011  0.5052887E+02  0.7816164E-02  0.1300439E+00
        -11   -1    0    0    0    0  0.00000000000E+00  0.00000000000E+00  0.45593999997E+02  0.45594000000E+02  0.51100000000E-03 0.  1.
         11   -1    0    0    0    0 -0.00000000000E+00 -0.00000000000E+00 -0.45593999997E+02  0.45594000000E+02  0.51100000000E-03 0. -1.
    9900012    2    1    2    0    0 -0.25546131543E+02  0.78269399449E-01  0.31631536860E+02  0.50528867114E+02  0.30000022079E+02 0.  0.
         12    1    1    2    0    0  0.25546131543E+02 -0.78269399449E-01 -0.31631536860E+02  0.40659132886E+02  0.00000000000E+00 0. -1.
         11    1    3    3    0    0  0.45970860175E+01  0.19956170475E+01  0.16365744130E+01  0.52720075230E+01  0.51100000000E-03 0. -1.
        -11    1    3    3    0    0 -0.15639871304E+02  0.65636764109E+01  0.17024761143E+02  0.24031852085E+02  0.51100000000E-03 0.  1.
        -12    1    3    3    0    0 -0.14503346256E+02 -0.84810240589E+01  0.12970201305E+02  0.21225007505E+02  0.00000000000E+00 0.  1.
</event>
<event>
 7    1  0.2755991E-011  0.5052884E+02  0.7816164E-02  0.1300439E+00
        -11   -1    0    0    0    0  0.00000000000E+00  0.00000000000E+00  0.45593999997E+02  0.45594000000E+02  0.51100000000E-03 0.  1.
         11   -1    0    0    0    0 -0.00000000000E+00 -0.00000000000E+00 -0.45593999997E+02  0.45594000000E+02  0.51100000000E-03 0. -1.
    9900012    2    1    2    0    0  0.31346466326E+02  0.10085802898E+02  0.23850423276E+02  0.50528842831E+02  0.29999948270E+02 0.  0.
         12    1    1    2    0    0 -0.31346466326E+02 -0.10085802898E+02 -0.23850423276E+02  0.40659157169E+02  0.00000000000E+00 0. -1.
         11    1    3    3    0    0  0.62757668841E+01  0.30465181172E+01  0.44816777486E+01  0.82916800665E+01  0.51100000000E-03 0.  1.
        -11    1    3    3    0    0  0.22513496544E+02 -0.66380640382E+01  0.10326841733E+02  0.25643031826E+02  0.51100000000E-03 0. -1.
         12    1    3    3    0    0  0.25572028983E+01  0.13677348819E+02  0.90419037944E+01  0.16594130939E+02  0.00000000000E+00 0. -1.
</event>
<event>
 7    1  0.2755991E-011  0.5052885E+02  0.7816164E-02  0.1300439E+00
        -11   -1    0    0    0    0  0.00000000000E+00  0.00000000000E+00  0.45593999997E+02  0.45594000000E+02  0.51100000000E-03 0.  1.
         11   -1    0    0    0    0 -0.00000000000E+00 -0.00000000000E+00 -0.45593999997E+02  0.45594000000E+02  0.51100000000E-03 0. -1.
    9900012    2    1    2    0    0  0.19488029072E+02  0.15699136334E+02  0.32045599474E+02  0.50528848455E+02  0.29999965363E+02 0.  0.
         12    1    1    2    0    0 -0.19488029072E+02 -0.15699136334E+02 -0.32045599474E+02  0.40659151545E+02  0.00000000000E+00 0. -1.
         11    1    3    3    0    0  0.22515391872E+01 -0.46433859805E+01  0.32879780350E+00  0.51709351506E+01  0.51100000000E-03 0. -1.
        -11    1    3    3    0    0  0.20060493631E+02  0.15391525066E+02  0.19684077158E+02  0.32043491421E+02  0.51100000000E-03 0.  1.
         12    1    3    3    0    0 -0.28240037467E+01  0.49509972485E+01  0.12032724512E+02  0.13314421884E+02  0.00000000000E+00 0. -1.
</event>
<event>
 7    1  0.2755991E-011  0.5052886E+02  0.7816164E-02  0.1300439E+00
        -11   -1    0    0    0    0  0.00000000000E+00  0.00000000000E+00  0.45593999997E+02  0.45594000000E+02  0.51100000000E-03 0. -1.
         11   -1    0    0    0    0 -0.00000000000E+00 -0.00000000000E+00 -0.45593999997E+02  0.45594000000E+02  0.51100000000E-03 0.  1.
    9900012    2    1    2    0    0  0.28258507121E+02 -0.14194888353E+01 -0.29199444558E+02  0.50528859136E+02  0.29999997831E+02 0.  0.
         12    1    1    2    0    0 -0.28258507121E+02  0.14194888353E+01  0.29199444558E+02  0.40659140864E+02  0.00000000000E+00 0. -1.
         11    1    3    3    0    0  0.89817341219E+01  0.40106126757E+01 -0.14785365851E+02  0.17758479819E+02  0.51100000000E-03 0. -1.
        -11    1    3    3    0    0  0.16002788043E+02  0.55351931624E+01 -0.12771634422E+02  0.21209484542E+02  0.51100000000E-03 0.  1.
         12    1    3    3    0    0  0.32739849566E+01 -0.10965294673E+02 -0.16424442853E+01  0.11560894775E+02  0.00000000000E+00 0. -1.
</event>
<event>
 7    1  0.2755991E-011  0.5052887E+02  0.7816164E-02  0.1300439E+00
        -11   -1    0    0    0    0  0.00000000000E+00  0.00000000000E+00  0.45593999997E+02  0.45594000000E+02  0.51100000000E-03 0.  1.
         11   -1    0    0    0    0 -0.00000000000E+00 -0.00000000000E+00 -0.45593999997E+02  0.45594000000E+02  0.51100000000E-03 0. -1.
    9900012    2    1    2    0    0  0.31236591997E+02  0.98346232993E+01  0.24098146716E+02  0.50528866092E+02  0.30000018972E+02 0.  0.
         12    1    1    2    0    0 -0.31236591997E+02 -0.98346232993E+01 -0.24098146716E+02  0.40659133908E+02  0.00000000000E+00 0. -1.
         11    1    3    3    0    0  0.58960145929E+01  0.58699346525E+01  0.62990348966E+00  0.83436142991E+01  0.51100000000E-03 0. -1.
        -11    1    3    3    0    0  0.13080345601E+02  0.14032783080E+02  0.13253972485E+02  0.23316994423E+02  0.51100000000E-03 0.  1.
        -12    1    3    3    0    0  0.12260231803E+02 -0.10068094434E+02  0.10214270741E+02  0.18868257370E+02  0.00000000000E+00 0.  1.
</event>
<event>
 7    1  0.2755991E-011  0.5052886E+02  0.7816164E-02  0.1300439E+00
        -11   -1    0    0    0    0  0.00000000000E+00  0.00000000000E+00  0.45593999997E+02  0.45594000000E+02  0.51100000000E-03 0. -1.
         11   -1    0    0    0    0 -0.00000000000E+00 -0.00000000000E+00 -0.45593999997E+02  0.45594000000E+02  0.51100000000E-03 0.  1.
    9900012    2    1    2    0    0 -0.34537780119E+02 -0.17032514395E+02 -0.13046105347E+02  0.50528859984E+02  0.30000000406E+02 0.  0.
         12    1    1    2    0    0  0.34537780119E+02  0.17032514395E+02  0.13046105347E+02  0.40659140016E+02  0.00000000000E+00 0. -1.
         11    1    3    3    0    0  0.35644472544E+01 -0.56895616071E+01 -0.30115380706E+01  0.73583800746E+01  0.51100000000E-03 0. -1.
        -11    1    3    3    0    0 -0.30774641197E+01  0.28481638373E+01 -0.81605363771E+00  0.42718574945E+01  0.51100000000E-03 0.  1.
        -12    1    3    3    0    0 -0.35024763254E+02 -0.14191116625E+02 -0.92185136385E+01  0.38898622414E+02  0.00000000000E+00 0.  1.
</event>
<event>
 7    1  0.2755991E-011  0.5052886E+02  0.7816164E-02  0.1300439E+00
        -11   -1    0    0    0    0  0.00000000000E+00  0.00000000000E+00  0.45593999997E+02  0.45594000000E+02  0.51100000000E-03 0.  1.
         11   -1    0    0    0    0 -0.00000000000E+00 -0.00000000000E+00 -0.45593999997E+02  0.45594000000E+02  0.51100000000E-03 0. -1.
    9900012    2    1    2    0    0  0.47823082433E+01  0.39932740227E+02  0.59725348541E+01  0.50528863429E+02  0.30000010878E+02 0.  0.
         12    1    1    2    0    0 -0.47823082433E+01 -0.39932740227E+02 -0.59725348541E+01  0.40659136571E+02  0.00000000000E+00 0. -1.
         11    1    3    3    0    0  0.28152178283E+01  0.15557415472E+02 -0.19130329480E+01  0.15925398674E+02  0.51100000000E-03 0. -1.
        -11    1    3    3    0    0  0.39310322314E+01  0.14421192400E+02 -0.70668225808E+01  0.16533716651E+02  0.51100000000E-03 0.  1.
        -12    1    3    3    0    0 -0.19639418164E+01  0.99541323549E+01  0.14952390383E+02  0.18069748105E+02  0.00000000000E+00 0.  1.
</event>
<event>
 7    1  0.2755991E-011  0.5052886E+02  0.7816164E-02  0.1300439E+00
        -11   -1    0    0    0    0  0.00000000000E+00  0.00000000000E+00  0.45593999997E+02  0.45594000000E+02  0.51100000000E-03 0.  1.
         11   -1    0    0    0    0 -0.00000000000E+00 -0.00000000000E+00 -0.45593999997E+02  0.45594000000E+02  0.51100000000E-03 0. -1.
    9900012    2    1    2    0    0 -0.21486358479E+02  0.40370215180E+01  0.34281253292E+02  0.50528862396E+02  0.30000007739E+02 0.  0.
         12    1    1    2    0    0  0.21486358479E+02 -0.40370215180E+01 -0.34281253292E+02  0.40659137604E+02  0.00000000000E+00 0. -1.
         11    1    3    3    0    0 -0.16505947790E+02  0.56060990466E+00  0.98549199908E+01  0.19232265707E+02  0.51100000000E-03 0. -1.
        -11    1    3    3    0    0 -0.11923343997E+02  0.31205914001E+01  0.12940422831E+02  0.17870611799E+02  0.51100000000E-03 0.  1.
         12    1    3    3    0    0  0.69429333087E+01  0.35582021326E+00  0.11485910471E+02  0.13425984891E+02  0.00000000000E+00 0. -1.
</event>
<event>
 7    1  0.2755991E-011  0.5052887E+02  0.7816164E-02  0.1300439E+00
        -11   -1    0    0    0    0  0.00000000000E+00  0.00000000000E+00  0.45593999997E+02  0.45594000000E+02  0.51100000000E-03 0.  1.
         11   -1    0    0    0    0 -0.00000000000E+00 -0.00000000000E+00 -0.45593999997E+02  0.45594000000E+02  0.51100000000E-03 0. -1.
    9900012    2    1    2    0    0 -0.22502173650E+02  0.31816170117E+02  0.11599497937E+02  0.50528870001E+02  0.30000030855E+02 0.  0.
         12    1    1    2    0    0  0.22502173650E+02 -0.31816170117E+02 -0.11599497937E+02  0.40659129999E+02  0.00000000000E+00 0. -1.
         11    1    3    3    0    0 -0.16646430140E+02  0.17347238972E+02 -0.38766091486E+00  0.24045386618E+02  0.51100000000E-03 0. -1.
        -11    1    3    3    0    0 -0.94476884887E+01  0.14591743504E+02  0.41651598752E+01  0.17875300090E+02  0.51100000000E-03 0.  1.
        -12    1    3    3    0    0  0.35919449785E+01 -0.12281235926E+00  0.78219989771E+01  0.86081832927E+01  0.00000000000E+00 0.  1.
</event>
<event>
 7    1  0.2755991E-011  0.5052888E+02  0.7816164E-02  0.1300439E+00
        -11   -1    0    0    0    0  0.00000000000E+00  0.00000000000E+00  0.45593999997E+02  0.45594000000E+02  0.51100000000E-03 0. -1.
         11   -1    0    0    0    0 -0.00000000000E+00 -0.00000000000E+00 -0.45593999997E+02  0.45594000000E+02  0.51100000000E-03 0.  1.
    9900012    2    1    2    0    0  0.39583604533E+02 -0.92850244441E+01 -0.30165766387E+00  0.50528875266E+02  0.30000046859E+02 0.  0.
         12    1    1    2    0    0 -0.39583604533E+02  0.92850244441E+01  0.30165766387E+00  0.40659124734E+02  0.00000000000E+00 0. -1.
         11    1    3    3    0    0  0.17970400013E+02 -0.43092701546E+01 -0.10929137906E+01  0.18512145924E+02  0.51100000000E-03 0. -1.
        -11    1    3    3    0    0  0.71955738826E+01 -0.72057331600E+01 -0.96869319897E+01  0.14054733207E+02  0.51100000000E-03 0.  1.
        -12    1    3    3    0    0  0.14417630638E+02  0.22299788705E+01  0.10478188116E+02  0.17961996136E+02  0.00000000000E+00 0.  1.
</event>
<event>
 7    1  0.2755991E-011  0.5052887E+02  0.7816164E-02  0.1300439E+00
        -11   -1    0    0    0    0  0.00000000000E+00  0.00000000000E+00  0.45593999997E+02  0.45594000000E+02  0.51100000000E-03 0. -1.
         11   -1    0    0    0    0 -0.00000000000E+00 -0.00000000000E+00 -0.45593999997E+02  0.45594000000E+02  0.51100000000E-03 0.  1.
    9900012    2    1    2    0    0 -0.13056179901E+02  0.27724436928E+02 -0.26721844595E+02  0.50528865539E+02  0.30000017292E+02 0.  0.
         12    1    1    2    0    0  0.13056179901E+02 -0.27724436928E+02  0.26721844595E+02  0.40659134461E+02  0.00000000000E+00 0. -1.
         11    1    3    3    0    0 -0.47417470331E+01 -0.48866812794E+01 -0.10466989751E+01  0.68890781573E+01  0.51100000000E-03 0. -1.
        -11    1    3    3    0    0 -0.40680336592E+01  0.48897111472E+01 -0.13210448031E+01  0.64964092072E+01  0.51100000000E-03 0.  1.
         12    1    3    3    0    0 -0.42463992086E+01  0.27721407060E+02 -0.24354100816E+02  0.37143378174E+02  0.00000000000E+00 0. -1.
</event>
<event>
 7    1  0.2755991E-011  0.5052887E+02  0.7816164E-02  0.1300439E+00
        -11   -1    0    0    0    0  0.00000000000E+00  0.00000000000E+00  0.45593999997E+02  0.45594000000E+02  0.51100000000E-03 0.  1.
         11   -1    0    0    0    0 -0.00000000000E+00 -0.00000000000E+00 -0.45593999997E+02  0.45594000000E+02  0.51100000000E-03 0. -1.
    9900012    2    1    2    0    0  0.23224106482E+01 -0.19442355508E+02  0.35633781118E+02  0.50528866516E+02  0.30000020262E+02 0.  0.
         12    1    1    2    0    0 -0.23224106482E+01  0.19442355508E+02 -0.35633781118E+02  0.40659133484E+02  0.00000000000E+00 0. -1.
         11    1    3    3    0    0 -0.38726296690E+01 -0.59610073083E+01  0.23153754928E+01  0.74760840429E+01  0.51100000000E-03 0.  1.
        -11    1    3    3    0    0  0.45436125230E+01 -0.10287353362E+02  0.18711961638E+01  0.11400676703E+02  0.51100000000E-03 0. -1.
        -12    1    3    3    0    0  0.16514277943E+01 -0.31939948379E+01  0.31447209461E+02  0.31652105770E+02  0.00000000000E+00 0.  1.
</event>
<event>
 7    1  0.2755991E-011  0.5052884E+02  0.7816164E-02  0.1300439E+00
        -11   -1    0    0    0    0  0.00000000000E+00  0.00000000000E+00  0.45593999997E+02  0.45594000000E+02  0.51100000000E-03 0.  1.
         11   -1    0    0    0    0 -0.00000000000E+00 -0.00000000000E+00 -0.45593999997E+02  0.45594000000E+02  0.51100000000E-03 0. -1.
    9900012    2    1    2    0    0 -0.13404466257E+02  0.19171301950E+02  0.33255804745E+02  0.50528842565E+02  0.29999947461E+02 0.  0.
         12    1    1    2    0    0  0.13404466257E+02 -0.19171301950E+02 -0.33255804745E+02  0.40659157435E+02  0.00000000000E+00 0. -1.
         11    1    3    3    0    0  0.35037524962E+01  0.83462440298E+01  0.60403513896E+01  0.10882183427E+02  0.51100000000E-03 0. -1.
        -11    1    3    3    0    0  0.38115050615E+01 -0.16097248516E+01  0.16115447061E+01  0.44402546697E+01  0.51100000000E-03 0.  1.
        -12    1    3    3    0    0 -0.20719723815E+02  0.12434782772E+02  0.25603908649E+02  0.35206404469E+02  0.00000000000E+00 0.  1.
</event>
<event>
 7    1  0.2755991E-011  0.5052887E+02  0.7816164E-02  0.1300439E+00
        -11   -1    0    0    0    0  0.00000000000E+00  0.00000000000E+00  0.45593999997E+02  0.45594000000E+02  0.51100000000E-03 0.  1.
         11   -1    0    0    0    0 -0.00000000000E+00 -0.00000000000E+00 -0.45593999997E+02  0.45594000000E+02  0.51100000000E-03 0. -1.
    9900012    2    1    2    0    0 -0.57874830140E+01 -0.19562394257E+01  0.40197554890E+02  0.50528865092E+02  0.30000015933E+02 0.  0.
         12    1    1    2    0    0  0.57874830140E+01  0.19562394257E+01 -0.40197554890E+02  0.40659134908E+02  0.00000000000E+00 0. -1.
         11    1    3    3    0    0 -0.26902070058E+01  0.40583849414E+01  0.33803898115E+02  0.34152763140E+02  0.51100000000E-03 0. -1.
        -11    1    3    3    0    0 -0.46204819362E+01 -0.28169366449E+01  0.99691936071E+01  0.11343227355E+02  0.51100000000E-03 0.  1.
         12    1    3    3    0    0  0.15232059280E+01 -0.31976877222E+01 -0.35755368321E+01  0.50328745966E+01  0.00000000000E+00 0. -1.
</event>
<event>
 7    1  0.2755991E-011  0.5052887E+02  0.7816164E-02  0.1300439E+00
        -11   -1    0    0    0    0  0.00000000000E+00  0.00000000000E+00  0.45593999997E+02  0.45594000000E+02  0.51100000000E-03 0.  1.
         11   -1    0    0    0    0 -0.00000000000E+00 -0.00000000000E+00 -0.45593999997E+02  0.45594000000E+02  0.51100000000E-03 0. -1.
    9900012    2    1    2    0    0 -0.19617815020E+02  0.22103491599E+01  0.35544631226E+02  0.50528866726E+02  0.30000020901E+02 0.  0.
         12    1    1    2    0    0  0.19617815020E+02 -0.22103491599E+01 -0.35544631226E+02  0.40659133274E+02  0.00000000000E+00 0. -1.
         11    1    3    3    0    0 -0.45424864324E+01  0.44651879974E+01  0.27888273514E+01  0.69533909064E+01  0.51100000000E-03 0. -1.
        -11    1    3    3    0    0 -0.26383856292E+01  0.97098629064E+01  0.19024358747E+02  0.21521355496E+02  0.51100000000E-03 0.  1.
         12    1    3    3    0    0 -0.12436942958E+02 -0.11964701744E+02  0.13731445128E+02  0.22054120324E+02  0.00000000000E+00 0. -1.
</event>
<event>
 7    1  0.2755991E-011  0.5052886E+02  0.7816164E-02  0.1300439E+00
        -11   -1    0    0    0    0  0.00000000000E+00  0.00000000000E+00  0.45593999997E+02  0.45594000000E+02  0.51100000000E-03 0.  1.
         11   -1    0    0    0    0 -0.00000000000E+00 -0.00000000000E+00 -0.45593999997E+02  0.45594000000E+02  0.51100000000E-03 0. -1.
    9900012    2    1    2    0    0  0.24379844153E+02  0.24361506718E+02  0.21570948186E+02  0.50528860608E+02  0.30000002303E+02 0.  0.
         12    1    1    2    0    0 -0.24379844153E+02 -0.24361506718E+02 -0.21570948186E+02  0.40659139392E+02  0.00000000000E+00 0. -1.
         11    1    3    3    0    0  0.28727878588E+01  0.13100239928E+02 -0.70444476705E+00  0.13430020065E+02  0.51100000000E-03 0. -1.
        -11    1    3    3    0    0  0.60855561365E+01 -0.29519362808E+01  0.11929373071E+02  0.13713419100E+02  0.51100000000E-03 0.  1.
         12    1    3    3    0    0  0.15421500158E+02  0.14213203071E+02  0.10346019883E+02  0.23385421443E+02  0.00000000000E+00 0. -1.
</event>
<event>
 7    1  0.2755991E-011  0.5052889E+02  0.7816164E-02  0.1300439E+00
        -11   -1    0    0    0    0  0.00000000000E+00  0.00000000000E+00  0.45593999997E+02  0.45594000000E+02  0.51100000000E-03 0.  1.
         11   -1    0    0    0    0 -0.00000000000E+00 -0.00000000000E+00 -0.45593999997E+02  0.45594000000E+02  0.51100000000E-03 0. -1.
    9900012    2    1    2    0    0  0.79992132488E+01  0.99837810642E+01  0.38594036790E+02  0.50528893115E+02  0.30000101112E+02 0.  0.
         12    1    1    2    0    0 -0.79992132488E+01 -0.99837810642E+01 -0.38594036790E+02  0.40659106885E+02  0.00000000000E+00 0. -1.
         11    1    3    3    0    0  0.17346023558E+01  0.26178702182E+01  0.26742266736E+02  0.26926026819E+02  0.51100000000E-03 0. -1.
        -11    1    3    3    0    0  0.48741175059E+01  0.19289525099E+01  0.15861751866E+02  0.16705479693E+02  0.51100000000E-03 0.  1.
         12    1    3    3    0    0  0.13904933871E+01  0.54369583361E+01 -0.40099818124E+01  0.68973866025E+01  0.00000000000E+00 0. -1.
</event>
<event>
 7    1  0.2755991E-011  0.5052886E+02  0.7816164E-02  0.1300439E+00
        -11   -1    0    0    0    0  0.00000000000E+00  0.00000000000E+00  0.45593999997E+02  0.45594000000E+02  0.51100000000E-03 0.  1.
         11   -1    0    0    0    0 -0.00000000000E+00 -0.00000000000E+00 -0.45593999997E+02  0.45594000000E+02  0.51100000000E-03 0. -1.
    9900012    2    1    2    0    0 -0.28803729523E+01 -0.25499081886E+02  0.31538321798E+02  0.50528862439E+02  0.30000007869E+02 0.  0.
         12    1    1    2    0    0  0.28803729523E+01  0.25499081886E+02 -0.31538321798E+02  0.40659137561E+02  0.00000000000E+00 0. -1.
         11    1    3    3    0    0  0.99949592001E+00 -0.21777167903E+02  0.79551736309E+01  0.23206223772E+02  0.51100000000E-03 0. -1.
        -11    1    3    3    0    0 -0.34822614336E+01 -0.46168863359E+01  0.26406663001E+01  0.63572716554E+01  0.51100000000E-03 0.  1.
         12    1    3    3    0    0 -0.39760743879E+00  0.89497235308E+00  0.20942481867E+02  0.20965367012E+02  0.00000000000E+00 0. -1.
</event>
<event>
 7    1  0.2755991E-011  0.5052885E+02  0.7816164E-02  0.1300439E+00
        -11   -1    0    0    0    0  0.00000000000E+00  0.00000000000E+00  0.45593999997E+02  0.45594000000E+02  0.51100000000E-03 0. -1.
         11   -1    0    0    0    0 -0.00000000000E+00 -0.00000000000E+00 -0.45593999997E+02  0.45594000000E+02  0.51100000000E-03 0.  1.
    9900012    2    1    2    0    0 -0.37438059829E+02 -0.13057128709E+02  0.90038575293E+01  0.50528851162E+02  0.29999973591E+02 0.  0.
         12    1    1    2    0    0  0.37438059829E+02  0.13057128709E+02 -0.90038575293E+01  0.40659148838E+02  0.00000000000E+00 0. -1.
         11    1    3    3    0    0 -0.54320760686E+01  0.65791222850E+00  0.41027769640E+01  0.68390845873E+01  0.51100000000E-03 0. -1.
        -11    1    3    3    0    0 -0.93336539352E+01 -0.11038475842E+02 -0.89354163097E+01  0.16994314037E+02  0.51100000000E-03 0.  1.
         12    1    3    3    0    0 -0.22672329825E+02 -0.26765650958E+01  0.13836496875E+02  0.26695452537E+02  0.00000000000E+00 0. -1.
</event>
<event>
 7    1  0.2755991E-011  0.5052886E+02  0.7816164E-02  0.1300439E+00
        -11   -1    0    0    0    0  0.00000000000E+00  0.00000000000E+00  0.45593999997E+02  0.45594000000E+02  0.51100000000E-03 0. -1.
         11   -1    0    0    0    0 -0.00000000000E+00 -0.00000000000E+00 -0.45593999997E+02  0.45594000000E+02  0.51100000000E-03 0.  1.
    9900012    2    1    2    0    0 -0.11817318028E+02 -0.25348279245E+02 -0.29512390179E+02  0.50528862771E+02  0.30000008880E+02 0.  0.
         12    1    1    2    0    0  0.11817318028E+02  0.25348279245E+02  0.29512390179E+02  0.40659137229E+02  0.00000000000E+00 0. -1.
         11    1    3    3    0    0  0.19522046932E+01 -0.11510010789E+00 -0.28704719350E+00  0.19765494052E+01  0.51100000000E-03 0. -1.
        -11    1    3    3    0    0  0.57719190239E-01 -0.22221105521E+02 -0.92440387373E+01  0.24067262298E+02  0.51100000000E-03 0.  1.
        -12    1    3    3    0    0 -0.13827241912E+02 -0.30120736166E+01 -0.19981304248E+02  0.24485051068E+02  0.00000000000E+00 0.  1.
</event>
<event>
 7    1  0.2755991E-011  0.5052886E+02  0.7816164E-02  0.1300439E+00
        -11   -1    0    0    0    0  0.00000000000E+00  0.00000000000E+00  0.45593999997E+02  0.45594000000E+02  0.51100000000E-03 0.  1.
         11   -1    0    0    0    0 -0.00000000000E+00 -0.00000000000E+00 -0.45593999997E+02  0.45594000000E+02  0.51100000000E-03 0. -1.
    9900012    2    1    2    0    0  0.16636641656E+02  0.36879762612E+02 -0.40337159439E+01  0.50528860803E+02  0.30000002898E+02 0.  0.
         12    1    1    2    0    0 -0.16636641656E+02 -0.36879762612E+02  0.40337159439E+01  0.40659139197E+02  0.00000000000E+00 0. -1.
         11    1    3    3    0    0  0.23872209427E+01  0.27762894388E+02 -0.12083011877E+01  0.27891524172E+02  0.51100000000E-03 0. -1.
        -11    1    3    3    0    0  0.10180971864E+02  0.99390934906E+01  0.38832321817E+01  0.14748466359E+02  0.51100000000E-03 0.  1.
         12    1    3    3    0    0  0.40684488499E+01 -0.82222526698E+00 -0.67086469378E+01  0.78888702721E+01  0.00000000000E+00 0. -1.
</event>
<event>
 7    1  0.2755991E-011  0.5052886E+02  0.7816164E-02  0.1300439E+00
        -11   -1    0    0    0    0  0.00000000000E+00  0.00000000000E+00  0.45593999997E+02  0.45594000000E+02  0.51100000000E-03 0.  1.
         11   -1    0    0    0    0 -0.00000000000E+00 -0.00000000000E+00 -0.45593999997E+02  0.45594000000E+02  0.51100000000E-03 0. -1.
    9900012    2    1    2    0    0  0.30089464549E+02 -0.21549061729E+02  0.16835304710E+02  0.50528862983E+02  0.30000009524E+02 0.  0.
         12    1    1    2    0    0 -0.30089464549E+02  0.21549061729E+02 -0.16835304710E+02  0.40659137017E+02  0.00000000000E+00 0. -1.
         11    1    3    3    0    0  0.62401933543E+00  0.90125096826E-01  0.17563984372E+01  0.18661346134E+01  0.51100000000E-03 0. -1.
        -11    1    3    3    0    0  0.43973058675E+01 -0.97004035451E+01  0.17821695229E+02  0.20761670186E+02  0.51100000000E-03 0.  1.
         12    1    3    3    0    0  0.25068139346E+02 -0.11938783281E+02 -0.27427889557E+01  0.27901058183E+02  0.00000000000E+00 0. -1.
</event>
<event>
 7    1  0.2755991E-011  0.5052887E+02  0.7816164E-02  0.1300439E+00
        -11   -1    0    0    0    0  0.00000000000E+00  0.00000000000E+00  0.45593999997E+02  0.45594000000E+02  0.51100000000E-03 0. -1.
         11   -1    0    0    0    0 -0.00000000000E+00 -0.00000000000E+00 -0.45593999997E+02  0.45594000000E+02  0.51100000000E-03 0.  1.
    9900012    2    1    2    0    0 -0.38442230579E+02  0.13199129181E+02 -0.10690991238E+01  0.50528867250E+02  0.30000022495E+02 0.  0.
         12    1    1    2    0    0  0.38442230579E+02 -0.13199129181E+02  0.10690991238E+01  0.40659132750E+02  0.00000000000E+00 0. -1.
         11    1    3    3    0    0 -0.12542551339E+01 -0.19154676625E+00  0.65042672825E+01  0.66268649638E+01  0.51100000000E-03 0. -1.
        -11    1    3    3    0    0 -0.57302426510E+01  0.43738014535E+01  0.50773598285E+01  0.88173353731E+01  0.51100000000E-03 0.  1.
         12    1    3    3    0    0 -0.31457732794E+02  0.90168744936E+01 -0.12650726235E+02  0.35084666914E+02  0.00000000000E+00 0. -1.
</event>
<event>
 7    1  0.2755991E-011  0.5052886E+02  0.7816164E-02  0.1300439E+00
        -11   -1    0    0    0    0  0.00000000000E+00  0.00000000000E+00  0.45593999997E+02  0.45594000000E+02  0.51100000000E-03 0. -1.
         11   -1    0    0    0    0 -0.00000000000E+00 -0.00000000000E+00 -0.45593999997E+02  0.45594000000E+02  0.51100000000E-03 0.  1.
    9900012    2    1    2    0    0  0.40785682988E+01  0.30348425013E+02 -0.26748905093E+02  0.50528861496E+02  0.30000005005E+02 0.  0.
         12    1    1    2    0    0 -0.40785682988E+01 -0.30348425013E+02  0.26748905093E+02  0.40659138504E+02  0.00000000000E+00 0. -1.
         11    1    3    3    0    0  0.25992140537E+01  0.19481378973E+02 -0.18050880208E+02  0.26685470147E+02  0.51100000000E-03 0. -1.
        -11    1    3    3    0    0  0.50677632234E+01  0.11921351629E+02 -0.12856272128E+02  0.18250604977E+02  0.51100000000E-03 0.  1.
         12    1    3    3    0    0 -0.35884089783E+01 -0.10543055886E+01  0.41582472432E+01  0.55927863722E+01  0.00000000000E+00 0. -1.
</event>
<event>
 7    1  0.2755991E-011  0.5052880E+02  0.7816164E-02  0.1300439E+00
        -11   -1    0    0    0    0  0.00000000000E+00  0.00000000000E+00  0.45593999997E+02  0.45594000000E+02  0.51100000000E-03 0. -1.
         11   -1    0    0    0    0 -0.00000000000E+00 -0.00000000000E+00 -0.45593999997E+02  0.45594000000E+02  0.51100000000E-03 0.  1.
    9900012    2    1    2    0    0  0.10696923223E+02 -0.89754689902E+01 -0.38186221791E+02  0.50528797540E+02  0.29999810602E+02 0.  0.
         12    1    1    2    0    0 -0.10696923223E+02  0.89754689902E+01  0.38186221791E+02  0.40659202460E+02  0.00000000000E+00 0. -1.
         11    1    3    3    0    0  0.31711484513E+01  0.18397089515E+01 -0.16876428246E+01  0.40359447582E+01  0.51100000000E-03 0.  1.
        -11    1    3    3    0    0  0.99273890668E+01  0.48178293292E+01 -0.71349576698E+01  0.13140477706E+02  0.51100000000E-03 0. -1.
        -12    1    3    3    0    0 -0.24016142954E+01 -0.15633007271E+02 -0.29363621296E+02  0.33352375076E+02  0.00000000000E+00 0.  1.
</event>
<event>
 7    1  0.2755991E-011  0.5052886E+02  0.7816164E-02  0.1300439E+00
        -11   -1    0    0    0    0  0.00000000000E+00  0.00000000000E+00  0.45593999997E+02  0.45594000000E+02  0.51100000000E-03 0.  1.
         11   -1    0    0    0    0 -0.00000000000E+00 -0.00000000000E+00 -0.45593999997E+02  0.45594000000E+02  0.51100000000E-03 0. -1.
    9900012    2    1    2    0    0  0.17472039335E+02  0.18312127545E+02  0.31820738223E+02  0.50528861361E+02  0.30000004594E+02 0.  0.
         12    1    1    2    0    0 -0.17472039335E+02 -0.18312127545E+02 -0.31820738223E+02  0.40659138639E+02  0.00000000000E+00 0. -1.
         11    1    3    3    0    0  0.11383766941E+02  0.47960696010E+01  0.26362057915E+02  0.29112721122E+02  0.51100000000E-03 0.  1.
        -11    1    3    3    0    0  0.35166131050E+01  0.64596098398E+01  0.10169631095E+02  0.12550479030E+02  0.51100000000E-03 0. -1.
         12    1    3    3    0    0  0.25716592891E+01  0.70564481043E+01 -0.47109507869E+01  0.88656612086E+01  0.00000000000E+00 0. -1.
</event>
<event>
 7    1  0.2755991E-011  0.5052886E+02  0.7816164E-02  0.1300439E+00
        -11   -1    0    0    0    0  0.00000000000E+00  0.00000000000E+00  0.45593999997E+02  0.45594000000E+02  0.51100000000E-03 0.  1.
         11   -1    0    0    0    0 -0.00000000000E+00 -0.00000000000E+00 -0.45593999997E+02  0.45594000000E+02  0.51100000000E-03 0. -1.
    9900012    2    1    2    0    0 -0.25678723109E+02  0.13106640773E+02  0.28670275901E+02  0.50528861137E+02  0.30000003912E+02 0.  0.
         12    1    1    2    0    0  0.25678723109E+02 -0.13106640773E+02 -0.28670275901E+02  0.40659138863E+02  0.00000000000E+00 0. -1.
         11    1    3    3    0    0 -0.15776830689E+00  0.49778835342E+01  0.22193824781E+02  0.22745770464E+02  0.51100000000E-03 0. -1.
        -11    1    3    3    0    0 -0.86364902733E+01  0.14486266267E+01  0.98155594635E+00  0.88119768316E+01  0.51100000000E-03 0.  1.
        -12    1    3    3    0    0 -0.16884464529E+02  0.66801306122E+01  0.54948951734E+01  0.18971113841E+02  0.00000000000E+00 0.  1.
</event>
<event>
 7    1  0.2755991E-011  0.5052885E+02  0.7816164E-02  0.1300439E+00
        -11   -1    0    0    0    0  0.00000000000E+00  0.00000000000E+00  0.45593999997E+02  0.45594000000E+02  0.51100000000E-03 0.  1.
         11   -1    0    0    0    0 -0.00000000000E+00 -0.00000000000E+00 -0.45593999997E+02  0.45594000000E+02  0.51100000000E-03 0. -1.
    9900012    2    1    2    0    0 -0.28459503689E+02  0.23412877435E+02 -0.17177310719E+02  0.50528853630E+02  0.29999981094E+02 0.  0.
         12    1    1    2    0    0  0.28459503689E+02 -0.23412877435E+02  0.17177310719E+02  0.40659146370E+02  0.00000000000E+00 0. -1.
         11    1    3    3    0    0 -0.27883210917E+02  0.21738167061E+02 -0.10133754932E+02  0.36779265184E+02  0.51100000000E-03 0. -1.
        -11    1    3    3    0    0 -0.47469379870E+01  0.19276294006E+01  0.47774740450E+00  0.51456212649E+01  0.51100000000E-03 0.  1.
         12    1    3    3    0    0  0.41706452151E+01 -0.25291902679E+00 -0.75213031919E+01  0.86039671809E+01  0.00000000000E+00 0. -1.
</event>
<event>
 7    1  0.2755991E-011  0.5052886E+02  0.7816164E-02  0.1300439E+00
        -11   -1    0    0    0    0  0.00000000000E+00  0.00000000000E+00  0.45593999997E+02  0.45594000000E+02  0.51100000000E-03 0. -1.
         11   -1    0    0    0    0 -0.00000000000E+00 -0.00000000000E+00 -0.45593999997E+02  0.45594000000E+02  0.51100000000E-03 0.  1.
    9900012    2    1    2    0    0  0.35585730162E+02  0.18598765970E+01 -0.19579648387E+02  0.50528856341E+02  0.29999989334E+02 0.  0.
         12    1    1    2    0    0 -0.35585730162E+02 -0.18598765970E+01  0.19579648387E+02  0.40659143659E+02  0.00000000000E+00 0. -1.
         11    1    3    3    0    0  0.14879678602E+02 -0.28683419993E+01  0.11763027320E+01  0.15199207529E+02  0.51100000000E-03 0. -1.
        -11    1    3    3    0    0  0.17121521808E+02  0.61551368410E+01 -0.46652594167E+01  0.18782887537E+02  0.51100000000E-03 0.  1.
         12    1    3    3    0    0  0.35845297523E+01 -0.14269182448E+01 -0.16090691703E+02  0.16546761275E+02  0.00000000000E+00 0. -1.
</event>
<event>
 7    1  0.2755991E-011  0.5052885E+02  0.7816164E-02  0.1300439E+00
        -11   -1    0    0    0    0  0.00000000000E+00  0.00000000000E+00  0.45593999997E+02  0.45594000000E+02  0.51100000000E-03 0. -1.
         11   -1    0    0    0    0 -0.00000000000E+00 -0.00000000000E+00 -0.45593999997E+02  0.45594000000E+02  0.51100000000E-03 0.  1.
    9900012    2    1    2    0    0  0.45227123466E+01 -0.39515717981E+02 -0.84391528491E+01  0.50528853485E+02  0.29999980653E+02 0.  0.
         12    1    1    2    0    0 -0.45227123466E+01  0.39515717981E+02  0.84391528491E+01  0.40659146515E+02  0.00000000000E+00 0. -1.
         11    1    3    3    0    0  0.67749764820E+01 -0.15788976036E+02  0.34052140357E+01  0.17515351937E+02  0.51100000000E-03 0. -1.
        -11    1    3    3    0    0  0.87897960209E-01  0.28294547005E+01 -0.45768476893E+01  0.53815494967E+01  0.51100000000E-03 0.  1.
         12    1    3    3    0    0 -0.23401620956E+01 -0.26556196646E+02 -0.72675191956E+01  0.27631952051E+02  0.00000000000E+00 0. -1.
</event>
<event>
 7    1  0.2755991E-011  0.5052886E+02  0.7816164E-02  0.1300439E+00
        -11   -1    0    0    0    0  0.00000000000E+00  0.00000000000E+00  0.45593999997E+02  0.45594000000E+02  0.51100000000E-03 0.  1.
         11   -1    0    0    0    0 -0.00000000000E+00 -0.00000000000E+00 -0.45593999997E+02  0.45594000000E+02  0.51100000000E-03 0. -1.
    9900012    2    1    2    0    0  0.18275571049E+02 -0.36285078431E+02 -0.16007162612E+01  0.50528859497E+02  0.29999998927E+02 0.  0.
         12    1    1    2    0    0 -0.18275571049E+02  0.36285078431E+02  0.16007162612E+01  0.40659140503E+02  0.00000000000E+00 0. -1.
         11    1    3    3    0    0 -0.21231422064E+01  0.95133501529E+00 -0.13952168555E+00  0.23307161350E+01  0.51100000000E-03 0. -1.
        -11    1    3    3    0    0  0.89874146788E+01 -0.43885466772E+01  0.72465140595E+01  0.12350908097E+02  0.51100000000E-03 0.  1.
        -12    1    3    3    0    0  0.11411298576E+02 -0.32847866769E+02 -0.87077086351E+01  0.35847235265E+02  0.00000000000E+00 0.  1.
</event>
<event>
 7    1  0.2755991E-011  0.5052886E+02  0.7816164E-02  0.1300439E+00
        -11   -1    0    0    0    0  0.00000000000E+00  0.00000000000E+00  0.45593999997E+02  0.45594000000E+02  0.51100000000E-03 0.  1.
         11   -1    0    0    0    0 -0.00000000000E+00 -0.00000000000E+00 -0.45593999997E+02  0.45594000000E+02  0.51100000000E-03 0. -1.
    9900012    2    1    2    0    0 -0.21659973523E+02 -0.31824594512E+02  0.13084583244E+02  0.50528860960E+02  0.30000003373E+02 0.  0.
         12    1    1    2    0    0  0.21659973523E+02  0.31824594512E+02 -0.13084583244E+02  0.40659139040E+02  0.00000000000E+00 0. -1.
         11    1    3    3    0    0 -0.15594118981E+02 -0.81302931809E+01  0.11754086903E+02  0.21152701321E+02  0.51100000000E-03 0. -1.
        -11    1    3    3    0    0 -0.25892790069E+01 -0.89720594065E+01  0.85077749690E+01  0.12632673943E+02  0.51100000000E-03 0.  1.
         12    1    3    3    0    0 -0.34765755351E+01 -0.14722241924E+02 -0.71772786279E+01  0.16743485695E+02  0.00000000000E+00 0. -1.
</event>
<event>
 7    1  0.2755991E-011  0.5052886E+02  0.7816164E-02  0.1300439E+00
        -11   -1    0    0    0    0  0.00000000000E+00  0.00000000000E+00  0.45593999997E+02  0.45594000000E+02  0.51100000000E-03 0. -1.
         11   -1    0    0    0    0 -0.00000000000E+00 -0.00000000000E+00 -0.45593999997E+02  0.45594000000E+02  0.51100000000E-03 0.  1.
    9900012    2    1    2    0    0  0.38912628453E+02  0.11076448376E+00 -0.11788156528E+02  0.50528861344E+02  0.30000004542E+02 0.  0.
         12    1    1    2    0    0 -0.38912628453E+02 -0.11076448376E+00  0.11788156528E+02  0.40659138656E+02  0.00000000000E+00 0. -1.
         11    1    3    3    0    0  0.10493312351E+02  0.10903949069E+02  0.31352440066E+00  0.15136182055E+02  0.51100000000E-03 0. -1.
        -11    1    3    3    0    0  0.21376130715E+01 -0.58493208254E+01 -0.51843074468E+00  0.62492171078E+01  0.51100000000E-03 0.  1.
        -12    1    3    3    0    0  0.26281703031E+02 -0.49438637602E+01 -0.11583250184E+02  0.29143462181E+02  0.00000000000E+00 0.  1.
</event>
<event>
 7    1  0.2755991E-011  0.5052887E+02  0.7816164E-02  0.1300439E+00
        -11   -1    0    0    0    0  0.00000000000E+00  0.00000000000E+00  0.45593999997E+02  0.45594000000E+02  0.51100000000E-03 0.  1.
         11   -1    0    0    0    0 -0.00000000000E+00 -0.00000000000E+00 -0.45593999997E+02  0.45594000000E+02  0.51100000000E-03 0. -1.
    9900012    2    1    2    0    0  0.48415933126E+01 -0.29873879774E+02  0.27152810167E+02  0.50528870416E+02  0.30000032117E+02 0.  0.
         12    1    1    2    0    0 -0.48415933126E+01  0.29873879774E+02 -0.27152810167E+02  0.40659129584E+02  0.00000000000E+00 0. -1.
         11    1    3    3    0    0 -0.69366407665E+01 -0.12947355386E+01  0.23956953123E+01  0.74520253307E+01  0.51100000000E-03 0. -1.
        -11    1    3    3    0    0 -0.26095214734E+00 -0.20072055173E+02  0.17568466638E+02  0.26675953875E+02  0.51100000000E-03 0.  1.
         12    1    3    3    0    0  0.12039186226E+02 -0.85070890624E+01  0.71886482168E+01  0.16400891210E+02  0.00000000000E+00 0. -1.
</event>
<event>
 7    1  0.2755991E-011  0.5052883E+02  0.7816164E-02  0.1300439E+00
        -11   -1    0    0    0    0  0.00000000000E+00  0.00000000000E+00  0.45593999997E+02  0.45594000000E+02  0.51100000000E-03 0.  1.
         11   -1    0    0    0    0 -0.00000000000E+00 -0.00000000000E+00 -0.45593999997E+02  0.45594000000E+02  0.51100000000E-03 0. -1.
    9900012    2    1    2    0    0 -0.14896105798E+02 -0.21852170642E+02  0.30882947453E+02  0.50528834083E+02  0.29999921678E+02 0.  0.
         12    1    1    2    0    0  0.14896105798E+02  0.21852170642E+02 -0.30882947453E+02  0.40659165917E+02  0.00000000000E+00 0. -1.
         11    1    3    3    0    0 -0.29494912449E+01 -0.44568909871E+01 -0.33215380554E+01  0.62925345600E+01  0.51100000000E-03 0. -1.
        -11    1    3    3    0    0  0.13171315088E+01 -0.15878414342E+01 -0.17999402048E+01  0.27378569783E+01  0.51100000000E-03 0.  1.
        -12    1    3    3    0    0 -0.13263746061E+02 -0.15807438220E+02  0.36004425713E+02  0.41498442545E+02  0.00000000000E+00 0.  1.
</event>
<event>
 7    1  0.2755991E-011  0.5052883E+02  0.7816164E-02  0.1300439E+00
        -11   -1    0    0    0    0  0.00000000000E+00  0.00000000000E+00  0.45593999997E+02  0.45594000000E+02  0.51100000000E-03 0.  1.
         11   -1    0    0    0    0 -0.00000000000E+00 -0.00000000000E+00 -0.45593999997E+02  0.45594000000E+02  0.51100000000E-03 0. -1.
    9900012    2    1    2    0    0 -0.20377279795E+02  0.29642028218E+02 -0.18954797379E+02  0.50528834829E+02  0.29999923946E+02 0.  0.
         12    1    1    2    0    0  0.20377279795E+02 -0.29642028218E+02  0.18954797379E+02  0.40659165171E+02  0.00000000000E+00 0. -1.
         11    1    3    3    0    0 -0.12874617258E+02  0.68997735254E+01 -0.11182704929E+02  0.18396073876E+02  0.51100000000E-03 0. -1.
        -11    1    3    3    0    0 -0.88968822750E+01  0.97611841994E+00 -0.46921691698E+01  0.10105630765E+02  0.51100000000E-03 0.  1.
        -12    1    3    3    0    0  0.13942197381E+01  0.21766136273E+02 -0.30799232802E+01  0.22027130188E+02  0.00000000000E+00 0.  1.
</event>
<event>
 7    1  0.2755991E-011  0.5052886E+02  0.7816164E-02  0.1300439E+00
        -11   -1    0    0    0    0  0.00000000000E+00  0.00000000000E+00  0.45593999997E+02  0.45594000000E+02  0.51100000000E-03 0. -1.
         11   -1    0    0    0    0 -0.00000000000E+00 -0.00000000000E+00 -0.45593999997E+02  0.45594000000E+02  0.51100000000E-03 0.  1.
    9900012    2    1    2    0    0  0.18492428771E+02  0.35657198127E+02  0.63055787916E+01  0.50528855591E+02  0.29999987055E+02 0.  0.
         12    1    1    2    0    0 -0.18492428771E+02 -0.35657198127E+02 -0.63055787916E+01  0.40659144409E+02  0.00000000000E+00 0. -1.
         11    1    3    3    0    0  0.36770887456E+01  0.15080277034E+01  0.34205422787E+01  0.52435902718E+01  0.51100000000E-03 0. -1.
        -11    1    3    3    0    0  0.57462063418E+01 -0.65995144169E+00  0.69989409407E+01  0.90796254207E+01  0.51100000000E-03 0.  1.
        -12    1    3    3    0    0  0.90691336840E+01  0.34809121866E+02 -0.41139044278E+01  0.36205639899E+02  0.00000000000E+00 0.  1.
</event>
<event>
 7    1  0.2755991E-011  0.5052886E+02  0.7816164E-02  0.1300439E+00
        -11   -1    0    0    0    0  0.00000000000E+00  0.00000000000E+00  0.45593999997E+02  0.45594000000E+02  0.51100000000E-03 0.  1.
         11   -1    0    0    0    0 -0.00000000000E+00 -0.00000000000E+00 -0.45593999997E+02  0.45594000000E+02  0.51100000000E-03 0. -1.
    9900012    2    1    2    0    0  0.24479157017E+02  0.20078537005E+02  0.25510560853E+02  0.50528862140E+02  0.30000006961E+02 0.  0.
         12    1    1    2    0    0 -0.24479157017E+02 -0.20078537005E+02 -0.25510560853E+02  0.40659137860E+02  0.00000000000E+00 0. -1.
         11    1    3    3    0    0 -0.10029797041E+00 -0.53111550213E+01  0.30481328364E+01  0.61245033589E+01  0.51100000000E-03 0. -1.
        -11    1    3    3    0    0  0.13940030631E+02  0.10467438917E+02  0.30313268896E+01  0.17694085861E+02  0.51100000000E-03 0.  1.
        -12    1    3    3    0    0  0.10639424356E+02  0.14922253109E+02  0.19431101127E+02  0.26710272920E+02  0.00000000000E+00 0.  1.
</event>
<event>
 7    1  0.2755991E-011  0.5052886E+02  0.7816164E-02  0.1300439E+00
        -11   -1    0    0    0    0  0.00000000000E+00  0.00000000000E+00  0.45593999997E+02  0.45594000000E+02  0.51100000000E-03 0.  1.
         11   -1    0    0    0    0 -0.00000000000E+00 -0.00000000000E+00 -0.45593999997E+02  0.45594000000E+02  0.51100000000E-03 0. -1.
    9900012    2    1    2    0    0 -0.35430513560E+02  0.19662603765E+02 -0.33505834186E+01  0.50528859733E+02  0.29999999645E+02 0.  0.
         12    1    1    2    0    0  0.35430513560E+02 -0.19662603765E+02  0.33505834186E+01  0.40659140267E+02  0.00000000000E+00 0. -1.
         11    1    3    3    0    0 -0.20169080209E+02  0.25924475160E+02 -0.57055121565E+01  0.33338012508E+02  0.51100000000E-03 0. -1.
        -11    1    3    3    0    0 -0.65094289050E+01 -0.17422693603E+01  0.28767775422E+01  0.73269377288E+01  0.51100000000E-03 0.  1.
        -12    1    3    3    0    0 -0.87520044466E+01 -0.45196020339E+01 -0.52184880434E+00  0.98639094964E+01  0.00000000000E+00 0.  1.
</event>
<event>
 7    1  0.2755991E-011  0.5052890E+02  0.7816164E-02  0.1300439E+00
        -11   -1    0    0    0    0  0.00000000000E+00  0.00000000000E+00  0.45593999997E+02  0.45594000000E+02  0.51100000000E-03 0.  1.
         11   -1    0    0    0    0 -0.00000000000E+00 -0.00000000000E+00 -0.45593999997E+02  0.45594000000E+02  0.51100000000E-03 0. -1.
    9900012    2    1    2    0    0  0.26741040459E+02  0.18604417015E+02  0.24330116252E+02  0.50528903427E+02  0.30000132456E+02 0.  0.
         12    1    1    2    0    0 -0.26741040459E+02 -0.18604417015E+02 -0.24330116252E+02  0.40659096573E+02  0.00000000000E+00 0. -1.
         11    1    3    3    0    0  0.39965090790E+01  0.83786865057E+01 -0.25671694933E+01  0.96314501425E+01  0.51100000000E-03 0. -1.
        -11    1    3    3    0    0  0.15907841489E+02 -0.17426689874E+01  0.91766309839E+01  0.18447408288E+02  0.51100000000E-03 0.  1.
        -12    1    3    3    0    0  0.68366898903E+01  0.11968399497E+02  0.17720654762E+02  0.22450044997E+02  0.00000000000E+00 0.  1.
</event>
<event>
 7    1  0.2755991E-011  0.5052886E+02  0.7816164E-02  0.1300439E+00
        -11   -1    0    0    0    0  0.00000000000E+00  0.00000000000E+00  0.45593999997E+02  0.45594000000E+02  0.51100000000E-03 0. -1.
         11   -1    0    0    0    0 -0.00000000000E+00 -0.00000000000E+00 -0.45593999997E+02  0.45594000000E+02  0.51100000000E-03 0.  1.
    9900012    2    1    2    0    0 -0.28544839872E+02  0.10361647122E+02 -0.27036895813E+02  0.50528863885E+02  0.30000012266E+02 0.  0.
         12    1    1    2    0    0  0.28544839872E+02 -0.10361647122E+02  0.27036895813E+02  0.40659136115E+02  0.00000000000E+00 0. -1.
         11    1    3    3    0    0 -0.59262080301E+01  0.19671307806E+01 -0.12538916342E+02  0.14007639645E+02  0.51100000000E-03 0. -1.
        -11    1    3    3    0    0  0.47065582997E+00  0.85925607499E+01 -0.96462591141E+01  0.12926868620E+02  0.51100000000E-03 0.  1.
        -12    1    3    3    0    0 -0.23089287671E+02 -0.19804440847E+00 -0.48517203572E+01  0.23594355621E+02  0.00000000000E+00 0.  1.
</event>
<event>
 7    1  0.2755991E-011  0.5052887E+02  0.7816164E-02  0.1300439E+00
        -11   -1    0    0    0    0  0.00000000000E+00  0.00000000000E+00  0.45593999997E+02  0.45594000000E+02  0.51100000000E-03 0.  1.
         11   -1    0    0    0    0 -0.00000000000E+00 -0.00000000000E+00 -0.45593999997E+02  0.45594000000E+02  0.51100000000E-03 0. -1.
    9900012    2    1    2    0    0 -0.22469505321E+02  0.24725540709E+02  0.23171832623E+02  0.50528869908E+02  0.30000030571E+02 0.  0.
         12    1    1    2    0    0  0.22469505321E+02 -0.24725540709E+02 -0.23171832623E+02  0.40659130092E+02  0.00000000000E+00 0. -1.
         11    1    3    3    0    0 -0.51311842998E+01  0.77242286400E+00 -0.44939237644E+01  0.68644767070E+01  0.51100000000E-03 0. -1.
        -11    1    3    3    0    0 -0.46224187220E+01  0.59143191949E+00 -0.77509833082E+00  0.47241215311E+01  0.51100000000E-03 0.  1.
         12    1    3    3    0    0 -0.12715902299E+02  0.23361685926E+02  0.28440854718E+02  0.38940271670E+02  0.00000000000E+00 0. -1.
</event>
<event>
 7    1  0.2755991E-011  0.5052880E+02  0.7816164E-02  0.1300439E+00
        -11   -1    0    0    0    0  0.00000000000E+00  0.00000000000E+00  0.45593999997E+02  0.45594000000E+02  0.51100000000E-03 0.  1.
         11   -1    0    0    0    0 -0.00000000000E+00 -0.00000000000E+00 -0.45593999997E+02  0.45594000000E+02  0.51100000000E-03 0. -1.
    9900012    2    1    2    0    0  0.11329206949E+02 -0.35712984028E+02  0.15792475126E+02  0.50528801423E+02  0.29999822405E+02 0.  0.
         12    1    1    2    0    0 -0.11329206949E+02  0.35712984028E+02 -0.15792475126E+02  0.40659198577E+02  0.00000000000E+00 0. -1.
         11    1    3    3    0    0  0.24309722754E+01 -0.19529232422E+02  0.84648302793E+01  0.21423209309E+02  0.51100000000E-03 0.  1.
        -11    1    3    3    0    0 -0.49568769512E+01 -0.13034938457E+02  0.31700716458E+01  0.14301384695E+02  0.51100000000E-03 0. -1.
         12    1    3    3    0    0  0.13855111625E+02 -0.31488131498E+01  0.41575732007E+01  0.14804207419E+02  0.00000000000E+00 0. -1.
</event>
<event>
 7    1  0.2755991E-011  0.5052885E+02  0.7816164E-02  0.1300439E+00
        -11   -1    0    0    0    0  0.00000000000E+00  0.00000000000E+00  0.45593999997E+02  0.45594000000E+02  0.51100000000E-03 0. -1.
         11   -1    0    0    0    0 -0.00000000000E+00 -0.00000000000E+00 -0.45593999997E+02  0.45594000000E+02  0.51100000000E-03 0.  1.
    9900012    2    1    2    0    0  0.38467743513E+02 -0.17080548751E+01  0.13056862476E+02  0.50528850966E+02  0.29999972997E+02 0.  0.
         12    1    1    2    0    0 -0.38467743513E+02  0.17080548751E+01 -0.13056862476E+02  0.40659149034E+02  0.00000000000E+00 0. -1.
         11    1    3    3    0    0  0.15395915340E+02 -0.27118249290E+01  0.12861441585E+02  0.20243638100E+02  0.51100000000E-03 0. -1.
        -11    1    3    3    0    0  0.16290037165E+02 -0.57937445018E+01  0.68558228522E+01  0.18599330456E+02  0.51100000000E-03 0.  1.
        -12    1    3    3    0    0  0.67817910080E+01  0.67975145557E+01 -0.66604019617E+01  0.11685882410E+02  0.00000000000E+00 0.  1.
</event>
<event>
 7    1  0.2755991E-011  0.5052887E+02  0.7816164E-02  0.1300439E+00
        -11   -1    0    0    0    0  0.00000000000E+00  0.00000000000E+00  0.45593999997E+02  0.45594000000E+02  0.51100000000E-03 0.  1.
         11   -1    0    0    0    0 -0.00000000000E+00 -0.00000000000E+00 -0.45593999997E+02  0.45594000000E+02  0.51100000000E-03 0. -1.
    9900012    2    1    2    0    0  0.13908154638E+02  0.18928232472E+02  0.33188103935E+02  0.50528868273E+02  0.30000025604E+02 0.  0.
         12    1    1    2    0    0 -0.13908154638E+02 -0.18928232472E+02 -0.33188103935E+02  0.40659131727E+02  0.00000000000E+00 0. -1.
         11    1    3    3    0    0  0.14205818243E+01 -0.32147289757E+01  0.21124184997E+01  0.41005910898E+01  0.51100000000E-03 0. -1.
        -11    1    3    3    0    0 -0.46628174445E+01  0.40750110416E+01 -0.49543623628E+00  0.62123295820E+01  0.51100000000E-03 0.  1.
        -12    1    3    3    0    0  0.17150390258E+02  0.18067950406E+02  0.31571121672E+02  0.40215947602E+02  0.00000000000E+00 0.  1.
</event>
<event>
 7    1  0.2755991E-011  0.5052880E+02  0.7816164E-02  0.1300439E+00
        -11   -1    0    0    0    0  0.00000000000E+00  0.00000000000E+00  0.45593999997E+02  0.45594000000E+02  0.51100000000E-03 0. -1.
         11   -1    0    0    0    0 -0.00000000000E+00 -0.00000000000E+00 -0.45593999997E+02  0.45594000000E+02  0.51100000000E-03 0.  1.
    9900012    2    1    2    0    0 -0.18077504032E+01  0.38971767189E+02 -0.11450062107E+02  0.50528800283E+02  0.29999818940E+02 0.  0.
         12    1    1    2    0    0  0.18077504032E+01 -0.38971767189E+02  0.11450062107E+02  0.40659199717E+02  0.00000000000E+00 0. -1.
         11    1    3    3    0    0  0.69844214349E+01  0.79423673795E+01  0.42807503036E+01  0.11410002883E+02  0.51100000000E-03 0. -1.
        -11    1    3    3    0    0  0.35471339809E+01  0.97121499551E+01 -0.92624500742E+00  0.10381037824E+02  0.51100000000E-03 0.  1.
        -12    1    3    3    0    0 -0.12339305819E+02  0.21317249854E+02 -0.14804567403E+02  0.28737759576E+02  0.00000000000E+00 0.  1.
</event>
<event>
 7    1  0.2755991E-011  0.5052885E+02  0.7816164E-02  0.1300439E+00
        -11   -1    0    0    0    0  0.00000000000E+00  0.00000000000E+00  0.45593999997E+02  0.45594000000E+02  0.51100000000E-03 0. -1.
         11   -1    0    0    0    0 -0.00000000000E+00 -0.00000000000E+00 -0.45593999997E+02  0.45594000000E+02  0.51100000000E-03 0.  1.
    9900012    2    1    2    0    0 -0.37697350880E+02 -0.15143391342E+02 -0.16593901666E+01  0.50528854160E+02  0.29999982706E+02 0.  0.
         12    1    1    2    0    0  0.37697350880E+02  0.15143391342E+02  0.16593901666E+01  0.40659145840E+02  0.00000000000E+00 0. -1.
         11    1    3    3    0    0 -0.19005758894E+01 -0.55944731668E+01 -0.46334261816E+01  0.75085922227E+01  0.51100000000E-03 0. -1.
        -11    1    3    3    0    0  0.28643297349E+01  0.31141268686E+00  0.10788370870E+01  0.30765650348E+01  0.51100000000E-03 0.  1.
        -12    1    3    3    0    0 -0.38661104725E+02 -0.98603308620E+01  0.18951989280E+01  0.39943696903E+02  0.00000000000E+00 0.  1.
</event>
<event>
 7    1  0.2755991E-011  0.5052884E+02  0.7816164E-02  0.1300439E+00
        -11   -1    0    0    0    0  0.00000000000E+00  0.00000000000E+00  0.45593999997E+02  0.45594000000E+02  0.51100000000E-03 0.  1.
         11   -1    0    0    0    0 -0.00000000000E+00 -0.00000000000E+00 -0.45593999997E+02  0.45594000000E+02  0.51100000000E-03 0. -1.
    9900012    2    1    2    0    0  0.31273146045E+02 -0.25773633823E+02 -0.32981394598E+01  0.50528836360E+02  0.29999928600E+02 0.  0.
         12    1    1    2    0    0 -0.31273146045E+02  0.25773633823E+02  0.32981394598E+01  0.40659163640E+02  0.00000000000E+00 0. -1.
         11    1    3    3    0    0  0.78166622863E+01 -0.14749890630E+02 -0.78862524622E+01  0.18462190040E+02  0.51100000000E-03 0. -1.
        -11    1    3    3    0    0 -0.20712658283E+01 -0.40769996286E+01 -0.16910662661E+01  0.48756305726E+01  0.51100000000E-03 0.  1.
        -12    1    3    3    0    0  0.25527749587E+02 -0.69467435645E+01  0.62791792684E+01  0.27191015748E+02  0.00000000000E+00 0.  1.
</event>
<event>
 7    1  0.2755991E-011  0.5052886E+02  0.7816164E-02  0.1300439E+00
        -11   -1    0    0    0    0  0.00000000000E+00  0.00000000000E+00  0.45593999997E+02  0.45594000000E+02  0.51100000000E-03 0. -1.
         11   -1    0    0    0    0 -0.00000000000E+00 -0.00000000000E+00 -0.45593999997E+02  0.45594000000E+02  0.51100000000E-03 0.  1.
    9900012    2    1    2    0    0 -0.12950164152E+02 -0.38511167248E+02  0.15326966546E+01  0.50528856952E+02  0.29999991191E+02 0.  0.
         12    1    1    2    0    0  0.12950164152E+02  0.38511167248E+02 -0.15326966546E+01  0.40659143048E+02  0.00000000000E+00 0. -1.
         11    1    3    3    0    0  0.97701425329E-01  0.31861830279E+01  0.45607622633E+00  0.32201418666E+01  0.51100000000E-03 0. -1.
        -11    1    3    3    0    0  0.31471671215E+01 -0.14369819028E+01 -0.16388909696E+01  0.38282557061E+01  0.51100000000E-03 0.  1.
        -12    1    3    3    0    0 -0.16195032699E+02 -0.40260368373E+02  0.27155113979E+01  0.43480459379E+02  0.00000000000E+00 0.  1.
</event>
<event>
 7    1  0.2755991E-011  0.5052886E+02  0.7816164E-02  0.1300439E+00
        -11   -1    0    0    0    0  0.00000000000E+00  0.00000000000E+00  0.45593999997E+02  0.45594000000E+02  0.51100000000E-03 0.  1.
         11   -1    0    0    0    0 -0.00000000000E+00 -0.00000000000E+00 -0.45593999997E+02  0.45594000000E+02  0.51100000000E-03 0. -1.
    9900012    2    1    2    0    0  0.23073395282E+02 -0.25866007558E+02  0.21254037828E+02  0.50528855385E+02  0.29999986428E+02 0.  0.
         12    1    1    2    0    0 -0.23073395282E+02  0.25866007558E+02 -0.21254037828E+02  0.40659144615E+02  0.00000000000E+00 0. -1.
         11    1    3    3    0    0 -0.50821986973E+01 -0.14015186087E+02  0.54918332168E+01  0.15887555413E+02  0.51100000000E-03 0. -1.
        -11    1    3    3    0    0  0.24344999494E+01 -0.24729938045E+01  0.17650140731E+01  0.38932972273E+01  0.51100000000E-03 0.  1.
         12    1    3    3    0    0  0.25721094030E+02 -0.93778276665E+01  0.13997190538E+02  0.30748002745E+02  0.00000000000E+00 0. -1.
</event>
<event>
 7    1  0.2755991E-011  0.5052895E+02  0.7816164E-02  0.1300438E+00
        -11   -1    0    0    0    0  0.00000000000E+00  0.00000000000E+00  0.45593999997E+02  0.45594000000E+02  0.51100000000E-03 0.  1.
         11   -1    0    0    0    0 -0.00000000000E+00 -0.00000000000E+00 -0.45593999997E+02  0.45594000000E+02  0.51100000000E-03 0. -1.
    9900012    2    1    2    0    0  0.14406222589E+02  0.37990807778E+02 -0.15224088982E+01  0.50528948686E+02  0.30000270025E+02 0.  0.
         12    1    1    2    0    0 -0.14406222589E+02 -0.37990807778E+02  0.15224088982E+01  0.40659051314E+02  0.00000000000E+00 0. -1.
         11    1    3    3    0    0  0.16420691139E+01  0.88097013134E+01  0.32176833563E+00  0.89672048783E+01  0.51100000000E-03 0. -1.
        -11    1    3    3    0    0 -0.55106355866E+01  0.19507923431E+02  0.25256056673E+01  0.20428041154E+02  0.51100000000E-03 0.  1.
        -12    1    3    3    0    0  0.18274789062E+02  0.96731830340E+01 -0.43697829011E+01  0.21133702654E+02  0.00000000000E+00 0.  1.
</event>
<event>
 7    1  0.2755991E-011  0.5052887E+02  0.7816164E-02  0.1300439E+00
        -11   -1    0    0    0    0  0.00000000000E+00  0.00000000000E+00  0.45593999997E+02  0.45594000000E+02  0.51100000000E-03 0.  1.
         11   -1    0    0    0    0 -0.00000000000E+00 -0.00000000000E+00 -0.45593999997E+02  0.45594000000E+02  0.51100000000E-03 0. -1.
    9900012    2    1    2    0    0 -0.18562325684E+02 -0.32899920850E+02  0.15039951296E+02  0.50528869885E+02  0.30000030502E+02 0.  0.
         12    1    1    2    0    0  0.18562325684E+02  0.32899920850E+02 -0.15039951296E+02  0.40659130115E+02  0.00000000000E+00 0. -1.
         11    1    3    3    0    0  0.30966811717E+00 -0.49310915969E+01  0.11120395906E+02  0.12168597456E+02  0.51100000000E-03 0. -1.
        -11    1    3    3    0    0  0.30945545441E+01 -0.65421366996E+01  0.24445080727E+01  0.76388114521E+01  0.51100000000E-03 0.  1.
        -12    1    3    3    0    0 -0.21966548345E+02 -0.21426692553E+02  0.14750473176E+01  0.30721460977E+02  0.00000000000E+00 0.  1.
</event>
<event>
 7    1  0.2755991E-011  0.5052886E+02  0.7816164E-02  0.1300439E+00
        -11   -1    0    0    0    0  0.00000000000E+00  0.00000000000E+00  0.45593999997E+02  0.45594000000E+02  0.51100000000E-03 0.  1.
         11   -1    0    0    0    0 -0.00000000000E+00 -0.00000000000E+00 -0.45593999997E+02  0.45594000000E+02  0.51100000000E-03 0. -1.
    9900012    2    1    2    0    0  0.38323135746E+02  0.65866564061E+01  0.11879332459E+02  0.50528864302E+02  0.30000013532E+02 0.  0.
         12    1    1    2    0    0 -0.38323135746E+02 -0.65866564061E+01 -0.11879332459E+02  0.40659135698E+02  0.00000000000E+00 0. -1.
         11    1    3    3    0    0  0.17330715689E+02 -0.24455453008E+01  0.17104393753E+02  0.24472324859E+02  0.51100000000E-03 0. -1.
        -11    1    3    3    0    0  0.39425717262E+01 -0.14358469989E+01  0.21735119034E+01  0.47254293642E+01  0.51100000000E-03 0.  1.
         12    1    3    3    0    0  0.17049848331E+02  0.10468048706E+02 -0.73985731974E+01  0.21331110079E+02  0.00000000000E+00 0. -1.
</event>
<event>
 7    1  0.2755991E-011  0.5052885E+02  0.7816164E-02  0.1300439E+00
        -11   -1    0    0    0    0  0.00000000000E+00  0.00000000000E+00  0.45593999997E+02  0.45594000000E+02  0.51100000000E-03 0.  1.
         11   -1    0    0    0    0 -0.00000000000E+00 -0.00000000000E+00 -0.45593999997E+02  0.45594000000E+02  0.51100000000E-03 0. -1.
    9900012    2    1    2    0    0 -0.19293228885E+02  0.35602233614E+02 -0.36631752881E+01  0.50528848849E+02  0.29999966563E+02 0.  0.
         12    1    1    2    0    0  0.19293228885E+02 -0.35602233614E+02  0.36631752881E+01  0.40659151151E+02  0.00000000000E+00 0. -1.
         11    1    3    3    0    0  0.79327685000E+00 -0.26446719479E+01  0.69343857129E+00  0.28468289703E+01  0.51100000000E-03 0. -1.
        -11    1    3    3    0    0 -0.10180974015E+01 -0.15841362561E+01 -0.29496516698E+01  0.34994935678E+01  0.51100000000E-03 0.  1.
        -12    1    3    3    0    0 -0.19068408334E+02  0.39831041818E+02 -0.14069621896E+01  0.44182526311E+02  0.00000000000E+00 0.  1.
</event>
<event>
 7    1  0.2755991E-011  0.5052886E+02  0.7816164E-02  0.1300439E+00
        -11   -1    0    0    0    0  0.00000000000E+00  0.00000000000E+00  0.45593999997E+02  0.45594000000E+02  0.51100000000E-03 0.  1.
         11   -1    0    0    0    0 -0.00000000000E+00 -0.00000000000E+00 -0.45593999997E+02  0.45594000000E+02  0.51100000000E-03 0. -1.
    9900012    2    1    2    0    0 -0.23067061214E+02  0.22790870249E+01  0.33404818842E+02  0.50528862373E+02  0.30000007668E+02 0.  0.
         12    1    1    2    0    0  0.23067061214E+02 -0.22790870249E+01 -0.33404818842E+02  0.40659137627E+02  0.00000000000E+00 0. -1.
         11    1    3    3    0    0 -0.82543787962E+01 -0.54404658730E+01  0.85330887484E+01  0.13059366067E+02  0.51100000000E-03 0.  1.
        -11    1    3    3    0    0 -0.83816071800E+01  0.14802768342E+02  0.21295742137E+02  0.27255860341E+02  0.51100000000E-03 0. -1.
         12    1    3    3    0    0 -0.64310752378E+01 -0.70832154442E+01  0.35759879568E+01  0.10213635964E+02  0.00000000000E+00 0. -1.
</event>
<event>
 7    1  0.2755991E-011  0.5052891E+02  0.7816164E-02  0.1300439E+00
        -11   -1    0    0    0    0  0.00000000000E+00  0.00000000000E+00  0.45593999997E+02  0.45594000000E+02  0.51100000000E-03 0.  1.
         11   -1    0    0    0    0 -0.00000000000E+00 -0.00000000000E+00 -0.45593999997E+02  0.45594000000E+02  0.51100000000E-03 0. -1.
    9900012    2    1    2    0    0  0.26071060513E+02  0.71947382882E+01  0.30359459753E+02  0.50528914277E+02  0.30000165436E+02 0.  0.
         12    1    1    2    0    0 -0.26071060513E+02 -0.71947382882E+01 -0.30359459753E+02  0.40659085723E+02  0.00000000000E+00 0. -1.
         11    1    3    3    0    0  0.14398786790E+02  0.73802417763E+01  0.25232213229E+02  0.29974282550E+02  0.51100000000E-03 0. -1.
        -11    1    3    3    0    0  0.87835841785E+01  0.40864812118E+01  0.96657691841E+01  0.13684946982E+02  0.51100000000E-03 0.  1.
         12    1    3    3    0    0  0.28886895442E+01 -0.42719846999E+01 -0.45385226598E+01  0.68696847448E+01  0.00000000000E+00 0. -1.
</event>
<event>
 7    1  0.2755991E-011  0.5052889E+02  0.7816164E-02  0.1300439E+00
        -11   -1    0    0    0    0  0.00000000000E+00  0.00000000000E+00  0.45593999997E+02  0.45594000000E+02  0.51100000000E-03 0. -1.
         11   -1    0    0    0    0 -0.00000000000E+00 -0.00000000000E+00 -0.45593999997E+02  0.45594000000E+02  0.51100000000E-03 0.  1.
    9900012    2    1    2    0    0 -0.15631804469E+02 -0.35129295140E+02 -0.13219021408E+02  0.50528890135E+02  0.30000092054E+02 0.  0.
         12    1    1    2    0    0  0.15631804469E+02  0.35129295140E+02  0.13219021408E+02  0.40659109865E+02  0.00000000000E+00 0. -1.
         11    1    3    3    0    0  0.12042934204E+00  0.24953331517E+01 -0.18899967048E+01  0.31326152923E+01  0.51100000000E-03 0. -1.
        -11    1    3    3    0    0 -0.16171234008E+02 -0.13653081020E+02 -0.99368373981E+01  0.23380679383E+02  0.51100000000E-03 0.  1.
        -12    1    3    3    0    0  0.41900019625E+00 -0.23971547272E+02 -0.13921873054E+01  0.24015595460E+02  0.00000000000E+00 0.  1.
</event>
<event>
 7    1  0.2755991E-011  0.5052886E+02  0.7816164E-02  0.1300439E+00
        -11   -1    0    0    0    0  0.00000000000E+00  0.00000000000E+00  0.45593999997E+02  0.45594000000E+02  0.51100000000E-03 0. -1.
         11   -1    0    0    0    0 -0.00000000000E+00 -0.00000000000E+00 -0.45593999997E+02  0.45594000000E+02  0.51100000000E-03 0.  1.
    9900012    2    1    2    0    0  0.34454106530E+01  0.11332707351E+02 -0.38895561586E+02  0.50528858082E+02  0.29999994625E+02 0.  0.
         12    1    1    2    0    0 -0.34454106530E+01 -0.11332707351E+02  0.38895561586E+02  0.40659141918E+02  0.00000000000E+00 0. -1.
         11    1    3    3    0    0  0.75818009154E+00  0.39407101469E+01 -0.14445410852E+02  0.14992462388E+02  0.51100000000E-03 0. -1.
        -11    1    3    3    0    0  0.37282613130E+01  0.99652464034E+01 -0.28616239256E+02  0.30530234485E+02  0.51100000000E-03 0.  1.
         12    1    3    3    0    0 -0.10410307515E+01 -0.25732491992E+01  0.41660885226E+01  0.50061612084E+01  0.00000000000E+00 0. -1.
</event>
<event>
 7    1  0.2755991E-011  0.5052886E+02  0.7816164E-02  0.1300439E+00
        -11   -1    0    0    0    0  0.00000000000E+00  0.00000000000E+00  0.45593999997E+02  0.45594000000E+02  0.51100000000E-03 0.  1.
         11   -1    0    0    0    0 -0.00000000000E+00 -0.00000000000E+00 -0.45593999997E+02  0.45594000000E+02  0.51100000000E-03 0. -1.
    9900012    2    1    2    0    0  0.23345419819E+02 -0.11974670451E+02  0.31060652927E+02  0.50528861800E+02  0.30000005926E+02 0.  0.
         12    1    1    2    0    0 -0.23345419819E+02  0.11974670451E+02 -0.31060652927E+02  0.40659138200E+02  0.00000000000E+00 0. -1.
         11    1    3    3    0    0  0.34886036951E+01 -0.63863445041E+00  0.77139300204E-01  0.35474160223E+01  0.51100000000E-03 0. -1.
        -11    1    3    3    0    0  0.11817111141E+02  0.65113982160E+01  0.48667062492E+01  0.14343195335E+02  0.51100000000E-03 0.  1.
        -12    1    3    3    0    0  0.80397049834E+01 -0.17847434217E+02  0.26116807377E+02  0.32638250442E+02  0.00000000000E+00 0.  1.
</event>
<event>
 7    1  0.2755991E-011  0.5052885E+02  0.7816164E-02  0.1300439E+00
        -11   -1    0    0    0    0  0.00000000000E+00  0.00000000000E+00  0.45593999997E+02  0.45594000000E+02  0.51100000000E-03 0.  1.
         11   -1    0    0    0    0 -0.00000000000E+00 -0.00000000000E+00 -0.45593999997E+02  0.45594000000E+02  0.51100000000E-03 0. -1.
    9900012    2    1    2    0    0 -0.25612744394E+02  0.29145813945E+02  0.12152187139E+02  0.50528846071E+02  0.29999958118E+02 0.  0.
         12    1    1    2    0    0  0.25612744394E+02 -0.29145813945E+02 -0.12152187139E+02  0.40659153929E+02  0.00000000000E+00 0. -1.
         11    1    3    3    0    0 -0.14360329255E+02  0.14924513324E+02  0.24829675270E+01  0.20859656811E+02  0.51100000000E-03 0. -1.
        -11    1    3    3    0    0 -0.94299805727E+00  0.17125659087E+02  0.76020097095E+01  0.18760810121E+02  0.51100000000E-03 0.  1.
        -12    1    3    3    0    0 -0.10309417082E+02 -0.29043584661E+01  0.20672099024E+01  0.10908379139E+02  0.00000000000E+00 0.  1.
</event>
<event>
 7    1  0.2755991E-011  0.5052885E+02  0.7816164E-02  0.1300439E+00
        -11   -1    0    0    0    0  0.00000000000E+00  0.00000000000E+00  0.45593999997E+02  0.45594000000E+02  0.51100000000E-03 0. -1.
         11   -1    0    0    0    0 -0.00000000000E+00 -0.00000000000E+00 -0.45593999997E+02  0.45594000000E+02  0.51100000000E-03 0.  1.
    9900012    2    1    2    0    0 -0.75602663496E+01 -0.37442404090E+02  0.13931090964E+02  0.50528849164E+02  0.29999967518E+02 0.  0.
         12    1    1    2    0    0  0.75602663496E+01  0.37442404090E+02 -0.13931090964E+02  0.40659150836E+02  0.00000000000E+00 0. -1.
         11    1    3    3    0    0 -0.63597067481E+01 -0.63351404074E+01 -0.27277898274E+01  0.93819353817E+01  0.51100000000E-03 0. -1.
        -11    1    3    3    0    0 -0.10573090769E+02 -0.20701453611E+02  0.75494952632E+01  0.24440444124E+02  0.51100000000E-03 0.  1.
         12    1    3    3    0    0  0.93725311670E+01 -0.10405810072E+02  0.91093855283E+01  0.16706469658E+02  0.00000000000E+00 0. -1.
</event>
<event>
 7    1  0.2755991E-011  0.5052886E+02  0.7816164E-02  0.1300439E+00
        -11   -1    0    0    0    0  0.00000000000E+00  0.00000000000E+00  0.45593999997E+02  0.45594000000E+02  0.51100000000E-03 0.  1.
         11   -1    0    0    0    0 -0.00000000000E+00 -0.00000000000E+00 -0.45593999997E+02  0.45594000000E+02  0.51100000000E-03 0. -1.
    9900012    2    1    2    0    0  0.25575872882E+02  0.99506627293E+01  0.30000413076E+02  0.50528858996E+02  0.29999997405E+02 0.  0.
         12    1    1    2    0    0 -0.25575872882E+02 -0.99506627293E+01 -0.30000413076E+02  0.40659141004E+02  0.00000000000E+00 0. -1.
         11    1    3    3    0    0  0.32186008179E+00 -0.39479458045E+01  0.81128921828E+01  0.90282273907E+01  0.51100000000E-03 0. -1.
        -11    1    3    3    0    0 -0.17040773832E+01  0.66906861730E+01  0.18536339380E+01  0.71487845282E+01  0.51100000000E-03 0.  1.
        -12    1    3    3    0    0  0.26958090183E+02  0.72079223608E+01  0.20033886955E+02  0.34351847077E+02  0.00000000000E+00 0.  1.
</event>
<event>
 7    1  0.2755991E-011  0.5052884E+02  0.7816164E-02  0.1300439E+00
        -11   -1    0    0    0    0  0.00000000000E+00  0.00000000000E+00  0.45593999997E+02  0.45594000000E+02  0.51100000000E-03 0. -1.
         11   -1    0    0    0    0 -0.00000000000E+00 -0.00000000000E+00 -0.45593999997E+02  0.45594000000E+02  0.51100000000E-03 0.  1.
    9900012    2    1    2    0    0  0.29823182076E+02  0.21866577972E+02  0.16899637868E+02  0.50528841359E+02  0.29999943794E+02 0.  0.
         12    1    1    2    0    0 -0.29823182076E+02 -0.21866577972E+02 -0.16899637868E+02  0.40659158641E+02  0.00000000000E+00 0. -1.
         11    1    3    3    0    0  0.39110553923E+01  0.17543143889E+02  0.34649770289E+01  0.18304762163E+02  0.51100000000E-03 0. -1.
        -11    1    3    3    0    0  0.33735624111E+01  0.43486624688E+01 -0.80754015018E+00  0.55627250484E+01  0.51100000000E-03 0.  1.
        -12    1    3    3    0    0  0.22538564272E+02 -0.25228385525E-01  0.14242200990E+02  0.26661354147E+02  0.00000000000E+00 0.  1.
</event>
<event>
 7    1  0.2755991E-011  0.5052887E+02  0.7816164E-02  0.1300439E+00
        -11   -1    0    0    0    0  0.00000000000E+00  0.00000000000E+00  0.45593999997E+02  0.45594000000E+02  0.51100000000E-03 0.  1.
         11   -1    0    0    0    0 -0.00000000000E+00 -0.00000000000E+00 -0.45593999997E+02  0.45594000000E+02  0.51100000000E-03 0. -1.
    9900012    2    1    2    0    0  0.10671830295E+02  0.64218671383E+01  0.38704476933E+02  0.50528869733E+02  0.30000030041E+02 0.  0.
         12    1    1    2    0    0 -0.10671830295E+02 -0.64218671383E+01 -0.38704476933E+02  0.40659130267E+02  0.00000000000E+00 0. -1.
         11    1    3    3    0    0  0.90015325084E+01  0.46202166674E+01  0.26213470308E+02  0.28098398805E+02  0.51100000000E-03 0. -1.
        -11    1    3    3    0    0  0.66950734994E+01  0.79260052933E+01  0.91474472748E+01  0.13831896507E+02  0.51100000000E-03 0.  1.
         12    1    3    3    0    0 -0.50247757130E+01 -0.61243548223E+01  0.33435593505E+01  0.85985744217E+01  0.00000000000E+00 0. -1.
</event>
<event>
 7    1  0.2755991E-011  0.5052889E+02  0.7816164E-02  0.1300439E+00
        -11   -1    0    0    0    0  0.00000000000E+00  0.00000000000E+00  0.45593999997E+02  0.45594000000E+02  0.51100000000E-03 0.  1.
         11   -1    0    0    0    0 -0.00000000000E+00 -0.00000000000E+00 -0.45593999997E+02  0.45594000000E+02  0.51100000000E-03 0. -1.
    9900012    2    1    2    0    0  0.37190949222E+02  0.67081093076E+01  0.14999938371E+02  0.50528885577E+02  0.30000078200E+02 0.  0.
         12    1    1    2    0    0 -0.37190949222E+02 -0.67081093076E+01 -0.14999938371E+02  0.40659114423E+02  0.00000000000E+00 0. -1.
         11    1    3    3    0    0  0.10204587369E+02  0.63044761206E+00  0.19932311709E+01  0.10416527172E+02  0.51100000000E-03 0.  1.
        -11    1    3    3    0    0  0.27755045939E+02 -0.33344252034E+01  0.66681946008E+01  0.28738924580E+02  0.51100000000E-03 0. -1.
         12    1    3    3    0    0 -0.76868408579E+00  0.94120868989E+01  0.63385125989E+01  0.11373433825E+02  0.00000000000E+00 0. -1.
</event>
<event>
 7    1  0.2755991E-011  0.5052886E+02  0.7816164E-02  0.1300439E+00
        -11   -1    0    0    0    0  0.00000000000E+00  0.00000000000E+00  0.45593999997E+02  0.45594000000E+02  0.51100000000E-03 0.  1.
         11   -1    0    0    0    0 -0.00000000000E+00 -0.00000000000E+00 -0.45593999997E+02  0.45594000000E+02  0.51100000000E-03 0. -1.
    9900012    2    1    2    0    0  0.63058466783E+01 -0.35926870290E+02 -0.17962785847E+02  0.50528863431E+02  0.30000010884E+02 0.  0.
         12    1    1    2    0    0 -0.63058466783E+01  0.35926870290E+02  0.17962785847E+02  0.40659136569E+02  0.00000000000E+00 0. -1.
         11    1    3    3    0    0 -0.45749516788E+01 -0.23076334087E+02 -0.15201375144E+02  0.28009448125E+02  0.51100000000E-03 0. -1.
        -11    1    3    3    0    0 -0.13490782986E+01 -0.79892463476E+01 -0.44614142666E+01  0.92494479283E+01  0.51100000000E-03 0.  1.
         12    1    3    3    0    0  0.12229876656E+02 -0.48612898555E+01  0.17000035634E+01  0.13269967377E+02  0.00000000000E+00 0. -1.
</event>
<event>
 7    1  0.2755991E-011  0.5052888E+02  0.7816164E-02  0.1300439E+00
        -11   -1    0    0    0    0  0.00000000000E+00  0.00000000000E+00  0.45593999997E+02  0.45594000000E+02  0.51100000000E-03 0.  1.
         11   -1    0    0    0    0 -0.00000000000E+00 -0.00000000000E+00 -0.45593999997E+02  0.45594000000E+02  0.51100000000E-03 0. -1.
    9900012    2    1    2    0    0 -0.38580416677E+02 -0.41046672690E+01  0.12160051399E+02  0.50528884240E+02  0.30000074136E+02 0.  0.
         12    1    1    2    0    0  0.38580416677E+02  0.41046672690E+01 -0.12160051399E+02  0.40659115760E+02  0.00000000000E+00 0. -1.
         11    1    3    3    0    0 -0.20669402748E+01  0.24133403016E+01 -0.14649834201E+01  0.34989470121E+01  0.51100000000E-03 0. -1.
        -11    1    3    3    0    0  0.21499651675E+00  0.31360452567E+01  0.80561980762E+01  0.86477356029E+01  0.51100000000E-03 0.  1.
        -12    1    3    3    0    0 -0.36728472919E+02 -0.96540528273E+01  0.55688367432E+01  0.38382201625E+02  0.00000000000E+00 0.  1.
</event>
<event>
 7    1  0.2755991E-011  0.5052886E+02  0.7816164E-02  0.1300439E+00
        -11   -1    0    0    0    0  0.00000000000E+00  0.00000000000E+00  0.45593999997E+02  0.45594000000E+02  0.51100000000E-03 0.  1.
         11   -1    0    0    0    0 -0.00000000000E+00 -0.00000000000E+00 -0.45593999997E+02  0.45594000000E+02  0.51100000000E-03 0. -1.
    9900012    2    1    2    0    0 -0.11167766037E+02 -0.35778164011E+02  0.15759739843E+02  0.50528863042E+02  0.30000009703E+02 0.  0.
         12    1    1    2    0    0  0.11167766037E+02  0.35778164011E+02 -0.15759739843E+02  0.40659136958E+02  0.00000000000E+00 0. -1.
         11    1    3    3    0    0  0.26014664561E+01 -0.67840091278E+01 -0.46717718576E+01  0.86380472399E+01  0.51100000000E-03 0. -1.
        -11    1    3    3    0    0 -0.95946581253E+01 -0.27159656714E+02  0.99742373596E+01  0.30482615185E+02  0.51100000000E-03 0.  1.
         12    1    3    3    0    0 -0.41745743678E+01 -0.18344981687E+01  0.10457274341E+02  0.11408200617E+02  0.00000000000E+00 0. -1.
</event>
<event>
 7    1  0.2755991E-011  0.5052887E+02  0.7816164E-02  0.1300439E+00
        -11   -1    0    0    0    0  0.00000000000E+00  0.00000000000E+00  0.45593999997E+02  0.45594000000E+02  0.51100000000E-03 0.  1.
         11   -1    0    0    0    0 -0.00000000000E+00 -0.00000000000E+00 -0.45593999997E+02  0.45594000000E+02  0.51100000000E-03 0. -1.
    9900012    2    1    2    0    0 -0.37581979284E+01 -0.40404471333E+02 -0.25533643049E+01  0.50528867881E+02  0.30000024412E+02 0.  0.
         12    1    1    2    0    0  0.37581979284E+01  0.40404471333E+02  0.25533643049E+01  0.40659132119E+02  0.00000000000E+00 0. -1.
         11    1    3    3    0    0  0.22310829068E+01  0.21396047169E+01 -0.45488943059E+01  0.54998253562E+01  0.51100000000E-03 0. -1.
        -11    1    3    3    0    0  0.35558313333E+01 -0.43783962009E+01  0.72188054675E-01  0.56408776923E+01  0.51100000000E-03 0.  1.
        -12    1    3    3    0    0 -0.95451121685E+01 -0.38165679849E+02  0.19233419464E+01  0.39388164833E+02  0.00000000000E+00 0.  1.
</event>
<event>
 7    1  0.2755991E-011  0.5052890E+02  0.7816164E-02  0.1300439E+00
        -11   -1    0    0    0    0  0.00000000000E+00  0.00000000000E+00  0.45593999997E+02  0.45594000000E+02  0.51100000000E-03 0.  1.
         11   -1    0    0    0    0 -0.00000000000E+00 -0.00000000000E+00 -0.45593999997E+02  0.45594000000E+02  0.51100000000E-03 0. -1.
    9900012    2    1    2    0    0 -0.19283582489E+02 -0.27615624047E+02  0.22774619617E+02  0.50528898389E+02  0.30000117143E+02 0.  0.
         12    1    1    2    0    0  0.19283582489E+02  0.27615624047E+02 -0.22774619617E+02  0.40659101611E+02  0.00000000000E+00 0. -1.
         11    1    3    3    0    0 -0.91383836821E+01 -0.30938919094E+01  0.15235198980E+02  0.18033122627E+02  0.51100000000E-03 0. -1.
        -11    1    3    3    0    0 -0.35599466700E+01  0.17211777217E+01  0.32141053621E+01  0.50956988316E+01  0.51100000000E-03 0.  1.
         12    1    3    3    0    0 -0.65852521365E+01 -0.26242909859E+02  0.43253152758E+01  0.27400076931E+02  0.00000000000E+00 0. -1.
</event>
<event>
 7    1  0.2755991E-011  0.5052886E+02  0.7816164E-02  0.1300439E+00
        -11   -1    0    0    0    0  0.00000000000E+00  0.00000000000E+00  0.45593999997E+02  0.45594000000E+02  0.51100000000E-03 0.  1.
         11   -1    0    0    0    0 -0.00000000000E+00 -0.00000000000E+00 -0.45593999997E+02  0.45594000000E+02  0.51100000000E-03 0. -1.
    9900012    2    1    2    0    0 -0.32370529196E+02  0.22572219272E+02  0.97882264364E+01  0.50528860560E+02  0.30000002157E+02 0.  0.
         12    1    1    2    0    0  0.32370529196E+02 -0.22572219272E+02 -0.97882264364E+01  0.40659139440E+02  0.00000000000E+00 0. -1.
         11    1    3    3    0    0  0.38015548932E+00  0.16979213900E+01 -0.31937349327E+01  0.36369490406E+01  0.51100000000E-03 0. -1.
        -11    1    3    3    0    0 -0.10388632034E+02  0.97794176161E+01 -0.60540685467E+01  0.15498788039E+02  0.51100000000E-03 0.  1.
        -12    1    3    3    0    0 -0.22362052651E+02  0.11094880266E+02  0.19036029916E+02  0.31393123480E+02  0.00000000000E+00 0.  1.
</event>
<event>
 7    1  0.2755991E-011  0.5052897E+02  0.7816164E-02  0.1300438E+00
        -11   -1    0    0    0    0  0.00000000000E+00  0.00000000000E+00  0.45593999997E+02  0.45594000000E+02  0.51100000000E-03 0.  1.
         11   -1    0    0    0    0 -0.00000000000E+00 -0.00000000000E+00 -0.45593999997E+02  0.45594000000E+02  0.51100000000E-03 0. -1.
    9900012    2    1    2    0    0 -0.83167752693E+00 -0.40564756814E+02 -0.26393040332E+01  0.50528965227E+02  0.30000320303E+02 0.  0.
         12    1    1    2    0    0  0.83167752693E+00  0.40564756814E+02  0.26393040332E+01  0.40659034773E+02  0.00000000000E+00 0. -1.
         11    1    3    3    0    0  0.49636070605E+01 -0.84971519585E+01 -0.28656718175E+01  0.10249442018E+02  0.51100000000E-03 0. -1.
        -11    1    3    3    0    0 -0.97772785138E-01 -0.26177586174E+02 -0.92383985299E+01  0.27760107800E+02  0.51100000000E-03 0.  1.
        -12    1    3    3    0    0 -0.56975118023E+01 -0.58900186817E+01  0.94647663143E+01  0.12519415409E+02  0.00000000000E+00 0.  1.
</event>
<event>
 7    1  0.2755991E-011  0.5052886E+02  0.7816164E-02  0.1300439E+00
        -11   -1    0    0    0    0  0.00000000000E+00  0.00000000000E+00  0.45593999997E+02  0.45594000000E+02  0.51100000000E-03 0. -1.
         11   -1    0    0    0    0 -0.00000000000E+00 -0.00000000000E+00 -0.45593999997E+02  0.45594000000E+02  0.51100000000E-03 0.  1.
    9900012    2    1    2    0    0 -0.38001122745E+02 -0.99316657447E+01 -0.10509142518E+02  0.50528863379E+02  0.30000010726E+02 0.  0.
         12    1    1    2    0    0  0.38001122745E+02  0.99316657447E+01  0.10509142518E+02  0.40659136621E+02  0.00000000000E+00 0. -1.
         11    1    3    3    0    0 -0.53327597379E+01 -0.52478009684E+01  0.43254663456E+00  0.74943204013E+01  0.51100000000E-03 0. -1.
        -11    1    3    3    0    0 -0.21087758996E+02 -0.12459393359E+02 -0.14728642929E+02  0.28580814984E+02  0.51100000000E-03 0.  1.
        -12    1    3    3    0    0 -0.11580604011E+02  0.77755285827E+01  0.37869537767E+01  0.14453727994E+02  0.00000000000E+00 0.  1.
</event>
<event>
 7    1  0.2755991E-011  0.5052886E+02  0.7816164E-02  0.1300439E+00
        -11   -1    0    0    0    0  0.00000000000E+00  0.00000000000E+00  0.45593999997E+02  0.45594000000E+02  0.51100000000E-03 0.  1.
         11   -1    0    0    0    0 -0.00000000000E+00 -0.00000000000E+00 -0.45593999997E+02  0.45594000000E+02  0.51100000000E-03 0. -1.
    9900012    2    1    2    0    0 -0.35688426400E+02  0.86192713773E+01  0.17470265519E+02  0.50528858405E+02  0.29999995607E+02 0.  0.
         12    1    1    2    0    0  0.35688426400E+02 -0.86192713773E+01 -0.17470265519E+02  0.40659141595E+02  0.00000000000E+00 0. -1.
         11    1    3    3    0    0 -0.18348787081E+00  0.35246224436E+01  0.18560833061E+01  0.39876906436E+01  0.51100000000E-03 0. -1.
        -11    1    3    3    0    0 -0.28830742277E+02  0.26624523077E+01 -0.47102083610E+00  0.28957248029E+02  0.51100000000E-03 0.  1.
         12    1    3    3    0    0 -0.66741962523E+01  0.24321966260E+01  0.16085203049E+02  0.17583919732E+02  0.00000000000E+00 0. -1.
</event>
<event>
 7    1  0.2755991E-011  0.5052886E+02  0.7816164E-02  0.1300439E+00
        -11   -1    0    0    0    0  0.00000000000E+00  0.00000000000E+00  0.45593999997E+02  0.45594000000E+02  0.51100000000E-03 0. -1.
         11   -1    0    0    0    0 -0.00000000000E+00 -0.00000000000E+00 -0.45593999997E+02  0.45594000000E+02  0.51100000000E-03 0.  1.
    9900012    2    1    2    0    0 -0.13182473624E+02 -0.12448009619E+02 -0.36392790220E+02  0.50528859154E+02  0.29999997885E+02 0.  0.
         12    1    1    2    0    0  0.13182473624E+02  0.12448009619E+02  0.36392790220E+02  0.40659140846E+02  0.00000000000E+00 0. -1.
         11    1    3    3    0    0 -0.92762280673E+01  0.30830463772E+01 -0.23692132796E+02  0.25629489632E+02  0.51100000000E-03 0. -1.
        -11    1    3    3    0    0 -0.81618067324E+00  0.82552930407E+00 -0.73111020556E+01  0.74026929595E+01  0.51100000000E-03 0.  1.
         12    1    3    3    0    0 -0.30900648834E+01 -0.16356585300E+02 -0.53895553687E+01  0.17496676563E+02  0.00000000000E+00 0. -1.
</event>
<event>
 7    1  0.2755991E-011  0.5052889E+02  0.7816164E-02  0.1300439E+00
        -11   -1    0    0    0    0  0.00000000000E+00  0.00000000000E+00  0.45593999997E+02  0.45594000000E+02  0.51100000000E-03 0.  1.
         11   -1    0    0    0    0 -0.00000000000E+00 -0.00000000000E+00 -0.45593999997E+02  0.45594000000E+02  0.51100000000E-03 0. -1.
    9900012    2    1    2    0    0  0.14378175130E+02 -0.11656331303E+02  0.36201672467E+02  0.50528891931E+02  0.30000097514E+02 0.  0.
         12    1    1    2    0    0 -0.14378175130E+02  0.11656331303E+02 -0.36201672467E+02  0.40659108069E+02  0.00000000000E+00 0. -1.
         11    1    3    3    0    0  0.17012385173E+02 -0.90473041212E+01  0.15382126990E+02  0.24655319753E+02  0.51100000000E-03 0. -1.
        -11    1    3    3    0    0 -0.40861226257E-02 -0.72576612636E+01  0.18819201300E+02  0.20170176042E+02  0.51100000000E-03 0.  1.
         12    1    3    3    0    0 -0.26301239203E+01  0.46486340816E+01  0.20003441771E+01  0.57033961363E+01  0.00000000000E+00 0. -1.
</event>
<event>
 7    1  0.2755991E-011  0.5052886E+02  0.7816164E-02  0.1300439E+00
        -11   -1    0    0    0    0  0.00000000000E+00  0.00000000000E+00  0.45593999997E+02  0.45594000000E+02  0.51100000000E-03 0.  1.
         11   -1    0    0    0    0 -0.00000000000E+00 -0.00000000000E+00 -0.45593999997E+02  0.45594000000E+02  0.51100000000E-03 0. -1.
    9900012    2    1    2    0    0 -0.67283096596E+01  0.86293644903E+01  0.39159033165E+02  0.50528856370E+02  0.29999989421E+02 0.  0.
         12    1    1    2    0    0  0.67283096596E+01 -0.86293644903E+01 -0.39159033165E+02  0.40659143630E+02  0.00000000000E+00 0. -1.
         11    1    3    3    0    0  0.34014243669E+01  0.82371847593E+01  0.17525710253E+02  0.19661419598E+02  0.51100000000E-03 0. -1.
        -11    1    3    3    0    0  0.22099432757E+01  0.21865460766E+01 -0.23090498748E+01  0.38725372319E+01  0.51100000000E-03 0.  1.
         12    1    3    3    0    0 -0.12339677302E+02 -0.17943663456E+01  0.23942372786E+02  0.26994899539E+02  0.00000000000E+00 0. -1.
</event>
<event>
 7    1  0.2755991E-011  0.5052886E+02  0.7816164E-02  0.1300439E+00
        -11   -1    0    0    0    0  0.00000000000E+00  0.00000000000E+00  0.45593999997E+02  0.45594000000E+02  0.51100000000E-03 0.  1.
         11   -1    0    0    0    0 -0.00000000000E+00 -0.00000000000E+00 -0.45593999997E+02  0.45594000000E+02  0.51100000000E-03 0. -1.
    9900012    2    1    2    0    0  0.37084072650E+02 -0.13438605682E+02  0.98661657179E+01  0.50528858433E+02  0.29999995692E+02 0.  0.
         12    1    1    2    0    0 -0.37084072650E+02  0.13438605682E+02 -0.98661657179E+01  0.40659141567E+02  0.00000000000E+00 0. -1.
         11    1    3    3    0    0  0.15637542755E+02 -0.11337136642E+01 -0.51600671374E+01  0.16505888138E+02  0.51100000000E-03 0. -1.
        -11    1    3    3    0    0  0.43749121218E+00 -0.48569744118E+01 -0.26723702080E+01  0.55608598065E+01  0.51100000000E-03 0.  1.
        -12    1    3    3    0    0  0.21009038683E+02 -0.74479176062E+01  0.17698603063E+02  0.28462110488E+02  0.00000000000E+00 0.  1.
</event>
<event>
 7    1  0.2755991E-011  0.5052886E+02  0.7816164E-02  0.1300439E+00
        -11   -1    0    0    0    0  0.00000000000E+00  0.00000000000E+00  0.45593999997E+02  0.45594000000E+02  0.51100000000E-03 0.  1.
         11   -1    0    0    0    0 -0.00000000000E+00 -0.00000000000E+00 -0.45593999997E+02  0.45594000000E+02  0.51100000000E-03 0. -1.
    9900012    2    1    2    0    0  0.80947661963E+01 -0.23391494857E+02  0.32256445271E+02  0.50528861631E+02  0.30000005412E+02 0.  0.
         12    1    1    2    0    0 -0.80947661963E+01  0.23391494857E+02 -0.32256445271E+02  0.40659138369E+02  0.00000000000E+00 0. -1.
         11    1    3    3    0    0  0.10340752908E+02 -0.84800927497E+01  0.26078991925E+00  0.13375767469E+02  0.51100000000E-03 0. -1.
        -11    1    3    3    0    0  0.74532700698E+00 -0.22158312601E+00 -0.78637947821E+00  0.11058952816E+01  0.51100000000E-03 0.  1.
        -12    1    3    3    0    0 -0.29913137188E+01 -0.14689818982E+02  0.32782034830E+02  0.36047198880E+02  0.00000000000E+00 0.  1.
</event>
<event>
 7    1  0.2755991E-011  0.5052886E+02  0.7816164E-02  0.1300439E+00
        -11   -1    0    0    0    0  0.00000000000E+00  0.00000000000E+00  0.45593999997E+02  0.45594000000E+02  0.51100000000E-03 0.  1.
         11   -1    0    0    0    0 -0.00000000000E+00 -0.00000000000E+00 -0.45593999997E+02  0.45594000000E+02  0.51100000000E-03 0. -1.
    9900012    2    1    2    0    0 -0.14210116347E+01  0.23082333468E+02  0.33441769193E+02  0.50528864260E+02  0.30000013404E+02 0.  0.
         12    1    1    2    0    0  0.14210116347E+01 -0.23082333468E+02 -0.33441769193E+02  0.40659135740E+02  0.00000000000E+00 0. -1.
         11    1    3    3    0    0 -0.24084575907E+01 -0.16412395033E+01  0.37642097618E+01  0.47606313096E+01  0.51100000000E-03 0. -1.
        -11    1    3    3    0    0 -0.24660790035E+01  0.26082403104E+01  0.21716681855E+02  0.22011331950E+02  0.51100000000E-03 0.  1.
        -12    1    3    3    0    0  0.34535249596E+01  0.22115332661E+02  0.79608775763E+01  0.23756901000E+02  0.00000000000E+00 0.  1.
</event>
<event>
 7    1  0.2755991E-011  0.5052887E+02  0.7816164E-02  0.1300439E+00
        -11   -1    0    0    0    0  0.00000000000E+00  0.00000000000E+00  0.45593999997E+02  0.45594000000E+02  0.51100000000E-03 0. -1.
         11   -1    0    0    0    0 -0.00000000000E+00 -0.00000000000E+00 -0.45593999997E+02  0.45594000000E+02  0.51100000000E-03 0.  1.
    9900012    2    1    2    0    0  0.31447476390E+02 -0.12893851931E+02 -0.22315237540E+02  0.50528867995E+02  0.30000024759E+02 0.  0.
         12    1    1    2    0    0 -0.31447476390E+02  0.12893851931E+02  0.22315237540E+02  0.40659132005E+02  0.00000000000E+00 0. -1.
         11    1    3    3    0    0  0.17003385521E+02  0.40657424770E+01 -0.89633148350E+01  0.19646536442E+02  0.51100000000E-03 0. -1.
        -11    1    3    3    0    0 -0.19969420496E+01 -0.98756326892E+00 -0.66313000199E+01  0.69955127742E+01  0.51100000000E-03 0.  1.
         12    1    3    3    0    0  0.16441032918E+02 -0.15972031139E+02 -0.67206226850E+01  0.23886818779E+02  0.00000000000E+00 0. -1.
</event>
<event>
 7    1  0.2755991E-011  0.5052887E+02  0.7816164E-02  0.1300439E+00
        -11   -1    0    0    0    0  0.00000000000E+00  0.00000000000E+00  0.45593999997E+02  0.45594000000E+02  0.51100000000E-03 0. -1.
         11   -1    0    0    0    0 -0.00000000000E+00 -0.00000000000E+00 -0.45593999997E+02  0.45594000000E+02  0.51100000000E-03 0.  1.
    9900012    2    1    2    0    0  0.35148837695E+02  0.84067196732E+01  0.18629317382E+02  0.50528865809E+02  0.30000018114E+02 0.  0.
         12    1    1    2    0    0 -0.35148837695E+02 -0.84067196732E+01 -0.18629317382E+02  0.40659134191E+02  0.00000000000E+00 0. -1.
         11    1    3    3    0    0 -0.13251817403E+01  0.64005165997E+01  0.34943339686E+01  0.74116860116E+01  0.51100000000E-03 0.  1.
        -11    1    3    3    0    0  0.65560842023E+00  0.24907062672E+01  0.54210490059E+01  0.60017674643E+01  0.51100000000E-03 0. -1.
        -12    1    3    3    0    0  0.35818411015E+02 -0.48450319372E+00  0.97139344077E+01  0.37115412334E+02  0.00000000000E+00 0.  1.
</event>
<event>
 7    1  0.2755991E-011  0.5052885E+02  0.7816164E-02  0.1300439E+00
        -11   -1    0    0    0    0  0.00000000000E+00  0.00000000000E+00  0.45593999997E+02  0.45594000000E+02  0.51100000000E-03 0. -1.
         11   -1    0    0    0    0 -0.00000000000E+00 -0.00000000000E+00 -0.45593999997E+02  0.45594000000E+02  0.51100000000E-03 0.  1.
    9900012    2    1    2    0    0  0.21527358138E+02 -0.22636665396E+02  0.26025381916E+02  0.50528852536E+02  0.29999977769E+02 0.  0.
         12    1    1    2    0    0 -0.21527358138E+02  0.22636665396E+02 -0.26025381916E+02  0.40659147464E+02  0.00000000000E+00 0. -1.
         11    1    3    3    0    0  0.65805031009E+01  0.51563921291E+00  0.17311094964E+02  0.18526816077E+02  0.51100000000E-03 0. -1.
        -11    1    3    3    0    0 -0.14115305116E+01 -0.48174047352E+01  0.51174326174E+01  0.71685370630E+01  0.51100000000E-03 0.  1.
        -12    1    3    3    0    0  0.16358385549E+02 -0.18334899873E+02  0.35968543343E+01  0.24833499396E+02  0.00000000000E+00 0.  1.
</event>
<event>
 7    1  0.2755991E-011  0.5052886E+02  0.7816164E-02  0.1300439E+00
        -11   -1    0    0    0    0  0.00000000000E+00  0.00000000000E+00  0.45593999997E+02  0.45594000000E+02  0.51100000000E-03 0. -1.
         11   -1    0    0    0    0 -0.00000000000E+00 -0.00000000000E+00 -0.45593999997E+02  0.45594000000E+02  0.51100000000E-03 0.  1.
    9900012    2    1    2    0    0 -0.33607806780E+02 -0.17251342724E+02 -0.15035697542E+02  0.50528859540E+02  0.29999999058E+02 0.  0.
         12    1    1    2    0    0  0.33607806780E+02  0.17251342724E+02  0.15035697542E+02  0.40659140460E+02  0.00000000000E+00 0. -1.
         11    1    3    3    0    0 -0.40626919914E+01 -0.26727296666E+01 -0.97125329083E+01  0.10861963259E+02  0.51100000000E-03 0. -1.
        -11    1    3    3    0    0 -0.14842898328E+02 -0.14859838540E+02 -0.11233773877E+02  0.23818566456E+02  0.51100000000E-03 0.  1.
         12    1    3    3    0    0 -0.14702216461E+02  0.28122548268E+00  0.59106092434E+01  0.15848329825E+02  0.00000000000E+00 0. -1.
</event>
<event>
 7    1  0.2755991E-011  0.5052886E+02  0.7816164E-02  0.1300439E+00
        -11   -1    0    0    0    0  0.00000000000E+00  0.00000000000E+00  0.45593999997E+02  0.45594000000E+02  0.51100000000E-03 0.  1.
         11   -1    0    0    0    0 -0.00000000000E+00 -0.00000000000E+00 -0.45593999997E+02  0.45594000000E+02  0.51100000000E-03 0. -1.
    9900012    2    1    2    0    0 -0.40036555289E+02  0.40143180597E+00  0.70766179486E+01  0.50528862915E+02  0.30000009315E+02 0.  0.
         12    1    1    2    0    0  0.40036555289E+02 -0.40143180597E+00 -0.70766179486E+01  0.40659137085E+02  0.00000000000E+00 0. -1.
         11    1    3    3    0    0  0.37067258634E+01 -0.96486701178E-01  0.81193738164E-01  0.37088703123E+01  0.51100000000E-03 0. -1.
        -11    1    3    3    0    0 -0.11950934573E+02  0.17180845196E+00  0.90016252495E+01  0.14962740815E+02  0.51100000000E-03 0.  1.
         12    1    3    3    0    0 -0.31792346580E+02  0.32611005519E+00 -0.20062010390E+01  0.31857251787E+02  0.00000000000E+00 0. -1.
</event>
<event>
 7    1  0.2755991E-011  0.5052886E+02  0.7816164E-02  0.1300439E+00
        -11   -1    0    0    0    0  0.00000000000E+00  0.00000000000E+00  0.45593999997E+02  0.45594000000E+02  0.51100000000E-03 0. -1.
         11   -1    0    0    0    0 -0.00000000000E+00 -0.00000000000E+00 -0.45593999997E+02  0.45594000000E+02  0.51100000000E-03 0.  1.
    9900012    2    1    2    0    0  0.36937049149E+02  0.16649693743E+02 -0.34070214390E+01  0.50528859617E+02  0.29999999292E+02 0.  0.
         12    1    1    2    0    0 -0.36937049149E+02 -0.16649693743E+02  0.34070214390E+01  0.40659140383E+02  0.00000000000E+00 0. -1.
         11    1    3    3    0    0  0.75178162516E+01  0.77597119301E+01  0.82913074896E+01  0.13618974652E+02  0.51100000000E-03 0. -1.
        -11    1    3    3    0    0  0.86314245224E+01  0.71621221830E+01  0.27339823937E+01  0.11544355480E+02  0.51100000000E-03 0.  1.
         12    1    3    3    0    0  0.20787808375E+02  0.17278596298E+01 -0.14432311322E+02  0.25365529485E+02  0.00000000000E+00 0. -1.
</event>
<event>
 7    1  0.2755991E-011  0.5052886E+02  0.7816164E-02  0.1300439E+00
        -11   -1    0    0    0    0  0.00000000000E+00  0.00000000000E+00  0.45593999997E+02  0.45594000000E+02  0.51100000000E-03 0. -1.
         11   -1    0    0    0    0 -0.00000000000E+00 -0.00000000000E+00 -0.45593999997E+02  0.45594000000E+02  0.51100000000E-03 0.  1.
    9900012    2    1    2    0    0  0.22910559672E+02 -0.13612489949E+02 -0.30707848985E+02  0.50528860605E+02  0.30000002294E+02 0.  0.
         12    1    1    2    0    0 -0.22910559672E+02  0.13612489949E+02  0.30707848985E+02  0.40659139395E+02  0.00000000000E+00 0. -1.
         11    1    3    3    0    0  0.23013515707E+02 -0.73640146680E+01 -0.14354214151E+02  0.28105054374E+02  0.51100000000E-03 0. -1.
        -11    1    3    3    0    0  0.52706510956E+01 -0.79777628376E+01 -0.11684181845E+02  0.15097833239E+02  0.51100000000E-03 0.  1.
         12    1    3    3    0    0 -0.53736071307E+01  0.17292875571E+01 -0.46694529895E+01  0.73259729915E+01  0.00000000000E+00 0. -1.
</event>
<event>
 7    1  0.2755991E-011  0.5052886E+02  0.7816164E-02  0.1300439E+00
        -11   -1    0    0    0    0  0.00000000000E+00  0.00000000000E+00  0.45593999997E+02  0.45594000000E+02  0.51100000000E-03 0.  1.
         11   -1    0    0    0    0 -0.00000000000E+00 -0.00000000000E+00 -0.45593999997E+02  0.45594000000E+02  0.51100000000E-03 0. -1.
    9900012    2    1    2    0    0 -0.34557223024E+02  0.17366866202E+02  0.12544149945E+02  0.50528863233E+02  0.30000010282E+02 0.  0.
         12    1    1    2    0    0  0.34557223024E+02 -0.17366866202E+02 -0.12544149945E+02  0.40659136767E+02  0.00000000000E+00 0. -1.
         11    1    3    3    0    0 -0.94109614977E+01  0.16124251102E+02 -0.24126165947E+01  0.18824940611E+02  0.51100000000E-03 0. -1.
        -11    1    3    3    0    0 -0.17195390820E+02  0.14707653307E+01  0.32670438459E+01  0.17564685931E+02  0.51100000000E-03 0.  1.
        -12    1    3    3    0    0 -0.79508707063E+01 -0.22815023059E+00  0.11689722694E+02  0.14139236690E+02  0.00000000000E+00 0.  1.
</event>
<event>
 7    1  0.2755991E-011  0.5052886E+02  0.7816164E-02  0.1300439E+00
        -11   -1    0    0    0    0  0.00000000000E+00  0.00000000000E+00  0.45593999997E+02  0.45594000000E+02  0.51100000000E-03 0.  1.
         11   -1    0    0    0    0 -0.00000000000E+00 -0.00000000000E+00 -0.45593999997E+02  0.45594000000E+02  0.51100000000E-03 0. -1.
    9900012    2    1    2    0    0 -0.14018261222E+02  0.38053727730E+02  0.29271163753E+01  0.50528857706E+02  0.29999993483E+02 0.  0.
         12    1    1    2    0    0  0.14018261222E+02 -0.38053727730E+02 -0.29271163753E+01  0.40659142294E+02  0.00000000000E+00 0. -1.
         11    1    3    3    0    0 -0.84483818222E+01  0.74341304813E+01  0.49161797560E+01  0.12280483504E+02  0.51100000000E-03 0. -1.
        -11    1    3    3    0    0 -0.37649319555E+00  0.14762947102E+02  0.98836044814E+01  0.17769974453E+02  0.51100000000E-03 0.  1.
         12    1    3    3    0    0 -0.51933862038E+01  0.15856650147E+02 -0.11872667862E+02  0.20478399750E+02  0.00000000000E+00 0. -1.
</event>
<event>
 7    1  0.2755991E-011  0.5052885E+02  0.7816164E-02  0.1300439E+00
        -11   -1    0    0    0    0  0.00000000000E+00  0.00000000000E+00  0.45593999997E+02  0.45594000000E+02  0.51100000000E-03 0.  1.
         11   -1    0    0    0    0 -0.00000000000E+00 -0.00000000000E+00 -0.45593999997E+02  0.45594000000E+02  0.51100000000E-03 0. -1.
    9900012    2    1    2    0    0  0.25825702839E+02  0.15148975390E+02  0.27508322280E+02  0.50528853709E+02  0.29999981333E+02 0.  0.
         12    1    1    2    0    0 -0.25825702839E+02 -0.15148975390E+02 -0.27508322280E+02  0.40659146291E+02  0.00000000000E+00 0. -1.
         11    1    3    3    0    0  0.18701606719E+01 -0.37663787187E+01  0.29121468452E+01  0.51150473214E+01  0.51100000000E-03 0. -1.
        -11    1    3    3    0    0  0.78643378792E+00 -0.35636740545E+01  0.86917148291E+01  0.94267787606E+01  0.51100000000E-03 0.  1.
         12    1    3    3    0    0  0.23169108379E+02  0.22479028164E+02  0.15904460606E+02  0.35987027627E+02  0.00000000000E+00 0. -1.
</event>
<event>
 7    1  0.2755991E-011  0.5052887E+02  0.7816164E-02  0.1300439E+00
        -11   -1    0    0    0    0  0.00000000000E+00  0.00000000000E+00  0.45593999997E+02  0.45594000000E+02  0.51100000000E-03 0.  1.
         11   -1    0    0    0    0 -0.00000000000E+00 -0.00000000000E+00 -0.45593999997E+02  0.45594000000E+02  0.51100000000E-03 0. -1.
    9900012    2    1    2    0    0  0.11669450976E+02 -0.19876666295E+02  0.33494882280E+02  0.50528867102E+02  0.30000022043E+02 0.  0.
         12    1    1    2    0    0 -0.11669450976E+02  0.19876666295E+02 -0.33494882280E+02  0.40659132898E+02  0.00000000000E+00 0. -1.
         11    1    3    3    0    0  0.45948943327E+01 -0.13300744387E+01  0.37020709995E+01  0.60487587063E+01  0.51100000000E-03 0.  1.
        -11    1    3    3    0    0 -0.65277509738E+01 -0.11006642647E+02  0.25201356502E+02  0.28264219164E+02  0.51100000000E-03 0. -1.
         12    1    3    3    0    0  0.13602307617E+02 -0.75399492084E+01  0.45914547783E+01  0.16215889231E+02  0.00000000000E+00 0. -1.
</event>
<event>
 7    1  0.2755991E-011  0.5052886E+02  0.7816164E-02  0.1300439E+00
        -11   -1    0    0    0    0  0.00000000000E+00  0.00000000000E+00  0.45593999997E+02  0.45594000000E+02  0.51100000000E-03 0.  1.
         11   -1    0    0    0    0 -0.00000000000E+00 -0.00000000000E+00 -0.45593999997E+02  0.45594000000E+02  0.51100000000E-03 0. -1.
    9900012    2    1    2    0    0  0.13899208694E+02 -0.28537363203E+01  0.38102942625E+02  0.50528855272E+02  0.29999986085E+02 0.  0.
         12    1    1    2    0    0 -0.13899208694E+02  0.28537363203E+01 -0.38102942625E+02  0.40659144728E+02  0.00000000000E+00 0. -1.
         11    1    3    3    0    0 -0.90421011992E+01 -0.17098332635E+01  0.59429149111E+01  0.10954513307E+02  0.51100000000E-03 0. -1.
        -11    1    3    3    0    0  0.81283617435E+00  0.30118075085E+00  0.92272479241E+00  0.12660307242E+01  0.51100000000E-03 0.  1.
        -12    1    3    3    0    0  0.22128473719E+02 -0.14450838076E+01  0.31237302921E+02  0.38308311241E+02  0.00000000000E+00 0.  1.
</event>
<event>
 7    1  0.2755991E-011  0.5052887E+02  0.7816164E-02  0.1300439E+00
        -11   -1    0    0    0    0  0.00000000000E+00  0.00000000000E+00  0.45593999997E+02  0.45594000000E+02  0.51100000000E-03 0. -1.
         11   -1    0    0    0    0 -0.00000000000E+00 -0.00000000000E+00 -0.45593999997E+02  0.45594000000E+02  0.51100000000E-03 0.  1.
    9900012    2    1    2    0    0  0.37835455528E+02  0.14523762601E+02 -0.32716293661E+01  0.50528868998E+02  0.30000027807E+02 0.  0.
         12    1    1    2    0    0 -0.37835455528E+02 -0.14523762601E+02  0.32716293661E+01  0.40659131002E+02  0.00000000000E+00 0. -1.
         11    1    3    3    0    0  0.84575980933E+01  0.47471811246E+01 -0.73872614546E+01  0.12191731879E+02  0.51100000000E-03 0. -1.
        -11    1    3    3    0    0  0.26123949606E+02  0.10661974399E+02 -0.49660228352E+01  0.28649604259E+02  0.51100000000E-03 0.  1.
         12    1    3    3    0    0  0.32539078282E+01 -0.88539292241E+00  0.90816549237E+01  0.96875328611E+01  0.00000000000E+00 0. -1.
</event>
<event>
 7    1  0.2755991E-011  0.5052886E+02  0.7816164E-02  0.1300439E+00
        -11   -1    0    0    0    0  0.00000000000E+00  0.00000000000E+00  0.45593999997E+02  0.45594000000E+02  0.51100000000E-03 0. -1.
         11   -1    0    0    0    0 -0.00000000000E+00 -0.00000000000E+00 -0.45593999997E+02  0.45594000000E+02  0.51100000000E-03 0.  1.
    9900012    2    1    2    0    0  0.20383104358E+02 -0.23688232873E+02 -0.26010814043E+02  0.50528858751E+02  0.29999996659E+02 0.  0.
         12    1    1    2    0    0 -0.20383104358E+02  0.23688232873E+02  0.26010814043E+02  0.40659141249E+02  0.00000000000E+00 0. -1.
         11    1    3    3    0    0  0.10882389694E+02 -0.17375985882E+02  0.11258141248E+01  0.20533356972E+02  0.51100000000E-03 0. -1.
        -11    1    3    3    0    0  0.17054772159E+01 -0.33997163873E+01 -0.45834498697E+01  0.59560672442E+01  0.51100000000E-03 0.  1.
         12    1    3    3    0    0  0.77952374481E+01 -0.29125306032E+01 -0.22553178298E+02  0.24039434535E+02  0.00000000000E+00 0. -1.
</event>
<event>
 7    1  0.2755991E-011  0.5052887E+02  0.7816164E-02  0.1300439E+00
        -11   -1    0    0    0    0  0.00000000000E+00  0.00000000000E+00  0.45593999997E+02  0.45594000000E+02  0.51100000000E-03 0. -1.
         11   -1    0    0    0    0 -0.00000000000E+00 -0.00000000000E+00 -0.45593999997E+02  0.45594000000E+02  0.51100000000E-03 0.  1.
    9900012    2    1    2    0    0 -0.96053444555E+00 -0.40625796011E+02 -0.13368993671E+01  0.50528865383E+02  0.30000016817E+02 0.  0.
         12    1    1    2    0    0  0.96053444555E+00  0.40625796011E+02  0.13368993671E+01  0.40659134617E+02  0.00000000000E+00 0. -1.
         11    1    3    3    0    0  0.30285764270E+01 -0.25238311360E+00  0.21407231757E+01  0.37173469553E+01  0.51100000000E-03 0. -1.
        -11    1    3    3    0    0  0.86815430391E+00  0.72510037870E+00 -0.52681879720E+01  0.53882527060E+01  0.51100000000E-03 0.  1.
         12    1    3    3    0    0 -0.48572651765E+01 -0.41098513276E+02  0.17905654292E+01  0.41423265721E+02  0.00000000000E+00 0. -1.
</event>
<event>
 7    1  0.2755991E-011  0.5052882E+02  0.7816164E-02  0.1300439E+00
        -11   -1    0    0    0    0  0.00000000000E+00  0.00000000000E+00  0.45593999997E+02  0.45594000000E+02  0.51100000000E-03 0. -1.
         11   -1    0    0    0    0 -0.00000000000E+00 -0.00000000000E+00 -0.45593999997E+02  0.45594000000E+02  0.51100000000E-03 0.  1.
    9900012    2    1    2    0    0  0.15168901813E+02 -0.18418820598E+02 -0.32921424029E+02  0.50528822752E+02  0.29999887235E+02 0.  0.
         12    1    1    2    0    0 -0.15168901813E+02  0.18418820598E+02  0.32921424029E+02  0.40659177248E+02  0.00000000000E+00 0. -1.
         11    1    3    3    0    0  0.15412471316E+02 -0.10986473908E+02 -0.26428036584E+02  0.32506737747E+02  0.51100000000E-03 0.  1.
        -11    1    3    3    0    0  0.47938906536E+01  0.20674811666E+01 -0.48848085425E+01  0.71496308108E+01  0.51100000000E-03 0. -1.
         12    1    3    3    0    0 -0.50374601560E+01 -0.94998278558E+01 -0.16085789024E+01  0.10872454194E+02  0.00000000000E+00 0. -1.
</event>
<event>
 7    1  0.2755991E-011  0.5052887E+02  0.7816164E-02  0.1300439E+00
        -11   -1    0    0    0    0  0.00000000000E+00  0.00000000000E+00  0.45593999997E+02  0.45594000000E+02  0.51100000000E-03 0. -1.
         11   -1    0    0    0    0 -0.00000000000E+00 -0.00000000000E+00 -0.45593999997E+02  0.45594000000E+02  0.51100000000E-03 0.  1.
    9900012    2    1    2    0    0 -0.29794342704E+02 -0.99296992497E+01 -0.25823692426E+02  0.50528869724E+02  0.30000030012E+02 0.  0.
         12    1    1    2    0    0  0.29794342704E+02  0.99296992497E+01  0.25823692426E+02  0.40659130276E+02  0.00000000000E+00 0. -1.
         11    1    3    3    0    0 -0.16965734115E+02 -0.96159007719E+01 -0.63102288670E+01  0.20496845375E+02  0.51100000000E-03 0.  1.
        -11    1    3    3    0    0 -0.60854755889E+01  0.42014718935E+01 -0.20560090480E+02  0.21849546906E+02  0.51100000000E-03 0. -1.
         12    1    3    3    0    0 -0.67431329996E+01 -0.45152703712E+01  0.10466269210E+01  0.81824774419E+01  0.00000000000E+00 0. -1.
</event>
<event>
 7    1  0.2755991E-011  0.5052886E+02  0.7816164E-02  0.1300439E+00
        -11   -1    0    0    0    0  0.00000000000E+00  0.00000000000E+00  0.45593999997E+02  0.45594000000E+02  0.51100000000E-03 0.  1.
         11   -1    0    0    0    0 -0.00000000000E+00 -0.00000000000E+00 -0.45593999997E+02  0.45594000000E+02  0.51100000000E-03 0. -1.
    9900012    2    1    2    0    0  0.91504864350E+01  0.28514561058E+02 -0.27501892853E+02  0.50528859517E+02  0.29999998987E+02 0.  0.
         12    1    1    2    0    0 -0.91504864350E+01 -0.28514561058E+02  0.27501892853E+02  0.40659140483E+02  0.00000000000E+00 0. -1.
         11    1    3    3    0    0 -0.32888566357E+01 -0.36991269934E+01 -0.80291064604E+01  0.94322144429E+01  0.51100000000E-03 0. -1.
        -11    1    3    3    0    0  0.87844528875E+00  0.16096080009E+01  0.13852802027E+01  0.22981526371E+01  0.51100000000E-03 0.  1.
        -12    1    3    3    0    0  0.11560897782E+02  0.30604080050E+02 -0.20858066596E+02  0.38798492437E+02  0.00000000000E+00 0.  1.
</event>
<event>
 7    1  0.2755991E-011  0.5052886E+02  0.7816164E-02  0.1300439E+00
        -11   -1    0    0    0    0  0.00000000000E+00  0.00000000000E+00  0.45593999997E+02  0.45594000000E+02  0.51100000000E-03 0.  1.
         11   -1    0    0    0    0 -0.00000000000E+00 -0.00000000000E+00 -0.45593999997E+02  0.45594000000E+02  0.51100000000E-03 0. -1.
    9900012    2    1    2    0    0 -0.39468768291E+02 -0.31841877708E+01  0.92327288894E+01  0.50528855827E+02  0.29999987772E+02 0.  0.
         12    1    1    2    0    0  0.39468768291E+02  0.31841877708E+01 -0.92327288894E+01  0.40659144173E+02  0.00000000000E+00 0. -1.
         11    1    3    3    0    0 -0.10104045773E+02 -0.34099904904E+01 -0.39322004717E+01  0.11365824956E+02  0.51100000000E-03 0. -1.
        -11    1    3    3    0    0 -0.16366537123E+02 -0.10631029061E+02  0.40570369451E+01  0.19933435864E+02  0.51100000000E-03 0.  1.
        -12    1    3    3    0    0 -0.12998185394E+02  0.10856831781E+02  0.91078924161E+01  0.19229595006E+02  0.00000000000E+00 0.  1.
</event>
<event>
 7    1  0.2755991E-011  0.5052886E+02  0.7816164E-02  0.1300439E+00
        -11   -1    0    0    0    0  0.00000000000E+00  0.00000000000E+00  0.45593999997E+02  0.45594000000E+02  0.51100000000E-03 0.  1.
         11   -1    0    0    0    0 -0.00000000000E+00 -0.00000000000E+00 -0.45593999997E+02  0.45594000000E+02  0.51100000000E-03 0. -1.
    9900012    2    1    2    0    0 -0.97748360000E+01 -0.11066423130E+02  0.37883402068E+02  0.50528864594E+02  0.30000014419E+02 0.  0.
         12    1    1    2    0    0  0.97748360000E+01  0.11066423130E+02 -0.37883402068E+02  0.40659135406E+02  0.00000000000E+00 0. -1.
         11    1    3    3    0    0 -0.11380193882E+02  0.33280833896E+01  0.18693250938E+02  0.22136453708E+02  0.51100000000E-03 0. -1.
        -11    1    3    3    0    0 -0.39742081257E+01 -0.78610792709E+01  0.17927622690E+01  0.89891542618E+01  0.51100000000E-03 0.  1.
        -12    1    3    3    0    0  0.55795660081E+01 -0.65334272487E+01  0.17397388861E+02  0.19403256624E+02  0.00000000000E+00 0.  1.
</event>
<event>
 7    1  0.2755991E-011  0.5052879E+02  0.7816164E-02  0.1300439E+00
        -11   -1    0    0    0    0  0.00000000000E+00  0.00000000000E+00  0.45593999997E+02  0.45594000000E+02  0.51100000000E-03 0. -1.
         11   -1    0    0    0    0 -0.00000000000E+00 -0.00000000000E+00 -0.45593999997E+02  0.45594000000E+02  0.51100000000E-03 0.  1.
    9900012    2    1    2    0    0  0.46116175391E+01 -0.29141280667E+02 -0.27976601858E+02  0.50528788169E+02  0.29999782117E+02 0.  0.
         12    1    1    2    0    0 -0.46116175391E+01  0.29141280667E+02  0.27976601858E+02  0.40659211831E+02  0.00000000000E+00 0. -1.
         11    1    3    3    0    0 -0.74935226809E+01 -0.77051063045E+01 -0.10739283345E+02  0.15193872198E+02  0.51100000000E-03 0. -1.
        -11    1    3    3    0    0  0.31113146831E+01 -0.14397618518E+02 -0.18717921591E+02  0.23818738149E+02  0.51100000000E-03 0.  1.
         12    1    3    3    0    0  0.89938255368E+01 -0.70385558440E+01  0.14806030783E+01  0.11516177822E+02  0.00000000000E+00 0. -1.
</event>
<event>
 7    1  0.2755991E-011  0.5052881E+02  0.7816164E-02  0.1300439E+00
        -11   -1    0    0    0    0  0.00000000000E+00  0.00000000000E+00  0.45593999997E+02  0.45594000000E+02  0.51100000000E-03 0. -1.
         11   -1    0    0    0    0 -0.00000000000E+00 -0.00000000000E+00 -0.45593999997E+02  0.45594000000E+02  0.51100000000E-03 0.  1.
    9900012    2    1    2    0    0 -0.73419314540E+01  0.18514276431E+02 -0.35446960860E+02  0.50528813788E+02  0.29999859990E+02 0.  0.
         12    1    1    2    0    0  0.73419314540E+01 -0.18514276431E+02  0.35446960860E+02  0.40659186212E+02  0.00000000000E+00 0. -1.
         11    1    3    3    0    0 -0.65589600773E+01 -0.56698898502E+01 -0.82863268175E+01  0.11992948787E+02  0.51100000000E-03 0. -1.
        -11    1    3    3    0    0 -0.29641094843E+01  0.79625626457E+00 -0.67601930392E+01  0.74242965499E+01  0.51100000000E-03 0.  1.
        -12    1    3    3    0    0  0.21811381076E+01  0.23387910017E+02 -0.20400441003E+02  0.31111568452E+02  0.00000000000E+00 0.  1.
</event>
<event>
 7    1  0.2755991E-011  0.5052879E+02  0.7816164E-02  0.1300439E+00
        -11   -1    0    0    0    0  0.00000000000E+00  0.00000000000E+00  0.45593999997E+02  0.45594000000E+02  0.51100000000E-03 0.  1.
         11   -1    0    0    0    0 -0.00000000000E+00 -0.00000000000E+00 -0.45593999997E+02  0.45594000000E+02  0.51100000000E-03 0. -1.
    9900012    2    1    2    0    0 -0.18581488237E+02  0.31457809511E+02  0.17841130716E+02  0.50528789118E+02  0.29999785003E+02 0.  0.
         12    1    1    2    0    0  0.18581488237E+02 -0.31457809511E+02 -0.17841130716E+02  0.40659210882E+02  0.00000000000E+00 0. -1.
         11    1    3    3    0    0 -0.40970919740E+01 -0.35979905109E+01 -0.97684149442E+00  0.55394871537E+01  0.51100000000E-03 0. -1.
        -11    1    3    3    0    0  0.24375303333E+01  0.10991788314E+02  0.71762241194E+01  0.13351372863E+02  0.51100000000E-03 0.  1.
        -12    1    3    3    0    0 -0.16921926596E+02  0.24064011708E+02  0.11641748091E+02  0.31637929101E+02  0.00000000000E+00 0.  1.
</event>
<event>
 7    1  0.2939264E-011  0.5052886E+02  0.7816164E-02  0.1300439E+00
        -11   -1    0    0    0    0  0.00000000000E+00  0.00000000000E+00  0.45593999997E+02  0.45594000000E+02  0.51100000000E-03 0. -1.
         11   -1    0    0    0    0 -0.00000000000E+00 -0.00000000000E+00 -0.45593999997E+02  0.45594000000E+02  0.51100000000E-03 0.  1.
    9900012    2    1    2    0    0 -0.23986588630E+01 -0.25679890003E+02 -0.31431760243E+02  0.50528857524E+02  0.29999992929E+02 0.  0.
         12    1    1    2    0    0  0.23986588630E+01  0.25679890003E+02  0.31431760243E+02  0.40659142476E+02  0.00000000000E+00 0. -1.
         11    1    3    3    0    0  0.38482401207E+01  0.24136483083E+01 -0.35421757306E+01  0.57603523633E+01  0.51100000000E-03 0. -1.
        -11    1    3    3    0    0 -0.51113598146E+00 -0.15153710487E+02 -0.20419237321E+01  0.15299204368E+02  0.51100000000E-03 0.  1.
        -12    1    3    3    0    0 -0.57357630022E+01 -0.12939827825E+02 -0.25847660781E+02  0.29469300792E+02  0.00000000000E+00 0.  1.
</event>
<event>
 7    1  0.2755991E-011  0.5052886E+02  0.7816164E-02  0.1300439E+00
        -11   -1    0    0    0    0  0.00000000000E+00  0.00000000000E+00  0.45593999997E+02  0.45594000000E+02  0.51100000000E-03 0.  1.
         11   -1    0    0    0    0 -0.00000000000E+00 -0.00000000000E+00 -0.45593999997E+02  0.45594000000E+02  0.51100000000E-03 0. -1.
    9900012    2    1    2    0    0  0.23530454937E+02  0.77431312525E+01  0.32241701586E+02  0.50528859425E+02  0.29999998708E+02 0.  0.
         12    1    1    2    0    0 -0.23530454937E+02 -0.77431312525E+01 -0.32241701586E+02  0.40659140575E+02  0.00000000000E+00 0. -1.
         11    1    3    3    0    0 -0.17897048835E+01 -0.42506864408E+01  0.11374645598E+02  0.12274116731E+02  0.51100000000E-03 0. -1.
        -11    1    3    3    0    0  0.18805359559E+02  0.72083454902E+00  0.10092430268E+02  0.21354584978E+02  0.51100000000E-03 0.  1.
         12    1    3    3    0    0  0.65148002610E+01  0.11272983144E+02  0.10774625720E+02  0.16900157716E+02  0.00000000000E+00 0. -1.
</event>
<event>
 7    1  0.2755991E-011  0.5052886E+02  0.7816164E-02  0.1300439E+00
        -11   -1    0    0    0    0  0.00000000000E+00  0.00000000000E+00  0.45593999997E+02  0.45594000000E+02  0.51100000000E-03 0. -1.
         11   -1    0    0    0    0 -0.00000000000E+00 -0.00000000000E+00 -0.45593999997E+02  0.45594000000E+02  0.51100000000E-03 0.  1.
    9900012    2    1    2    0    0  0.22913642081E+02  0.20716961433E+01 -0.33523702393E+02  0.50528861538E+02  0.30000005130E+02 0.  0.
         12    1    1    2    0    0 -0.22913642081E+02 -0.20716961433E+01  0.33523702393E+02  0.40659138462E+02  0.00000000000E+00 0. -1.
         11    1    3    3    0    0  0.89537399206E+01  0.59864692989E+00 -0.11121048105E+02  0.14290050662E+02  0.51100000000E-03 0. -1.
        -11    1    3    3    0    0  0.47612306149E+01 -0.16071039198E+01 -0.25550670157E+02  0.26040139126E+02  0.51100000000E-03 0.  1.
         12    1    3    3    0    0  0.91986715458E+01  0.30801531333E+01  0.31480158692E+01  0.10198671749E+02  0.00000000000E+00 0. -1.
</event>
<event>
 7    1  0.2755991E-011  0.5052886E+02  0.7816164E-02  0.1300439E+00
        -11   -1    0    0    0    0  0.00000000000E+00  0.00000000000E+00  0.45593999997E+02  0.45594000000E+02  0.51100000000E-03 0. -1.
         11   -1    0    0    0    0 -0.00000000000E+00 -0.00000000000E+00 -0.45593999997E+02  0.45594000000E+02  0.51100000000E-03 0.  1.
    9900012    2    1    2    0    0 -0.31793972683E+02  0.94817954144E+01 -0.23503290753E+02  0.50528858107E+02  0.29999994702E+02 0.  0.
         12    1    1    2    0    0  0.31793972683E+02 -0.94817954144E+01  0.23503290753E+02  0.40659141893E+02  0.00000000000E+00 0. -1.
         11    1    3    3    0    0 -0.25506479726E+00 -0.79123676207E+00  0.19647168736E+01  0.21333603350E+01  0.51100000000E-03 0. -1.
        -11    1    3    3    0    0 -0.11079605124E+02 -0.76297019565E+01 -0.49451627961E+01  0.14332642359E+02  0.51100000000E-03 0.  1.
        -12    1    3    3    0    0 -0.20459302762E+02  0.17902734133E+02 -0.20522844831E+02  0.34062855413E+02  0.00000000000E+00 0.  1.
</event>
<event>
 7    1  0.2755991E-011  0.5052887E+02  0.7816164E-02  0.1300439E+00
        -11   -1    0    0    0    0  0.00000000000E+00  0.00000000000E+00  0.45593999997E+02  0.45594000000E+02  0.51100000000E-03 0.  1.
         11   -1    0    0    0    0 -0.00000000000E+00 -0.00000000000E+00 -0.45593999997E+02  0.45594000000E+02  0.51100000000E-03 0. -1.
    9900012    2    1    2    0    0  0.70426305591E+01  0.26131431892E+02  0.30343276365E+02  0.50528870663E+02  0.30000032866E+02 0.  0.
         12    1    1    2    0    0 -0.70426305591E+01 -0.26131431892E+02 -0.30343276365E+02  0.40659129337E+02  0.00000000000E+00 0. -1.
         11    1    3    3    0    0 -0.38613568057E+01  0.18229628640E+02  0.15115601291E+02  0.23993975064E+02  0.51100000000E-03 0. -1.
        -11    1    3    3    0    0 -0.37292614418E+01  0.52063670261E+01  0.71705019796E+01  0.96140390790E+01  0.51100000000E-03 0.  1.
        -12    1    3    3    0    0  0.14633248807E+02  0.26954362266E+01  0.80571730937E+01  0.16920856519E+02  0.00000000000E+00 0.  1.
</event>
<event>
 7    1  0.2755991E-011  0.5052885E+02  0.7816164E-02  0.1300439E+00
        -11   -1    0    0    0    0  0.00000000000E+00  0.00000000000E+00  0.45593999997E+02  0.45594000000E+02  0.51100000000E-03 0.  1.
         11   -1    0    0    0    0 -0.00000000000E+00 -0.00000000000E+00 -0.45593999997E+02  0.45594000000E+02  0.51100000000E-03 0. -1.
    9900012    2    1    2    0    0 -0.30696063308E+02 -0.10777880493E+02  0.24387602379E+02  0.50528853915E+02  0.29999981961E+02 0.  0.
         12    1    1    2    0    0  0.30696063308E+02  0.10777880493E+02 -0.24387602379E+02  0.40659146085E+02  0.00000000000E+00 0. -1.
         11    1    3    3    0    0 -0.92123724252E+01  0.65012288878E+01  0.42484599991E+01  0.12049198952E+02  0.51100000000E-03 0. -1.
        -11    1    3    3    0    0 -0.13796427640E+02  0.78791651154E-01  0.88988052994E+01  0.16417562541E+02  0.51100000000E-03 0.  1.
        -12    1    3    3    0    0 -0.76872632428E+01 -0.17357901032E+02  0.11240337080E+02  0.22062092423E+02  0.00000000000E+00 0.  1.
</event>
<event>
 7    1  0.2755991E-011  0.5052886E+02  0.7816164E-02  0.1300439E+00
        -11   -1    0    0    0    0  0.00000000000E+00  0.00000000000E+00  0.45593999997E+02  0.45594000000E+02  0.51100000000E-03 0. -1.
         11   -1    0    0    0    0 -0.00000000000E+00 -0.00000000000E+00 -0.45593999997E+02  0.45594000000E+02  0.51100000000E-03 0.  1.
    9900012    2    1    2    0    0 -0.29281471019E+02 -0.27626031768E+02 -0.57064241512E+01  0.50528862616E+02  0.30000008406E+02 0.  0.
         12    1    1    2    0    0  0.29281471019E+02  0.27626031768E+02  0.57064241512E+01  0.40659137384E+02  0.00000000000E+00 0. -1.
         11    1    3    3    0    0 -0.15702484209E+02 -0.52306387314E+01 -0.46693834276E+01  0.17196823362E+02  0.51100000000E-03 0. -1.
        -11    1    3    3    0    0 -0.18938854551E+02 -0.16576826457E+02  0.90876030430E+00  0.25185258240E+02  0.51100000000E-03 0.  1.
         12    1    3    3    0    0  0.53598677412E+01 -0.58185665795E+01 -0.19458010279E+01  0.81467810136E+01  0.00000000000E+00 0. -1.
</event>
<event>
 7    1  0.2755991E-011  0.5052886E+02  0.7816164E-02  0.1300439E+00
        -11   -1    0    0    0    0  0.00000000000E+00  0.00000000000E+00  0.45593999997E+02  0.45594000000E+02  0.51100000000E-03 0. -1.
         11   -1    0    0    0    0 -0.00000000000E+00 -0.00000000000E+00 -0.45593999997E+02  0.45594000000E+02  0.51100000000E-03 0.  1.
    9900012    2    1    2    0    0  0.21363178559E+02 -0.43743173551E+01 -0.34316840276E+02  0.50528861088E+02  0.30000003765E+02 0.  0.
         12    1    1    2    0    0 -0.21363178559E+02  0.43743173551E+01  0.34316840276E+02  0.40659138912E+02  0.00000000000E+00 0. -1.
         11    1    3    3    0    0  0.88387872790E+01  0.60081746371E+01 -0.32147807593E+01  0.11160516951E+02  0.51100000000E-03 0. -1.
        -11    1    3    3    0    0  0.55887627410E+01 -0.99006843546E+01 -0.51139680794E+01  0.12466374350E+02  0.51100000000E-03 0.  1.
         12    1    3    3    0    0  0.69356285394E+01 -0.48180763765E+00 -0.25988091438E+02  0.26901969787E+02  0.00000000000E+00 0. -1.
</event>
<event>
 7    1  0.2755991E-011  0.5052886E+02  0.7816164E-02  0.1300439E+00
        -11   -1    0    0    0    0  0.00000000000E+00  0.00000000000E+00  0.45593999997E+02  0.45594000000E+02  0.51100000000E-03 0.  1.
         11   -1    0    0    0    0 -0.00000000000E+00 -0.00000000000E+00 -0.45593999997E+02  0.45594000000E+02  0.51100000000E-03 0. -1.
    9900012    2    1    2    0    0  0.45487295006E+01 -0.21274972340E+02  0.34348952334E+02  0.50528856937E+02  0.29999991147E+02 0.  0.
         12    1    1    2    0    0 -0.45487295006E+01  0.21274972340E+02 -0.34348952334E+02  0.40659143063E+02  0.00000000000E+00 0. -1.
         11    1    3    3    0    0 -0.77146402136E+00  0.58327646037E+01  0.83682482579E+00  0.59427750848E+01  0.51100000000E-03 0. -1.
        -11    1    3    3    0    0 -0.29878807727E+01 -0.88455436518E+01  0.11150828785E+02  0.14543454090E+02  0.51100000000E-03 0.  1.
        -12    1    3    3    0    0  0.83080742947E+01 -0.18262193291E+02  0.22361298723E+02  0.30042627763E+02  0.00000000000E+00 0.  1.
</event>
<event>
 7    1  0.2755991E-011  0.5052886E+02  0.7816164E-02  0.1300439E+00
        -11   -1    0    0    0    0  0.00000000000E+00  0.00000000000E+00  0.45593999997E+02  0.45594000000E+02  0.51100000000E-03 0.  1.
         11   -1    0    0    0    0 -0.00000000000E+00 -0.00000000000E+00 -0.45593999997E+02  0.45594000000E+02  0.51100000000E-03 0. -1.
    9900012    2    1    2    0    0 -0.12173433574E+01  0.24211819603E+02  0.32641563466E+02  0.50528858361E+02  0.29999995474E+02 0.  0.
         12    1    1    2    0    0  0.12173433574E+01 -0.24211819603E+02 -0.32641563466E+02  0.40659141639E+02  0.00000000000E+00 0. -1.
         11    1    3    3    0    0  0.46623389432E+01  0.11735233001E+02  0.10352206382E+02  0.16328541736E+02  0.51100000000E-03 0.  1.
        -11    1    3    3    0    0 -0.12194861650E+01 -0.12859214964E+01 -0.38812113798E+01  0.42666781737E+01  0.51100000000E-03 0. -1.
         12    1    3    3    0    0 -0.46601961356E+01  0.13762508099E+02  0.26170568464E+02  0.29933638451E+02  0.00000000000E+00 0. -1.
</event>
<event>
 7    1  0.2755991E-011  0.5052886E+02  0.7816164E-02  0.1300439E+00
        -11   -1    0    0    0    0  0.00000000000E+00  0.00000000000E+00  0.45593999997E+02  0.45594000000E+02  0.51100000000E-03 0.  1.
         11   -1    0    0    0    0 -0.00000000000E+00 -0.00000000000E+00 -0.45593999997E+02  0.45594000000E+02  0.51100000000E-03 0. -1.
    9900012    2    1    2    0    0 -0.20557191885E+02  0.14365448629E+02  0.32003149722E+02  0.50528857797E+02  0.29999993760E+02 0.  0.
         12    1    1    2    0    0  0.20557191885E+02 -0.14365448629E+02 -0.32003149722E+02  0.40659142203E+02  0.00000000000E+00 0. -1.
         11    1    3    3    0    0 -0.11417348958E+02  0.15923734386E+01  0.12224447088E+01  0.11592492473E+02  0.51100000000E-03 0. -1.
        -11    1    3    3    0    0 -0.10090094237E+02 -0.24458799159E-01  0.19014906775E+02  0.21526199847E+02  0.51100000000E-03 0.  1.
         12    1    3    3    0    0  0.95025130958E+00  0.12797533989E+02  0.11765798238E+02  0.17410165477E+02  0.00000000000E+00 0. -1.
</event>
<event>
 7    1  0.2755991E-011  0.5052886E+02  0.7816164E-02  0.1300439E+00
        -11   -1    0    0    0    0  0.00000000000E+00  0.00000000000E+00  0.45593999997E+02  0.45594000000E+02  0.51100000000E-03 0.  1.
         11   -1    0    0    0    0 -0.00000000000E+00 -0.00000000000E+00 -0.45593999997E+02  0.45594000000E+02  0.51100000000E-03 0. -1.
    9900012    2    1    2    0    0  0.29314911697E+02  0.21963582991E+02  0.17646606016E+02  0.50528859213E+02  0.29999998064E+02 0.  0.
         12    1    1    2    0    0 -0.29314911697E+02 -0.21963582991E+02 -0.17646606016E+02  0.40659140787E+02  0.00000000000E+00 0. -1.
         11    1    3    3    0    0  0.24917221329E+01  0.25100922257E+01 -0.58714195675E+01  0.68544007884E+01  0.51100000000E-03 0. -1.
        -11    1    3    3    0    0 -0.19749253755E+01  0.31033026591E+01  0.26169546026E+01  0.45143404043E+01  0.51100000000E-03 0.  1.
        -12    1    3    3    0    0  0.28798114940E+02  0.16350188106E+02  0.20901070981E+02  0.39160118020E+02  0.00000000000E+00 0.  1.
</event>
<event>
 7    1  0.2755991E-011  0.5052886E+02  0.7816164E-02  0.1300439E+00
        -11   -1    0    0    0    0  0.00000000000E+00  0.00000000000E+00  0.45593999997E+02  0.45594000000E+02  0.51100000000E-03 0.  1.
         11   -1    0    0    0    0 -0.00000000000E+00 -0.00000000000E+00 -0.45593999997E+02  0.45594000000E+02  0.51100000000E-03 0. -1.
    9900012    2    1    2    0    0 -0.39621652359E+02  0.87869750335E+01 -0.24656273059E+01  0.50528861004E+02  0.30000003507E+02 0.  0.
         12    1    1    2    0    0  0.39621652359E+02 -0.87869750335E+01  0.24656273059E+01  0.40659138996E+02  0.00000000000E+00 0. -1.
         11    1    3    3    0    0 -0.76846005034E+01  0.17139077838E+01  0.58124186855E+01  0.97864588093E+01  0.51100000000E-03 0.  1.
        -11    1    3    3    0    0 -0.30871060544E+02  0.55900623331E+01 -0.14278974261E+02  0.34469700930E+02  0.51100000000E-03 0. -1.
         12    1    3    3    0    0 -0.10659913118E+01  0.14830049166E+01  0.60009282696E+01  0.62727012647E+01  0.00000000000E+00 0. -1.
</event>
<event>
 7    1  0.2755991E-011  0.5052887E+02  0.7816164E-02  0.1300439E+00
        -11   -1    0    0    0    0  0.00000000000E+00  0.00000000000E+00  0.45593999997E+02  0.45594000000E+02  0.51100000000E-03 0.  1.
         11   -1    0    0    0    0 -0.00000000000E+00 -0.00000000000E+00 -0.45593999997E+02  0.45594000000E+02  0.51100000000E-03 0. -1.
    9900012    2    1    2    0    0  0.30304251227E+01  0.24921361112E+02  0.31982924924E+02  0.50528865691E+02  0.30000017754E+02 0.  0.
         12    1    1    2    0    0 -0.30304251227E+01 -0.24921361112E+02 -0.31982924924E+02  0.40659134309E+02  0.00000000000E+00 0. -1.
         11    1    3    3    0    0  0.21763746934E+01 -0.24300926260E+00  0.37080004689E+01  0.43063822457E+01  0.51100000000E-03 0. -1.
        -11    1    3    3    0    0  0.11710808077E+02  0.48199249980E+01  0.14937236473E+02  0.19583047171E+02  0.51100000000E-03 0.  1.
         12    1    3    3    0    0 -0.10856757647E+02  0.20344445377E+02  0.13337687982E+02  0.26639436274E+02  0.00000000000E+00 0. -1.
</event>
<event>
 7    1  0.2755991E-011  0.5052886E+02  0.7816164E-02  0.1300439E+00
        -11   -1    0    0    0    0  0.00000000000E+00  0.00000000000E+00  0.45593999997E+02  0.45594000000E+02  0.51100000000E-03 0. -1.
         11   -1    0    0    0    0 -0.00000000000E+00 -0.00000000000E+00 -0.45593999997E+02  0.45594000000E+02  0.51100000000E-03 0.  1.
    9900012    2    1    2    0    0  0.20757935665E+02  0.19762210398E+02 -0.28839708826E+02  0.50528860092E+02  0.30000000736E+02 0.  0.
         12    1    1    2    0    0 -0.20757935665E+02 -0.19762210398E+02  0.28839708826E+02  0.40659139908E+02  0.00000000000E+00 0. -1.
         11    1    3    3    0    0  0.39663059006E+01  0.34467016048E+00  0.45476451301E+01  0.60441257852E+01  0.51100000000E-03 0. -1.
        -11    1    3    3    0    0  0.18347782270E+02  0.12995756320E+02 -0.22925290938E+02  0.32110742150E+02  0.51100000000E-03 0.  1.
        -12    1    3    3    0    0 -0.15561525065E+01  0.64217839176E+01 -0.10462063018E+02  0.12373992157E+02  0.00000000000E+00 0.  1.
</event>
<event>
 7    1  0.2755991E-011  0.5052887E+02  0.7816164E-02  0.1300439E+00
        -11   -1    0    0    0    0  0.00000000000E+00  0.00000000000E+00  0.45593999997E+02  0.45594000000E+02  0.51100000000E-03 0.  1.
         11   -1    0    0    0    0 -0.00000000000E+00 -0.00000000000E+00 -0.45593999997E+02  0.45594000000E+02  0.51100000000E-03 0. -1.
    9900012    2    1    2    0    0 -0.37980952274E+02  0.66688814827E+01  0.12889452612E+02  0.50528871818E+02  0.30000036378E+02 0.  0.
         12    1    1    2    0    0  0.37980952274E+02 -0.66688814827E+01 -0.12889452612E+02  0.40659128182E+02  0.00000000000E+00 0. -1.
         11    1    3    3    0    0  0.21386762331E+01  0.66936274633E+00  0.40766484384E+01  0.46519936874E+01  0.51100000000E-03 0. -1.
        -11    1    3    3    0    0 -0.22480973258E+02  0.47121479389E+00  0.14235404952E+02  0.26613210187E+02  0.51100000000E-03 0.  1.
        -12    1    3    3    0    0 -0.17638655249E+02  0.55283039424E+01 -0.54226007782E+01  0.19263667944E+02  0.00000000000E+00 0.  1.
</event>
<event>
 7    1  0.2755991E-011  0.5052886E+02  0.7816164E-02  0.1300439E+00
        -11   -1    0    0    0    0  0.00000000000E+00  0.00000000000E+00  0.45593999997E+02  0.45594000000E+02  0.51100000000E-03 0.  1.
         11   -1    0    0    0    0 -0.00000000000E+00 -0.00000000000E+00 -0.45593999997E+02  0.45594000000E+02  0.51100000000E-03 0. -1.
    9900012    2    1    2    0    0  0.26751053774E+01 -0.20110381524E+02  0.35236089909E+02  0.50528859995E+02  0.30000000442E+02 0.  0.
         12    1    1    2    0    0 -0.26751053774E+01  0.20110381524E+02 -0.35236089909E+02  0.40659140005E+02  0.00000000000E+00 0. -1.
         11    1    3    3    0    0  0.82225548949E+01 -0.62813679485E-01  0.12209430219E+02  0.14720208595E+02  0.51100000000E-03 0. -1.
        -11    1    3    3    0    0  0.53307354929E+01 -0.21748780043E+01  0.87675692194E+01  0.10488903923E+02  0.51100000000E-03 0.  1.
         12    1    3    3    0    0 -0.10878185010E+02 -0.17872689840E+02  0.14259090471E+02  0.25319747477E+02  0.00000000000E+00 0. -1.
</event>
<event>
 7    1  0.2755991E-011  0.5052886E+02  0.7816164E-02  0.1300439E+00
        -11   -1    0    0    0    0  0.00000000000E+00  0.00000000000E+00  0.45593999997E+02  0.45594000000E+02  0.51100000000E-03 0.  1.
         11   -1    0    0    0    0 -0.00000000000E+00 -0.00000000000E+00 -0.45593999997E+02  0.45594000000E+02  0.51100000000E-03 0. -1.
    9900012    2    1    2    0    0  0.32737582157E+02  0.23933630200E+02 -0.29321497871E+01  0.50528862744E+02  0.30000008796E+02 0.  0.
         12    1    1    2    0    0 -0.32737582157E+02 -0.23933630200E+02  0.29321497871E+01  0.40659137256E+02  0.00000000000E+00 0. -1.
         11    1    3    3    0    0  0.17458238205E+02  0.19582995919E+02 -0.95256504479E+01  0.27910962490E+02  0.51100000000E-03 0.  1.
        -11    1    3    3    0    0  0.68308254347E+00  0.32899313887E+01  0.72264891439E+01  0.79694664760E+01  0.51100000000E-03 0. -1.
         12    1    3    3    0    0  0.14596261408E+02  0.10607028920E+01 -0.63298848313E+00  0.14648433778E+02  0.00000000000E+00 0. -1.
</event>
<event>
 7    1  0.2755991E-011  0.5052879E+02  0.7816164E-02  0.1300439E+00
        -11   -1    0    0    0    0  0.00000000000E+00  0.00000000000E+00  0.45593999997E+02  0.45594000000E+02  0.51100000000E-03 0.  1.
         11   -1    0    0    0    0 -0.00000000000E+00 -0.00000000000E+00 -0.45593999997E+02  0.45594000000E+02  0.51100000000E-03 0. -1.
    9900012    2    1    2    0    0  0.24616623974E+02  0.30049885094E+02  0.12008217092E+02  0.50528793812E+02  0.29999799272E+02 0.  0.
         12    1    1    2    0    0 -0.24616623974E+02 -0.30049885094E+02 -0.12008217092E+02  0.40659206188E+02  0.00000000000E+00 0. -1.
         11    1    3    3    0    0  0.27367925332E+01  0.41369334079E+01  0.69451000186E+01  0.85345571602E+01  0.51100000000E-03 0. -1.
        -11    1    3    3    0    0  0.26593622571E+02  0.19138913999E+02  0.70301694427E+01  0.33510327858E+02  0.51100000000E-03 0.  1.
         12    1    3    3    0    0 -0.47137911296E+01  0.67740376870E+01 -0.19670523697E+01  0.84839087940E+01  0.00000000000E+00 0. -1.
</event>
<event>
 7    1  0.2755991E-011  0.5052886E+02  0.7816164E-02  0.1300439E+00
        -11   -1    0    0    0    0  0.00000000000E+00  0.00000000000E+00  0.45593999997E+02  0.45594000000E+02  0.51100000000E-03 0.  1.
         11   -1    0    0    0    0 -0.00000000000E+00 -0.00000000000E+00 -0.45593999997E+02  0.45594000000E+02  0.51100000000E-03 0. -1.
    9900012    2    1    2    0    0  0.20799041742E+01 -0.56406890619E+01  0.40212216123E+02  0.50528859576E+02  0.29999999167E+02 0.  0.
         12    1    1    2    0    0 -0.20799041742E+01  0.56406890619E+01 -0.40212216123E+02  0.40659140424E+02  0.00000000000E+00 0. -1.
         11    1    3    3    0    0  0.21208293313E+01 -0.16096151324E+01  0.12624158400E+02  0.12901866280E+02  0.51100000000E-03 0. -1.
        -11    1    3    3    0    0  0.12235099624E+02  0.44777070677E+00  0.10599715304E+02  0.16194200388E+02  0.51100000000E-03 0.  1.
         12    1    3    3    0    0 -0.12276024781E+02 -0.44788446363E+01  0.16988342419E+02  0.21432792908E+02  0.00000000000E+00 0. -1.
</event>
<event>
 7    1  0.2755991E-011  0.5052886E+02  0.7816164E-02  0.1300439E+00
        -11   -1    0    0    0    0  0.00000000000E+00  0.00000000000E+00  0.45593999997E+02  0.45594000000E+02  0.51100000000E-03 0.  1.
         11   -1    0    0    0    0 -0.00000000000E+00 -0.00000000000E+00 -0.45593999997E+02  0.45594000000E+02  0.51100000000E-03 0. -1.
    9900012    2    1    2    0    0 -0.50381458389E+01 -0.40279794562E+02  0.23067302563E+01  0.50528858741E+02  0.29999996630E+02 0.  0.
         12    1    1    2    0    0  0.50381458389E+01  0.40279794562E+02 -0.23067302563E+01  0.40659141259E+02  0.00000000000E+00 0. -1.
         11    1    3    3    0    0  0.15647844345E+01 -0.23029495481E+02  0.20625697834E+01  0.23174563789E+02  0.51100000000E-03 0. -1.
        -11    1    3    3    0    0  0.22044130412E+00 -0.50606411263E+01 -0.91927863854E+01  0.10495999465E+02  0.51100000000E-03 0.  1.
        -12    1    3    3    0    0 -0.68233715774E+01 -0.12189657954E+02  0.94369468582E+01  0.16858295487E+02  0.00000000000E+00 0.  1.
</event>
<event>
 7    1  0.2755991E-011  0.5052887E+02  0.7816164E-02  0.1300439E+00
        -11   -1    0    0    0    0  0.00000000000E+00  0.00000000000E+00  0.45593999997E+02  0.45594000000E+02  0.51100000000E-03 0.  1.
         11   -1    0    0    0    0 -0.00000000000E+00 -0.00000000000E+00 -0.45593999997E+02  0.45594000000E+02  0.51100000000E-03 0. -1.
    9900012    2    1    2    0    0  0.13667572566E+02  0.18711586660E+02  0.33410154837E+02  0.50528874808E+02  0.30000045466E+02 0.  0.
         12    1    1    2    0    0 -0.13667572566E+02 -0.18711586660E+02 -0.33410154837E+02  0.40659125192E+02  0.00000000000E+00 0. -1.
         11    1    3    3    0    0 -0.41052086920E+01  0.30623078644E+01  0.21217530176E+01  0.55436724281E+01  0.51100000000E-03 0. -1.
        -11    1    3    3    0    0  0.10802540649E+02 -0.20317700601E+01  0.39302661471E+01  0.11673472760E+02  0.51100000000E-03 0.  1.
         12    1    3    3    0    0  0.69702406096E+01  0.17681048856E+02  0.27358135672E+02  0.33311729619E+02  0.00000000000E+00 0. -1.
</event>
<event>
 7    1  0.2755991E-011  0.5052886E+02  0.7816164E-02  0.1300439E+00
        -11   -1    0    0    0    0  0.00000000000E+00  0.00000000000E+00  0.45593999997E+02  0.45594000000E+02  0.51100000000E-03 0. -1.
         11   -1    0    0    0    0 -0.00000000000E+00 -0.00000000000E+00 -0.45593999997E+02  0.45594000000E+02  0.51100000000E-03 0.  1.
    9900012    2    1    2    0    0  0.28547013185E+02  0.28878066928E+02 -0.20714187110E+01  0.50528862199E+02  0.30000007139E+02 0.  0.
         12    1    1    2    0    0 -0.28547013185E+02 -0.28878066928E+02  0.20714187110E+01  0.40659137801E+02  0.00000000000E+00 0. -1.
         11    1    3    3    0    0 -0.11314214099E+01  0.85076241481E+01  0.80636772328E+01  0.11776360806E+02  0.51100000000E-03 0. -1.
        -11    1    3    3    0    0  0.39379041498E+01  0.28410441145E+00 -0.38269773695E+01  0.54985052930E+01  0.51100000000E-03 0.  1.
        -12    1    3    3    0    0  0.25740530445E+02  0.20086338368E+02 -0.63081185743E+01  0.33253996100E+02  0.00000000000E+00 0.  1.
</event>
<event>
 7    1  0.2755991E-011  0.5052886E+02  0.7816164E-02  0.1300439E+00
        -11   -1    0    0    0    0  0.00000000000E+00  0.00000000000E+00  0.45593999997E+02  0.45594000000E+02  0.51100000000E-03 0.  1.
         11   -1    0    0    0    0 -0.00000000000E+00 -0.00000000000E+00 -0.45593999997E+02  0.45594000000E+02  0.51100000000E-03 0. -1.
    9900012    2    1    2    0    0 -0.92010099266E+01 -0.37738284732E+02  0.12013704096E+02  0.50528858294E+02  0.29999995270E+02 0.  0.
         12    1    1    2    0    0  0.92010099266E+01  0.37738284732E+02 -0.12013704096E+02  0.40659141706E+02  0.00000000000E+00 0. -1.
         11    1    3    3    0    0  0.32909506970E+01 -0.14792802269E+01 -0.17447369874E+01  0.40078340654E+01  0.51100000000E-03 0. -1.
        -11    1    3    3    0    0  0.55346548968E+01 -0.11040425460E+02 -0.58626359601E+00  0.12363943725E+02  0.51100000000E-03 0.  1.
        -12    1    3    3    0    0 -0.18026615520E+02 -0.25218579045E+02  0.14344704680E+02  0.34157080503E+02  0.00000000000E+00 0.  1.
</event>
<event>
 7    1  0.2755991E-011  0.5052886E+02  0.7816164E-02  0.1300439E+00
        -11   -1    0    0    0    0  0.00000000000E+00  0.00000000000E+00  0.45593999997E+02  0.45594000000E+02  0.51100000000E-03 0. -1.
         11   -1    0    0    0    0 -0.00000000000E+00 -0.00000000000E+00 -0.45593999997E+02  0.45594000000E+02  0.51100000000E-03 0.  1.
    9900012    2    1    2    0    0 -0.80708775668E+01 -0.69803475827E+01 -0.39233935433E+02  0.50528855805E+02  0.29999987706E+02 0.  0.
         12    1    1    2    0    0  0.80708775668E+01  0.69803475827E+01  0.39233935433E+02  0.40659144195E+02  0.00000000000E+00 0. -1.
         11    1    3    3    0    0 -0.20702483453E+01 -0.73826076198E+01 -0.20462614734E+02  0.21851943288E+02  0.51100000000E-03 0. -1.
        -11    1    3    3    0    0  0.53977412988E+00 -0.33947446100E+01 -0.20609382319E+02  0.20894073009E+02  0.51100000000E-03 0.  1.
         12    1    3    3    0    0 -0.65404033513E+01  0.37970046471E+01  0.18380616198E+01  0.77828395079E+01  0.00000000000E+00 0. -1.
</event>
<event>
 7    1  0.2755991E-011  0.5052885E+02  0.7816164E-02  0.1300439E+00
        -11   -1    0    0    0    0  0.00000000000E+00  0.00000000000E+00  0.45593999997E+02  0.45594000000E+02  0.51100000000E-03 0. -1.
         11   -1    0    0    0    0 -0.00000000000E+00 -0.00000000000E+00 -0.45593999997E+02  0.45594000000E+02  0.51100000000E-03 0.  1.
    9900012    2    1    2    0    0 -0.78343730007E+00  0.25209400993E+02 -0.31891041714E+02  0.50528853255E+02  0.29999979955E+02 0.  0.
         12    1    1    2    0    0  0.78343730007E+00 -0.25209400993E+02  0.31891041714E+02  0.40659146745E+02  0.00000000000E+00 0. -1.
         11    1    3    3    0    0  0.20386387100E+01  0.54575514536E+01  0.13052065376E+01  0.59702998271E+01  0.51100000000E-03 0. -1.
        -11    1    3    3    0    0 -0.79725283806E+01  0.12400244780E+02 -0.59947609000E+01  0.15914284084E+02  0.51100000000E-03 0.  1.
        -12    1    3    3    0    0  0.51504523705E+01  0.73516047590E+01 -0.27201487351E+02  0.28644269344E+02  0.00000000000E+00 0.  1.
</event>
<event>
 7    1  0.2755991E-011  0.5052886E+02  0.7816164E-02  0.1300439E+00
        -11   -1    0    0    0    0  0.00000000000E+00  0.00000000000E+00  0.45593999997E+02  0.45594000000E+02  0.51100000000E-03 0.  1.
         11   -1    0    0    0    0 -0.00000000000E+00 -0.00000000000E+00 -0.45593999997E+02  0.45594000000E+02  0.51100000000E-03 0. -1.
    9900012    2    1    2    0    0 -0.29728441660E+02 -0.62990735950E+01  0.27013092460E+02  0.50528859134E+02  0.29999997825E+02 0.  0.
         12    1    1    2    0    0  0.29728441660E+02  0.62990735950E+01 -0.27013092460E+02  0.40659140866E+02  0.00000000000E+00 0. -1.
         11    1    3    3    0    0 -0.36684661162E+01 -0.32789674251E-01  0.12408192015E+02  0.12939163348E+02  0.51100000000E-03 0. -1.
        -11    1    3    3    0    0 -0.66384593677E+01 -0.11916550319E+02  0.20785936428E+01  0.13798328380E+02  0.51100000000E-03 0.  1.
         12    1    3    3    0    0 -0.19421516176E+02  0.56502663985E+01  0.12526306802E+02  0.23791367406E+02  0.00000000000E+00 0. -1.
</event>
<event>
 7    1  0.2755991E-011  0.5052886E+02  0.7816164E-02  0.1300439E+00
        -11   -1    0    0    0    0  0.00000000000E+00  0.00000000000E+00  0.45593999997E+02  0.45594000000E+02  0.51100000000E-03 0.  1.
         11   -1    0    0    0    0 -0.00000000000E+00 -0.00000000000E+00 -0.45593999997E+02  0.45594000000E+02  0.51100000000E-03 0. -1.
    9900012    2    1    2    0    0 -0.26983456668E+02  0.13328065285E+00  0.30414489699E+02  0.50528857348E+02  0.29999992396E+02 0.  0.
         12    1    1    2    0    0  0.26983456668E+02 -0.13328065285E+00 -0.30414489699E+02  0.40659142652E+02  0.00000000000E+00 0. -1.
         11    1    3    3    0    0 -0.15542655591E+02 -0.88651545527E+01  0.14526317886E+02  0.23047321312E+02  0.51100000000E-03 0. -1.
        -11    1    3    3    0    0 -0.13751890335E+02  0.81486452151E+00  0.11308899704E+02  0.17823291075E+02  0.51100000000E-03 0.  1.
         12    1    3    3    0    0  0.23110892570E+01  0.81835706840E+01  0.45792721094E+01  0.96582449621E+01  0.00000000000E+00 0. -1.
</event>
<event>
 7    1  0.2755991E-011  0.5052885E+02  0.7816164E-02  0.1300439E+00
        -11   -1    0    0    0    0  0.00000000000E+00  0.00000000000E+00  0.45593999997E+02  0.45594000000E+02  0.51100000000E-03 0. -1.
         11   -1    0    0    0    0 -0.00000000000E+00 -0.00000000000E+00 -0.45593999997E+02  0.45594000000E+02  0.51100000000E-03 0.  1.
    9900012    2    1    2    0    0  0.25941526373E+01 -0.14900259713E+02 -0.37741472551E+02  0.50528854440E+02  0.29999983555E+02 0.  0.
         12    1    1    2    0    0 -0.25941526373E+01  0.14900259713E+02  0.37741472551E+02  0.40659145560E+02  0.00000000000E+00 0. -1.
         11    1    3    3    0    0  0.61446607095E+00  0.27129956052E+01 -0.28712485181E+01  0.39977471181E+01  0.51100000000E-03 0. -1.
        -11    1    3    3    0    0  0.58939889224E+01  0.49645977845E+01 -0.66472184042E+01  0.10177025565E+02  0.51100000000E-03 0.  1.
        -12    1    3    3    0    0 -0.39143023560E+01 -0.22577853103E+02 -0.28223005628E+02  0.36354081756E+02  0.00000000000E+00 0.  1.
</event>
<event>
 7    1  0.2755991E-011  0.5052884E+02  0.7816164E-02  0.1300439E+00
        -11   -1    0    0    0    0  0.00000000000E+00  0.00000000000E+00  0.45593999997E+02  0.45594000000E+02  0.51100000000E-03 0.  1.
         11   -1    0    0    0    0 -0.00000000000E+00 -0.00000000000E+00 -0.45593999997E+02  0.45594000000E+02  0.51100000000E-03 0. -1.
    9900012    2    1    2    0    0  0.20503277847E+02  0.65869016460E+01  0.34487615372E+02  0.50528840026E+02  0.29999939742E+02 0.  0.
         12    1    1    2    0    0 -0.20503277847E+02 -0.65869016460E+01 -0.34487615372E+02  0.40659159974E+02  0.00000000000E+00 0. -1.
         11    1    3    3    0    0  0.87909405651E+01 -0.41141645197E+01  0.11259720157E+02  0.14865674690E+02  0.51100000000E-03 0. -1.
        -11    1    3    3    0    0  0.28276312148E+01 -0.23287718307E+00  0.21247440892E+02  0.21436032160E+02  0.51100000000E-03 0.  1.
        -12    1    3    3    0    0  0.88847060672E+01  0.10933943349E+02  0.19804543226E+01  0.14227133175E+02  0.00000000000E+00 0.  1.
</event>
<event>
 7    1  0.2755991E-011  0.5052886E+02  0.7816164E-02  0.1300439E+00
        -11   -1    0    0    0    0  0.00000000000E+00  0.00000000000E+00  0.45593999997E+02  0.45594000000E+02  0.51100000000E-03 0. -1.
         11   -1    0    0    0    0 -0.00000000000E+00 -0.00000000000E+00 -0.45593999997E+02  0.45594000000E+02  0.51100000000E-03 0.  1.
    9900012    2    1    2    0    0  0.54424972126E+01  0.11101388172E+01 -0.40277935675E+02  0.50528864663E+02  0.30000014630E+02 0.  0.
         12    1    1    2    0    0 -0.54424972126E+01 -0.11101388172E+01  0.40277935675E+02  0.40659135337E+02  0.00000000000E+00 0. -1.
         11    1    3    3    0    0  0.39678310409E+01  0.10740734976E+02 -0.62277195224E+01  0.13034245728E+02  0.51100000000E-03 0. -1.
        -11    1    3    3    0    0  0.35706675910E+01  0.88079511187E+00 -0.16704166379E+02  0.17104228768E+02  0.51100000000E-03 0.  1.
         12    1    3    3    0    0 -0.20960014193E+01 -0.10511391271E+02 -0.17346049774E+02  0.20390390167E+02  0.00000000000E+00 0. -1.
</event>
<event>
 7    1  0.2755991E-011  0.5052886E+02  0.7816164E-02  0.1300439E+00
        -11   -1    0    0    0    0  0.00000000000E+00  0.00000000000E+00  0.45593999997E+02  0.45594000000E+02  0.51100000000E-03 0.  1.
         11   -1    0    0    0    0 -0.00000000000E+00 -0.00000000000E+00 -0.45593999997E+02  0.45594000000E+02  0.51100000000E-03 0. -1.
    9900012    2    1    2    0    0  0.15817770254E+02  0.23604282458E+01  0.37381708361E+02  0.50528860839E+02  0.30000003008E+02 0.  0.
         12    1    1    2    0    0 -0.15817770254E+02 -0.23604282458E+01 -0.37381708361E+02  0.40659139161E+02  0.00000000000E+00 0. -1.
         11    1    3    3    0    0  0.12350847540E+02 -0.52347252956E+01  0.11473562999E+02  0.17651867664E+02  0.51100000000E-03 0. -1.
        -11    1    3    3    0    0  0.92611785480E+01  0.54319518203E+01  0.24177950420E+02  0.26454655837E+02  0.51100000000E-03 0.  1.
        -12    1    3    3    0    0 -0.57942558337E+01  0.21632017211E+01  0.17301949414E+01  0.64223373383E+01  0.00000000000E+00 0.  1.
</event>
<event>
 7    1  0.2755991E-011  0.5052886E+02  0.7816164E-02  0.1300439E+00
        -11   -1    0    0    0    0  0.00000000000E+00  0.00000000000E+00  0.45593999997E+02  0.45594000000E+02  0.51100000000E-03 0.  1.
         11   -1    0    0    0    0 -0.00000000000E+00 -0.00000000000E+00 -0.45593999997E+02  0.45594000000E+02  0.51100000000E-03 0. -1.
    9900012    2    1    2    0    0 -0.31753683003E+02 -0.23341673604E+02 -0.10001779731E+02  0.50528859469E+02  0.29999998842E+02 0.  0.
         12    1    1    2    0    0  0.31753683003E+02  0.23341673604E+02  0.10001779731E+02  0.40659140531E+02  0.00000000000E+00 0. -1.
         11    1    3    3    0    0  0.27916501010E+01 -0.94963392154E-01 -0.56999159923E+01  0.63475484176E+01  0.51100000000E-03 0. -1.
        -11    1    3    3    0    0 -0.10673623280E+02 -0.14458363652E+02  0.16789918265E+01  0.18049640640E+02  0.51100000000E-03 0.  1.
         12    1    3    3    0    0 -0.23871709824E+02 -0.87883465600E+01 -0.59808555655E+01  0.26131670411E+02  0.00000000000E+00 0. -1.
</event>
<event>
 7    1  0.2755991E-011  0.5052886E+02  0.7816164E-02  0.1300439E+00
        -11   -1    0    0    0    0  0.00000000000E+00  0.00000000000E+00  0.45593999997E+02  0.45594000000E+02  0.51100000000E-03 0.  1.
         11   -1    0    0    0    0 -0.00000000000E+00 -0.00000000000E+00 -0.45593999997E+02  0.45594000000E+02  0.51100000000E-03 0. -1.
    9900012    2    1    2    0    0 -0.13378149580E+01 -0.20491450781E+02  0.35092392784E+02  0.50528864061E+02  0.30000012800E+02 0.  0.
         12    1    1    2    0    0  0.13378149580E+01  0.20491450781E+02 -0.35092392784E+02  0.40659135939E+02  0.00000000000E+00 0. -1.
         11    1    3    3    0    0  0.10400422495E+01 -0.36979311567E+01  0.75538493318E+00  0.39149699077E+01  0.51100000000E-03 0. -1.
        -11    1    3    3    0    0 -0.45832128588E+01 -0.80524651593E+01 -0.17401880856E+01  0.94274222397E+01  0.51100000000E-03 0.  1.
        -12    1    3    3    0    0  0.22053556514E+01 -0.87410544654E+01  0.36077195937E+02  0.37186471914E+02  0.00000000000E+00 0.  1.
</event>
<event>
 7    1  0.2755991E-011  0.5052886E+02  0.7816164E-02  0.1300439E+00
        -11   -1    0    0    0    0  0.00000000000E+00  0.00000000000E+00  0.45593999997E+02  0.45594000000E+02  0.51100000000E-03 0.  1.
         11   -1    0    0    0    0 -0.00000000000E+00 -0.00000000000E+00 -0.45593999997E+02  0.45594000000E+02  0.51100000000E-03 0. -1.
    9900012    2    1    2    0    0 -0.56808845100E+01  0.13514970532E+02  0.37924119952E+02  0.50528858944E+02  0.29999997246E+02 0.  0.
         12    1    1    2    0    0  0.56808845100E+01 -0.13514970532E+02 -0.37924119952E+02  0.40659141056E+02  0.00000000000E+00 0. -1.
         11    1    3    3    0    0 -0.10776734534E+01  0.10973481128E+01  0.24541087706E+02  0.24589236243E+02  0.51100000000E-03 0. -1.
        -11    1    3    3    0    0 -0.29505020744E+01  0.14058350831E+02  0.16610150167E+02  0.21959958547E+02  0.51100000000E-03 0.  1.
         12    1    3    3    0    0 -0.16527089822E+01 -0.16407284117E+01 -0.32271179211E+01  0.39796641538E+01  0.00000000000E+00 0. -1.
</event>
<event>
 7    1  0.2755991E-011  0.5052887E+02  0.7816164E-02  0.1300439E+00
        -11   -1    0    0    0    0  0.00000000000E+00  0.00000000000E+00  0.45593999997E+02  0.45594000000E+02  0.51100000000E-03 0.  1.
         11   -1    0    0    0    0 -0.00000000000E+00 -0.00000000000E+00 -0.45593999997E+02  0.45594000000E+02  0.51100000000E-03 0. -1.
    9900012    2    1    2    0    0  0.15525818953E+02  0.25149714935E+02  0.27921425805E+02  0.50528865301E+02  0.30000016569E+02 0.  0.
         12    1    1    2    0    0 -0.15525818953E+02 -0.25149714935E+02 -0.27921425805E+02  0.40659134699E+02  0.00000000000E+00 0. -1.
         11    1    3    3    0    0  0.13184515785E+01 -0.31313629275E+00 -0.39002357581E+01  0.41289475817E+01  0.51100000000E-03 0. -1.
        -11    1    3    3    0    0 -0.16820045484E+01 -0.11730658335E+01  0.49686294155E+01  0.53751745349E+01  0.51100000000E-03 0.  1.
        -12    1    3    3    0    0  0.15889371923E+02  0.26635917061E+02  0.26853032148E+02  0.41024743184E+02  0.00000000000E+00 0.  1.
</event>
<event>
 7    1  0.2755991E-011  0.5052888E+02  0.7816164E-02  0.1300439E+00
        -11   -1    0    0    0    0  0.00000000000E+00  0.00000000000E+00  0.45593999997E+02  0.45594000000E+02  0.51100000000E-03 0.  1.
         11   -1    0    0    0    0 -0.00000000000E+00 -0.00000000000E+00 -0.45593999997E+02  0.45594000000E+02  0.51100000000E-03 0. -1.
    9900012    2    1    2    0    0 -0.61823319610E+01  0.33469347608E+02  0.22242882673E+02  0.50528876948E+02  0.30000051970E+02 0.  0.
         12    1    1    2    0    0  0.61823319610E+01 -0.33469347608E+02 -0.22242882673E+02  0.40659123052E+02  0.00000000000E+00 0. -1.
         11    1    3    3    0    0 -0.74234088592E+01  0.21070634078E+02  0.16017852043E+02  0.27489092453E+02  0.51100000000E-03 0.  1.
        -11    1    3    3    0    0 -0.66957208229E+01  0.12464883957E+02  0.50102689469E+01  0.15010289957E+02  0.51100000000E-03 0. -1.
         12    1    3    3    0    0  0.79367977211E+01 -0.66170426978E-01  0.12147616826E+01  0.80294945381E+01  0.00000000000E+00 0. -1.
</event>
<event>
 7    1  0.3279108E-011  0.5052887E+02  0.7816164E-02  0.1300439E+00
        -11   -1    0    0    0    0  0.00000000000E+00  0.00000000000E+00  0.45593999997E+02  0.45594000000E+02  0.51100000000E-03 0. -1.
         11   -1    0    0    0    0 -0.00000000000E+00 -0.00000000000E+00 -0.45593999997E+02  0.45594000000E+02  0.51100000000E-03 0.  1.
    9900012    2    1    2    0    0  0.16222308857E+01  0.41936009128E+01 -0.40409742128E+02  0.50528865965E+02  0.30000018586E+02 0.  0.
         12    1    1    2    0    0 -0.16222308857E+01 -0.41936009128E+01  0.40409742128E+02  0.40659134035E+02  0.00000000000E+00 0. -1.
         11    1    3    3    0    0  0.45409148364E+01  0.30159290873E+00  0.10814174917E+01  0.46776414876E+01  0.51100000000E-03 0. -1.
        -11    1    3    3    0    0  0.17183529967E+01 -0.42237456340E+01 -0.15273800599E+01  0.48089140469E+01  0.51100000000E-03 0.  1.
        -12    1    3    3    0    0 -0.46370369475E+01  0.81157536380E+01 -0.39963779560E+02  0.41042310430E+02  0.00000000000E+00 0.  1.
</event>
<event>
 7    1  0.2755991E-011  0.5052885E+02  0.7816164E-02  0.1300439E+00
        -11   -1    0    0    0    0  0.00000000000E+00  0.00000000000E+00  0.45593999997E+02  0.45594000000E+02  0.51100000000E-03 0.  1.
         11   -1    0    0    0    0 -0.00000000000E+00 -0.00000000000E+00 -0.45593999997E+02  0.45594000000E+02  0.51100000000E-03 0. -1.
    9900012    2    1    2    0    0 -0.37388465905E+02 -0.82785534954E+01 -0.13665077758E+02  0.50528853663E+02  0.29999981195E+02 0.  0.
         12    1    1    2    0    0  0.37388465905E+02  0.82785534954E+01  0.13665077758E+02  0.40659146337E+02  0.00000000000E+00 0. -1.
         11    1    3    3    0    0 -0.38112478446E+01  0.46713029336E+01  0.37959047426E+01  0.71242946533E+01  0.51100000000E-03 0. -1.
        -11    1    3    3    0    0 -0.26561747693E+01  0.25338246510E+01 -0.58874176418E+01  0.69380990564E+01  0.51100000000E-03 0.  1.
        -12    1    3    3    0    0 -0.30921043291E+02 -0.15483681080E+02 -0.11573564858E+02  0.36466459954E+02  0.00000000000E+00 0.  1.
</event>
<event>
 7    1  0.2755991E-011  0.5052887E+02  0.7816164E-02  0.1300439E+00
        -11   -1    0    0    0    0  0.00000000000E+00  0.00000000000E+00  0.45593999997E+02  0.45594000000E+02  0.51100000000E-03 0.  1.
         11   -1    0    0    0    0 -0.00000000000E+00 -0.00000000000E+00 -0.45593999997E+02  0.45594000000E+02  0.51100000000E-03 0. -1.
    9900012    2    1    2    0    0 -0.95368894566E+01 -0.17903141756E+02  0.35237619046E+02  0.50528873825E+02  0.30000042480E+02 0.  0.
         12    1    1    2    0    0  0.95368894566E+01  0.17903141756E+02 -0.35237619046E+02  0.40659126175E+02  0.00000000000E+00 0. -1.
         11    1    3    3    0    0 -0.26532980697E+01 -0.51395148234E+01  0.22336102306E+02  0.23072842689E+02  0.51100000000E-03 0. -1.
        -11    1    3    3    0    0 -0.37852512832E+01 -0.31374664914E+01  0.16112563973E+02  0.16845965135E+02  0.51100000000E-03 0.  1.
         12    1    3    3    0    0 -0.30983401038E+01 -0.96261604413E+01 -0.32110472328E+01  0.10610066002E+02  0.00000000000E+00 0. -1.
</event>
<event>
 7    1  0.2755991E-011  0.5052886E+02  0.7816164E-02  0.1300439E+00
        -11   -1    0    0    0    0  0.00000000000E+00  0.00000000000E+00  0.45593999997E+02  0.45594000000E+02  0.51100000000E-03 0. -1.
         11   -1    0    0    0    0 -0.00000000000E+00 -0.00000000000E+00 -0.45593999997E+02  0.45594000000E+02  0.51100000000E-03 0.  1.
    9900012    2    1    2    0    0 -0.29258297501E+02  0.24005815303E+02 -0.14860638721E+02  0.50528859278E+02  0.29999998263E+02 0.  0.
         12    1    1    2    0    0  0.29258297501E+02 -0.24005815303E+02  0.14860638721E+02  0.40659140722E+02  0.00000000000E+00 0. -1.
         11    1    3    3    0    0 -0.62808976647E-01  0.73271582514E+01 -0.10255620393E+02  0.12604322390E+02  0.51100000000E-03 0. -1.
        -11    1    3    3    0    0 -0.20889979139E+02  0.18917816244E+02 -0.69127839743E+01  0.29018297373E+02  0.51100000000E-03 0.  1.
         12    1    3    3    0    0 -0.83055093850E+01 -0.22391591922E+01  0.23077656461E+01  0.89062395156E+01  0.00000000000E+00 0. -1.
</event>
<event>
 7    1  0.2755991E-011  0.5052885E+02  0.7816164E-02  0.1300439E+00
        -11   -1    0    0    0    0  0.00000000000E+00  0.00000000000E+00  0.45593999997E+02  0.45594000000E+02  0.51100000000E-03 0.  1.
         11   -1    0    0    0    0 -0.00000000000E+00 -0.00000000000E+00 -0.45593999997E+02  0.45594000000E+02  0.51100000000E-03 0. -1.
    9900012    2    1    2    0    0  0.25456264944E+02  0.18646737621E+02  0.25640668399E+02  0.50528854353E+02  0.29999983290E+02 0.  0.
         12    1    1    2    0    0 -0.25456264944E+02 -0.18646737621E+02 -0.25640668399E+02  0.40659145647E+02  0.00000000000E+00 0. -1.
         11    1    3    3    0    0 -0.33250403447E+01  0.53618385669E+01 -0.27374587256E+01  0.68774186035E+01  0.51100000000E-03 0. -1.
        -11    1    3    3    0    0  0.11623921852E+02  0.66153115191E+01  0.59556073310E+01  0.14640599873E+02  0.51100000000E-03 0.  1.
         12    1    3    3    0    0  0.17157383437E+02  0.66695875351E+01  0.22422519794E+02  0.29010835876E+02  0.00000000000E+00 0. -1.
</event>
<event>
 7    1  0.2755991E-011  0.5052886E+02  0.7816164E-02  0.1300439E+00
        -11   -1    0    0    0    0  0.00000000000E+00  0.00000000000E+00  0.45593999997E+02  0.45594000000E+02  0.51100000000E-03 0. -1.
         11   -1    0    0    0    0 -0.00000000000E+00 -0.00000000000E+00 -0.45593999997E+02  0.45594000000E+02  0.51100000000E-03 0.  1.
    9900012    2    1    2    0    0 -0.19024005419E+02  0.60698417304E+01 -0.35417648420E+02  0.50528861046E+02  0.30000003637E+02 0.  0.
         12    1    1    2    0    0  0.19024005419E+02 -0.60698417304E+01  0.35417648420E+02  0.40659138954E+02  0.00000000000E+00 0. -1.
         11    1    3    3    0    0 -0.60170578567E+01  0.86932282551E+01 -0.81568793218E+01  0.13353347269E+02  0.51100000000E-03 0. -1.
        -11    1    3    3    0    0 -0.96719923372E+01  0.89620287395E+01 -0.15204557552E+02  0.20125704100E+02  0.51100000000E-03 0.  1.
        -12    1    3    3    0    0 -0.33349552251E+01 -0.11585415264E+02 -0.12056211546E+02  0.17049809678E+02  0.00000000000E+00 0.  1.
</event>
<event>
 7    1  0.2755991E-011  0.5052886E+02  0.7816164E-02  0.1300439E+00
        -11   -1    0    0    0    0  0.00000000000E+00  0.00000000000E+00  0.45593999997E+02  0.45594000000E+02  0.51100000000E-03 0. -1.
         11   -1    0    0    0    0 -0.00000000000E+00 -0.00000000000E+00 -0.45593999997E+02  0.45594000000E+02  0.51100000000E-03 0.  1.
    9900012    2    1    2    0    0  0.49330564291E+01 -0.52043103981E+01 -0.40021813085E+02  0.50528863080E+02  0.30000009818E+02 0.  0.
         12    1    1    2    0    0 -0.49330564291E+01  0.52043103981E+01  0.40021813085E+02  0.40659136920E+02  0.00000000000E+00 0. -1.
         11    1    3    3    0    0  0.59847972007E+01  0.43300813886E+01 -0.15131765964E+02  0.16838579032E+02  0.51100000000E-03 0. -1.
        -11    1    3    3    0    0  0.62795548604E+01  0.23016056736E+01 -0.15543661500E+02  0.16921454164E+02  0.51100000000E-03 0.  1.
         12    1    3    3    0    0 -0.73312956320E+01 -0.11835997460E+02 -0.93463856216E+01  0.16768829885E+02  0.00000000000E+00 0. -1.
</event>
<event>
 7    1  0.2755991E-011  0.5052886E+02  0.7816164E-02  0.1300439E+00
        -11   -1    0    0    0    0  0.00000000000E+00  0.00000000000E+00  0.45593999997E+02  0.45594000000E+02  0.51100000000E-03 0. -1.
         11   -1    0    0    0    0 -0.00000000000E+00 -0.00000000000E+00 -0.45593999997E+02  0.45594000000E+02  0.51100000000E-03 0.  1.
    9900012    2    1    2    0    0 -0.13458378131E+02  0.36820860582E+02 -0.10782479868E+02  0.50528860953E+02  0.30000003353E+02 0.  0.
         12    1    1    2    0    0  0.13458378131E+02 -0.36820860582E+02  0.10782479868E+02  0.40659139047E+02  0.00000000000E+00 0. -1.
         11    1    3    3    0    0  0.12106011659E+01  0.55351625207E+00  0.12335441888E+01  0.18148187103E+01  0.51100000000E-03 0. -1.
        -11    1    3    3    0    0 -0.12327624677E+01  0.29499911136E+02 -0.15390262140E+02  0.33296015217E+02  0.51100000000E-03 0.  1.
        -12    1    3    3    0    0 -0.13436216829E+02  0.67674331944E+01  0.33742380839E+01  0.15418027026E+02  0.00000000000E+00 0.  1.
</event>
<event>
 7    1  0.2755991E-011  0.5052888E+02  0.7816164E-02  0.1300439E+00
        -11   -1    0    0    0    0  0.00000000000E+00  0.00000000000E+00  0.45593999997E+02  0.45594000000E+02  0.51100000000E-03 0.  1.
         11   -1    0    0    0    0 -0.00000000000E+00 -0.00000000000E+00 -0.45593999997E+02  0.45594000000E+02  0.51100000000E-03 0. -1.
    9900012    2    1    2    0    0  0.38166287405E+01 -0.21776761781E+02  0.34122866561E+02  0.50528880101E+02  0.30000061556E+02 0.  0.
         12    1    1    2    0    0 -0.38166287405E+01  0.21776761781E+02 -0.34122866561E+02  0.40659119899E+02  0.00000000000E+00 0. -1.
         11    1    3    3    0    0 -0.75062183570E-01 -0.18892558595E+00  0.18767752717E+01  0.18877533976E+01  0.51100000000E-03 0. -1.
        -11    1    3    3    0    0 -0.61798690844E+01 -0.10148158511E+02  0.31174492453E+02  0.33362027562E+02  0.51100000000E-03 0.  1.
         12    1    3    3    0    0  0.10071560008E+02 -0.11439677684E+02  0.10715988358E+01  0.15279099142E+02  0.00000000000E+00 0. -1.
</event>
<event>
 7    1  0.2755991E-011  0.5052886E+02  0.7816164E-02  0.1300439E+00
        -11   -1    0    0    0    0  0.00000000000E+00  0.00000000000E+00  0.45593999997E+02  0.45594000000E+02  0.51100000000E-03 0.  1.
         11   -1    0    0    0    0 -0.00000000000E+00 -0.00000000000E+00 -0.45593999997E+02  0.45594000000E+02  0.51100000000E-03 0. -1.
    9900012    2    1    2    0    0  0.12704580640E+02 -0.13796995331E+02  0.36074956229E+02  0.50528856916E+02  0.29999991081E+02 0.  0.
         12    1    1    2    0    0 -0.12704580640E+02  0.13796995331E+02 -0.36074956229E+02  0.40659143084E+02  0.00000000000E+00 0. -1.
         11    1    3    3    0    0 -0.12895656917E+01 -0.24094103056E+01  0.26893170287E+02  0.27031663768E+02  0.51100000000E-03 0. -1.
        -11    1    3    3    0    0  0.33725910756E+01 -0.21331157581E+01  0.85033809358E+01  0.93931912043E+01  0.51100000000E-03 0.  1.
         12    1    3    3    0    0  0.10621555256E+02 -0.92544692670E+01  0.67840500609E+00  0.14104001944E+02  0.00000000000E+00 0. -1.
</event>
<event>
 7    1  0.2755991E-011  0.5052886E+02  0.7816164E-02  0.1300439E+00
        -11   -1    0    0    0    0  0.00000000000E+00  0.00000000000E+00  0.45593999997E+02  0.45594000000E+02  0.51100000000E-03 0.  1.
         11   -1    0    0    0    0 -0.00000000000E+00 -0.00000000000E+00 -0.45593999997E+02  0.45594000000E+02  0.51100000000E-03 0. -1.
    9900012    2    1    2    0    0  0.27935603038E+02  0.37995203840E+01  0.29297295663E+02  0.50528858280E+02  0.29999995228E+02 0.  0.
         12    1    1    2    0    0 -0.27935603038E+02 -0.37995203840E+01 -0.29297295663E+02  0.40659141720E+02  0.00000000000E+00 0. -1.
         11    1    3    3    0    0  0.12260955200E+02 -0.76167624148E+01  0.71272943804E+01  0.16097963149E+02  0.51100000000E-03 0. -1.
        -11    1    3    3    0    0  0.62925201024E+01 -0.42199609274E+01  0.98382236818E+01  0.12417508806E+02  0.51100000000E-03 0.  1.
         12    1    3    3    0    0  0.93821277352E+01  0.15636243726E+02  0.12331777601E+02  0.22013386325E+02  0.00000000000E+00 0. -1.
</event>
<event>
 7    1  0.2755991E-011  0.5052889E+02  0.7816164E-02  0.1300439E+00
        -11   -1    0    0    0    0  0.00000000000E+00  0.00000000000E+00  0.45593999997E+02  0.45594000000E+02  0.51100000000E-03 0.  1.
         11   -1    0    0    0    0 -0.00000000000E+00 -0.00000000000E+00 -0.45593999997E+02  0.45594000000E+02  0.51100000000E-03 0. -1.
    9900012    2    1    2    0    0  0.13181323806E+02 -0.21950612747E+02  0.31584587884E+02  0.50528894143E+02  0.30000104238E+02 0.  0.
         12    1    1    2    0    0 -0.13181323806E+02  0.21950612747E+02 -0.31584587884E+02  0.40659105857E+02  0.00000000000E+00 0. -1.
         11    1    3    3    0    0  0.44259552493E+01 -0.12954729586E+02  0.52072720808E+01  0.14646835198E+02  0.51100000000E-03 0. -1.
        -11    1    3    3    0    0  0.10506062308E+02 -0.43136380345E+01  0.26877886747E+01  0.11670862288E+02  0.51100000000E-03 0.  1.
         12    1    3    3    0    0 -0.17506937516E+01 -0.46822451262E+01  0.23689527129E+02  0.24211196658E+02  0.00000000000E+00 0. -1.
</event>
<event>
 7    1  0.2755991E-011  0.5052886E+02  0.7816164E-02  0.1300439E+00
        -11   -1    0    0    0    0  0.00000000000E+00  0.00000000000E+00  0.45593999997E+02  0.45594000000E+02  0.51100000000E-03 0. -1.
         11   -1    0    0    0    0 -0.00000000000E+00 -0.00000000000E+00 -0.45593999997E+02  0.45594000000E+02  0.51100000000E-03 0.  1.
    9900012    2    1    2    0    0  0.28025514213E+02  0.26907582818E+02  0.11988241612E+02  0.50528863303E+02  0.30000010496E+02 0.  0.
         12    1    1    2    0    0 -0.28025514213E+02 -0.26907582818E+02 -0.11988241612E+02  0.40659136697E+02  0.00000000000E+00 0. -1.
         11    1    3    3    0    0  0.63379462730E+00 -0.27565163874E+01  0.57748927394E+01  0.64303549386E+01  0.51100000000E-03 0. -1.
        -11    1    3    3    0    0  0.88027664814E+01  0.19814570213E+02  0.77006732328E+01  0.23008830021E+02  0.51100000000E-03 0.  1.
        -12    1    3    3    0    0  0.18588953104E+02  0.98495289924E+01 -0.14873243602E+01  0.21089678344E+02  0.00000000000E+00 0.  1.
</event>
<event>
 7    1  0.2755991E-011  0.5052886E+02  0.7816164E-02  0.1300439E+00
        -11   -1    0    0    0    0  0.00000000000E+00  0.00000000000E+00  0.45593999997E+02  0.45594000000E+02  0.51100000000E-03 0.  1.
         11   -1    0    0    0    0 -0.00000000000E+00 -0.00000000000E+00 -0.45593999997E+02  0.45594000000E+02  0.51100000000E-03 0. -1.
    9900012    2    1    2    0    0 -0.35966152575E+01  0.12950500735E+02  0.38373356027E+02  0.50528861257E+02  0.30000004275E+02 0.  0.
         12    1    1    2    0    0  0.35966152575E+01 -0.12950500735E+02 -0.38373356027E+02  0.40659138743E+02  0.00000000000E+00 0. -1.
         11    1    3    3    0    0 -0.11835446796E+01  0.12053459990E+02  0.92176752868E+01  0.15220125285E+02  0.51100000000E-03 0. -1.
        -11    1    3    3    0    0 -0.79184966612E+01 -0.57835136784E+01  0.87473841636E+01  0.13140332941E+02  0.51100000000E-03 0.  1.
         12    1    3    3    0    0  0.55054260833E+01  0.66805544236E+01  0.20408296576E+02  0.22168403030E+02  0.00000000000E+00 0. -1.
</event>
<event>
 7    1  0.2755991E-011  0.5052884E+02  0.7816164E-02  0.1300439E+00
        -11   -1    0    0    0    0  0.00000000000E+00  0.00000000000E+00  0.45593999997E+02  0.45594000000E+02  0.51100000000E-03 0. -1.
         11   -1    0    0    0    0 -0.00000000000E+00 -0.00000000000E+00 -0.45593999997E+02  0.45594000000E+02  0.51100000000E-03 0.  1.
    9900012    2    1    2    0    0 -0.21667806287E+02  0.28555846818E+02 -0.19189499831E+02  0.50528842107E+02  0.29999946068E+02 0.  0.
         12    1    1    2    0    0  0.21667806287E+02 -0.28555846818E+02  0.19189499831E+02  0.40659157893E+02  0.00000000000E+00 0. -1.
         11    1    3    3    0    0 -0.44958284716E+01  0.10144708219E+01  0.39926718989E+01  0.60977908990E+01  0.51100000000E-03 0. -1.
        -11    1    3    3    0    0 -0.65154997147E+01 -0.28920204434E+00 -0.97797857152E+01  0.11754981210E+02  0.51100000000E-03 0.  1.
        -12    1    3    3    0    0 -0.10656478101E+02  0.27830578041E+02 -0.13402386015E+02  0.32676069998E+02  0.00000000000E+00 0.  1.
</event>
<event>
 7    1  0.2755991E-011  0.5052889E+02  0.7816164E-02  0.1300439E+00
        -11   -1    0    0    0    0  0.00000000000E+00  0.00000000000E+00  0.45593999997E+02  0.45594000000E+02  0.51100000000E-03 0.  1.
         11   -1    0    0    0    0 -0.00000000000E+00 -0.00000000000E+00 -0.45593999997E+02  0.45594000000E+02  0.51100000000E-03 0. -1.
    9900012    2    1    2    0    0 -0.21986595829E+02  0.13123818983E+02  0.31583514232E+02  0.50528887957E+02  0.30000085435E+02 0.  0.
         12    1    1    2    0    0  0.21986595829E+02 -0.13123818983E+02 -0.31583514232E+02  0.40659112043E+02  0.00000000000E+00 0. -1.
         11    1    3    3    0    0  0.21613703553E+01 -0.97524255758E+00  0.50664957241E+01  0.55939251910E+01  0.51100000000E-03 0. -1.
        -11    1    3    3    0    0 -0.73105090470E+01 -0.41403830360E+01  0.15805126409E+02  0.17899394830E+02  0.51100000000E-03 0.  1.
        -12    1    3    3    0    0 -0.16837457137E+02  0.18239444577E+02  0.10711892100E+02  0.27035567937E+02  0.00000000000E+00 0.  1.
</event>
<event>
 7    1  0.2755991E-011  0.5052886E+02  0.7816164E-02  0.1300439E+00
        -11   -1    0    0    0    0  0.00000000000E+00  0.00000000000E+00  0.45593999997E+02  0.45594000000E+02  0.51100000000E-03 0.  1.
         11   -1    0    0    0    0 -0.00000000000E+00 -0.00000000000E+00 -0.45593999997E+02  0.45594000000E+02  0.51100000000E-03 0. -1.
    9900012    2    1    2    0    0 -0.26467289747E+02  0.16692278937E+02  0.25961821185E+02  0.50528858815E+02  0.29999996854E+02 0.  0.
         12    1    1    2    0    0  0.26467289747E+02 -0.16692278937E+02 -0.25961821185E+02  0.40659141185E+02  0.00000000000E+00 0. -1.
         11    1    3    3    0    0 -0.27380379105E+01 -0.73089963203E+00  0.13245463445E+01  0.31281766496E+01  0.51100000000E-03 0. -1.
        -11    1    3    3    0    0 -0.23925291097E+02  0.22001203449E+01  0.20604458044E+02  0.31651283942E+02  0.51100000000E-03 0.  1.
         12    1    3    3    0    0  0.19603926077E+00  0.15223058224E+02  0.40328167961E+01  0.15749398223E+02  0.00000000000E+00 0. -1.
</event>
<event>
 7    1  0.2755991E-011  0.5052882E+02  0.7816164E-02  0.1300439E+00
        -11   -1    0    0    0    0  0.00000000000E+00  0.00000000000E+00  0.45593999997E+02  0.45594000000E+02  0.51100000000E-03 0. -1.
         11   -1    0    0    0    0 -0.00000000000E+00 -0.00000000000E+00 -0.45593999997E+02  0.45594000000E+02  0.51100000000E-03 0.  1.
    9900012    2    1    2    0    0 -0.19343313002E+02  0.35722391940E+02 -0.17076841231E+01  0.50528816180E+02  0.29999867260E+02 0.  0.
         12    1    1    2    0    0  0.19343313002E+02 -0.35722391940E+02  0.17076841231E+01  0.40659183820E+02  0.00000000000E+00 0. -1.
         11    1    3    3    0    0 -0.74771159784E+01  0.13620287556E+02 -0.85832472865E+01  0.17750820565E+02  0.51100000000E-03 0.  1.
        -11    1    3    3    0    0 -0.15542443215E+02  0.11815251491E+02  0.92421334632E+01  0.21600572680E+02  0.51100000000E-03 0. -1.
         12    1    3    3    0    0  0.36762461907E+01  0.10286852893E+02 -0.23665702999E+01  0.11177422935E+02  0.00000000000E+00 0. -1.
</event>
<event>
 7    1  0.2755991E-011  0.5052886E+02  0.7816164E-02  0.1300439E+00
        -11   -1    0    0    0    0  0.00000000000E+00  0.00000000000E+00  0.45593999997E+02  0.45594000000E+02  0.51100000000E-03 0. -1.
         11   -1    0    0    0    0 -0.00000000000E+00 -0.00000000000E+00 -0.45593999997E+02  0.45594000000E+02  0.51100000000E-03 0.  1.
    9900012    2    1    2    0    0 -0.15234829433E+02 -0.30839809303E+02 -0.21678831539E+02  0.50528860774E+02  0.30000002809E+02 0.  0.
         12    1    1    2    0    0  0.15234829433E+02  0.30839809303E+02  0.21678831539E+02  0.40659139226E+02  0.00000000000E+00 0. -1.
         11    1    3    3    0    0 -0.15338309540E+01 -0.10429289051E+02 -0.91132530432E+01  0.13934636300E+02  0.51100000000E-03 0. -1.
        -11    1    3    3    0    0 -0.14906906403E+02 -0.24718691834E+02 -0.13739817673E+02  0.31968925138E+02  0.51100000000E-03 0.  1.
        -12    1    3    3    0    0  0.12059079244E+01  0.43081715827E+01  0.11742391776E+01  0.46252993367E+01  0.00000000000E+00 0.  1.
</event>
<event>
 7    1  0.2755991E-011  0.5052890E+02  0.7816164E-02  0.1300439E+00
        -11   -1    0    0    0    0  0.00000000000E+00  0.00000000000E+00  0.45593999997E+02  0.45594000000E+02  0.51100000000E-03 0.  1.
         11   -1    0    0    0    0 -0.00000000000E+00 -0.00000000000E+00 -0.45593999997E+02  0.45594000000E+02  0.51100000000E-03 0. -1.
    9900012    2    1    2    0    0 -0.36012041526E+02 -0.13879197191E+02  0.12793088769E+02  0.50528900529E+02  0.30000123647E+02 0.  0.
         12    1    1    2    0    0  0.36012041526E+02  0.13879197191E+02 -0.12793088769E+02  0.40659099471E+02  0.00000000000E+00 0. -1.
         11    1    3    3    0    0 -0.22698738736E+02 -0.10868000397E+02 -0.32141115621E+01  0.25370784108E+02  0.51100000000E-03 0. -1.
        -11    1    3    3    0    0 -0.11381945989E+02 -0.38339986781E+01  0.35482118247E+01  0.12523499821E+02  0.51100000000E-03 0.  1.
         12    1    3    3    0    0 -0.19313568014E+01  0.82280188456E+00  0.12458988506E+02  0.12634616600E+02  0.00000000000E+00 0. -1.
</event>
<event>
 7    1  0.2755991E-011  0.5052885E+02  0.7816164E-02  0.1300439E+00
        -11   -1    0    0    0    0  0.00000000000E+00  0.00000000000E+00  0.45593999997E+02  0.45594000000E+02  0.51100000000E-03 0.  1.
         11   -1    0    0    0    0 -0.00000000000E+00 -0.00000000000E+00 -0.45593999997E+02  0.45594000000E+02  0.51100000000E-03 0. -1.
    9900012    2    1    2    0    0 -0.12828325721E+02 -0.24734030056E+02  0.29611289923E+02  0.50528847592E+02  0.29999962741E+02 0.  0.
         12    1    1    2    0    0  0.12828325721E+02  0.24734030056E+02 -0.29611289923E+02  0.40659152408E+02  0.00000000000E+00 0. -1.
         11    1    3    3    0    0 -0.51239567195E+01 -0.19103623812E+02  0.23670365408E+02  0.30846224632E+02  0.51100000000E-03 0. -1.
        -11    1    3    3    0    0  0.46248139780E+00 -0.91612947892E+01  0.56642747621E+01  0.10780872882E+02  0.51100000000E-03 0.  1.
         12    1    3    3    0    0 -0.81668503994E+01  0.35308885459E+01  0.27664975311E+00  0.89017500783E+01  0.00000000000E+00 0. -1.
</event>
<event>
 7    1  0.2755991E-011  0.5052886E+02  0.7816164E-02  0.1300439E+00
        -11   -1    0    0    0    0  0.00000000000E+00  0.00000000000E+00  0.45593999997E+02  0.45594000000E+02  0.51100000000E-03 0.  1.
         11   -1    0    0    0    0 -0.00000000000E+00 -0.00000000000E+00 -0.45593999997E+02  0.45594000000E+02  0.51100000000E-03 0. -1.
    9900012    2    1    2    0    0  0.58122116415E+01  0.38152727152E+02  0.12796607489E+02  0.50528861340E+02  0.30000004530E+02 0.  0.
         12    1    1    2    0    0 -0.58122116415E+01 -0.38152727152E+02 -0.12796607489E+02  0.40659138660E+02  0.00000000000E+00 0. -1.
         11    1    3    3    0    0 -0.15592114664E+01  0.46861482350E+00 -0.61838270550E+01  0.63945646887E+01  0.51100000000E-03 0. -1.
        -11    1    3    3    0    0  0.35985804119E+00  0.90145281804E+00  0.34714990435E+01  0.36046387979E+01  0.51100000000E-03 0.  1.
         12    1    3    3    0    0  0.70115650667E+01  0.36782659511E+02  0.15508935501E+02  0.40529657854E+02  0.00000000000E+00 0. -1.
</event>
<event>
 7    1  0.3039051E-011  0.5052886E+02  0.7816164E-02  0.1300439E+00
        -11   -1    0    0    0    0  0.00000000000E+00  0.00000000000E+00  0.45593999997E+02  0.45594000000E+02  0.51100000000E-03 0.  1.
         11   -1    0    0    0    0 -0.00000000000E+00 -0.00000000000E+00 -0.45593999997E+02  0.45594000000E+02  0.51100000000E-03 0. -1.
    9900012    2    1    2    0    0 -0.26842308514E+02 -0.30278453331E+02  0.39838802670E+01  0.50528861243E+02  0.30000004234E+02 0.  0.
         12    1    1    2    0    0  0.26842308514E+02  0.30278453331E+02 -0.39838802670E+01  0.40659138757E+02  0.00000000000E+00 0. -1.
         11    1    3    3    0    0 -0.46699381312E+01 -0.85149892955E+01 -0.93600728416E+01  0.13487932707E+02  0.51100000000E-03 0. -1.
        -11    1    3    3    0    0 -0.15269365203E+02 -0.20701897246E+02  0.50796242226E+01  0.26220691177E+02  0.51100000000E-03 0.  1.
        -12    1    3    3    0    0 -0.69030051803E+01 -0.10615667892E+01  0.82643288860E+01  0.10820237359E+02  0.00000000000E+00 0.  1.
</event>
<event>
 7    1  0.2755991E-011  0.5052886E+02  0.7816164E-02  0.1300439E+00
        -11   -1    0    0    0    0  0.00000000000E+00  0.00000000000E+00  0.45593999997E+02  0.45594000000E+02  0.51100000000E-03 0.  1.
         11   -1    0    0    0    0 -0.00000000000E+00 -0.00000000000E+00 -0.45593999997E+02  0.45594000000E+02  0.51100000000E-03 0. -1.
    9900012    2    1    2    0    0 -0.60662850130E+00 -0.48781744555E+01  0.40360881362E+02  0.50528864145E+02  0.30000013055E+02 0.  0.
         12    1    1    2    0    0  0.60662850130E+00  0.48781744555E+01 -0.40360881362E+02  0.40659135855E+02  0.00000000000E+00 0. -1.
         11    1    3    3    0    0  0.11213270482E+02 -0.45487700763E+01  0.22917222869E+02  0.25915783769E+02  0.51100000000E-03 0. -1.
        -11    1    3    3    0    0  0.24768034080E+01  0.13821538245E+01  0.18392506496E+01  0.33804951604E+01  0.51100000000E-03 0.  1.
        -12    1    3    3    0    0 -0.14296702391E+02 -0.17115582038E+01  0.15604407844E+02  0.21232585215E+02  0.00000000000E+00 0.  1.
</event>
<event>
 7    1  0.2755991E-011  0.5052888E+02  0.7816164E-02  0.1300439E+00
        -11   -1    0    0    0    0  0.00000000000E+00  0.00000000000E+00  0.45593999997E+02  0.45594000000E+02  0.51100000000E-03 0.  1.
         11   -1    0    0    0    0 -0.00000000000E+00 -0.00000000000E+00 -0.45593999997E+02  0.45594000000E+02  0.51100000000E-03 0. -1.
    9900012    2    1    2    0    0 -0.18572240901E+02 -0.32088238837E+02 -0.16690733149E+02  0.50528883227E+02  0.30000071056E+02 0.  0.
         12    1    1    2    0    0  0.18572240901E+02  0.32088238837E+02  0.16690733149E+02  0.40659116773E+02  0.00000000000E+00 0. -1.
         11    1    3    3    0    0 -0.95971397253E+01 -0.12935296713E+02 -0.95899452595E+01  0.18745507257E+02  0.51100000000E-03 0. -1.
        -11    1    3    3    0    0 -0.34789662759E+01 -0.26198316493E+01  0.77502431357E+01  0.88900502329E+01  0.51100000000E-03 0.  1.
         12    1    3    3    0    0 -0.54961348993E+01 -0.16533110474E+02 -0.14851031026E+02  0.22893325737E+02  0.00000000000E+00 0. -1.
</event>
<event>
 7    1  0.2755991E-011  0.5052886E+02  0.7816164E-02  0.1300439E+00
        -11   -1    0    0    0    0  0.00000000000E+00  0.00000000000E+00  0.45593999997E+02  0.45594000000E+02  0.51100000000E-03 0. -1.
         11   -1    0    0    0    0 -0.00000000000E+00 -0.00000000000E+00 -0.45593999997E+02  0.45594000000E+02  0.51100000000E-03 0.  1.
    9900012    2    1    2    0    0  0.39936524879E+02 -0.73159426972E+01 -0.21717388119E+01  0.50528862203E+02  0.30000007152E+02 0.  0.
         12    1    1    2    0    0 -0.39936524879E+02  0.73159426972E+01  0.21717388119E+01  0.40659137797E+02  0.00000000000E+00 0. -1.
         11    1    3    3    0    0  0.85147598272E+01  0.43665721592E+01  0.12657290591E+01  0.96524689924E+01  0.51100000000E-03 0. -1.
        -11    1    3    3    0    0  0.96763657397E+01  0.50089426752E+01  0.52839461268E+01  0.12109568431E+02  0.51100000000E-03 0.  1.
        -12    1    3    3    0    0  0.21745399312E+02 -0.16691457532E+02 -0.87214139979E+01  0.28766824779E+02  0.00000000000E+00 0.  1.
</event>
<event>
 7    1  0.2755991E-011  0.5052887E+02  0.7816164E-02  0.1300439E+00
        -11   -1    0    0    0    0  0.00000000000E+00  0.00000000000E+00  0.45593999997E+02  0.45594000000E+02  0.51100000000E-03 0. -1.
         11   -1    0    0    0    0 -0.00000000000E+00 -0.00000000000E+00 -0.45593999997E+02  0.45594000000E+02  0.51100000000E-03 0.  1.
    9900012    2    1    2    0    0 -0.14162724259E+02  0.36394539743E+02  0.11314586775E+02  0.50528866273E+02  0.30000019524E+02 0.  0.
         12    1    1    2    0    0  0.14162724259E+02 -0.36394539743E+02 -0.11314586775E+02  0.40659133727E+02  0.00000000000E+00 0. -1.
         11    1    3    3    0    0 -0.63843040378E+01 -0.32104393129E+00 -0.74500442637E+00  0.64356382053E+01  0.51100000000E-03 0. -1.
        -11    1    3    3    0    0 -0.62122911139E+01  0.15513263507E+02  0.15215581339E+02  0.22600173036E+02  0.51100000000E-03 0.  1.
         12    1    3    3    0    0 -0.15661291077E+01  0.21202320167E+02 -0.31559901377E+01  0.21493055032E+02  0.00000000000E+00 0. -1.
</event>
<event>
 7    1  0.2755991E-011  0.5052888E+02  0.7816164E-02  0.1300439E+00
        -11   -1    0    0    0    0  0.00000000000E+00  0.00000000000E+00  0.45593999997E+02  0.45594000000E+02  0.51100000000E-03 0. -1.
         11   -1    0    0    0    0 -0.00000000000E+00 -0.00000000000E+00 -0.45593999997E+02  0.45594000000E+02  0.51100000000E-03 0.  1.
    9900012    2    1    2    0    0 -0.36064639775E+02 -0.62618183987E+01  0.17700157608E+02  0.50528878131E+02  0.30000055568E+02 0.  0.
         12    1    1    2    0    0  0.36064639775E+02  0.62618183987E+01 -0.17700157608E+02  0.40659121869E+02  0.00000000000E+00 0. -1.
         11    1    3    3    0    0 -0.20011896879E+01 -0.25376492748E+01  0.43670356560E+01  0.54328100179E+01  0.51100000000E-03 0. -1.
        -11    1    3    3    0    0 -0.30847016452E+02 -0.10882667794E+02  0.16496305149E+02  0.36634668910E+02  0.51100000000E-03 0.  1.
         12    1    3    3    0    0 -0.32164336348E+01  0.71584986702E+01 -0.31631831966E+01  0.84613992030E+01  0.00000000000E+00 0. -1.
</event>
<event>
 7    1  0.2755991E-011  0.5052886E+02  0.7816164E-02  0.1300439E+00
        -11   -1    0    0    0    0  0.00000000000E+00  0.00000000000E+00  0.45593999997E+02  0.45594000000E+02  0.51100000000E-03 0. -1.
         11   -1    0    0    0    0 -0.00000000000E+00 -0.00000000000E+00 -0.45593999997E+02  0.45594000000E+02  0.51100000000E-03 0.  1.
    9900012    2    1    2    0    0 -0.22124589582E+02  0.33695824051E+02  0.53160036919E+01  0.50528856897E+02  0.29999991023E+02 0.  0.
         12    1    1    2    0    0  0.22124589582E+02 -0.33695824051E+02 -0.53160036919E+01  0.40659143103E+02  0.00000000000E+00 0. -1.
         11    1    3    3    0    0  0.36225327866E+01  0.76732162176E+01  0.65386502646E+01  0.10712373148E+02  0.51100000000E-03 0. -1.
        -11    1    3    3    0    0  0.32383655913E+00 -0.16369618620E+01 -0.68238401376E+00  0.18028206949E+01  0.51100000000E-03 0.  1.
        -12    1    3    3    0    0 -0.26070958927E+02  0.27659569696E+02 -0.54026255891E+00  0.38013663054E+02  0.00000000000E+00 0.  1.
</event>
<event>
 7    1  0.2755991E-011  0.5052886E+02  0.7816164E-02  0.1300439E+00
        -11   -1    0    0    0    0  0.00000000000E+00  0.00000000000E+00  0.45593999997E+02  0.45594000000E+02  0.51100000000E-03 0.  1.
         11   -1    0    0    0    0 -0.00000000000E+00 -0.00000000000E+00 -0.45593999997E+02  0.45594000000E+02  0.51100000000E-03 0. -1.
    9900012    2    1    2    0    0  0.25035933123E+02  0.13668984709E+02  0.28974581205E+02  0.50528862696E+02  0.30000008652E+02 0.  0.
         12    1    1    2    0    0 -0.25035933123E+02 -0.13668984709E+02 -0.28974581205E+02  0.40659137304E+02  0.00000000000E+00 0. -1.
         11    1    3    3    0    0  0.16848557914E+00  0.10090525874E+02  0.30300152306E+00  0.10096480079E+02  0.51100000000E-03 0. -1.
        -11    1    3    3    0    0 -0.16560493522E+01  0.10977704383E+00  0.25629510917E+01  0.30534028585E+01  0.51100000000E-03 0.  1.
        -12    1    3    3    0    0  0.26523496896E+02  0.34686817908E+01  0.26108628590E+02  0.37378979759E+02  0.00000000000E+00 0.  1.
</event>
<event>
 7    1  0.2755991E-011  0.5052886E+02  0.7816164E-02  0.1300439E+00
        -11   -1    0    0    0    0  0.00000000000E+00  0.00000000000E+00  0.45593999997E+02  0.45594000000E+02  0.51100000000E-03 0.  1.
         11   -1    0    0    0    0 -0.00000000000E+00 -0.00000000000E+00 -0.45593999997E+02  0.45594000000E+02  0.51100000000E-03 0. -1.
    9900012    2    1    2    0    0 -0.21706985254E+02 -0.14925871401E+01  0.34347405081E+02  0.50528864975E+02  0.30000015579E+02 0.  0.
         12    1    1    2    0    0  0.21706985254E+02  0.14925871401E+01 -0.34347405081E+02  0.40659135025E+02  0.00000000000E+00 0. -1.
         11    1    3    3    0    0 -0.12168035347E+02  0.20947101597E+01  0.35081000921E+01  0.12835718187E+02  0.51100000000E-03 0. -1.
        -11    1    3    3    0    0 -0.12156426054E+02 -0.89662634978E+01  0.17788850266E+02  0.23337004297E+02  0.51100000000E-03 0.  1.
         12    1    3    3    0    0  0.26174761481E+01  0.53789661980E+01  0.13050454723E+02  0.14356142491E+02  0.00000000000E+00 0. -1.
</event>
<event>
 7    1  0.2755991E-011  0.5052886E+02  0.7816164E-02  0.1300439E+00
        -11   -1    0    0    0    0  0.00000000000E+00  0.00000000000E+00  0.45593999997E+02  0.45594000000E+02  0.51100000000E-03 0.  1.
         11   -1    0    0    0    0 -0.00000000000E+00 -0.00000000000E+00 -0.45593999997E+02  0.45594000000E+02  0.51100000000E-03 0. -1.
    9900012    2    1    2    0    0  0.77632954942E+01  0.11481568526E+02  0.38223950452E+02  0.50528861287E+02  0.30000004367E+02 0.  0.
         12    1    1    2    0    0 -0.77632954942E+01 -0.11481568526E+02 -0.38223950452E+02  0.40659138713E+02  0.00000000000E+00 0. -1.
         11    1    3    3    0    0  0.50799450589E+01  0.67610435894E+01  0.72358795888E+01  0.11129937372E+02  0.51100000000E-03 0. -1.
        -11    1    3    3    0    0  0.11501795482E+02  0.62301920471E+01  0.96317357913E+01  0.16244289054E+02  0.51100000000E-03 0.  1.
        -12    1    3    3    0    0 -0.88184450471E+01 -0.15096671103E+01  0.21356335072E+02  0.23154634861E+02  0.00000000000E+00 0.  1.
</event>
<event>
 7    1  0.2755991E-011  0.5052886E+02  0.7816164E-02  0.1300439E+00
        -11   -1    0    0    0    0  0.00000000000E+00  0.00000000000E+00  0.45593999997E+02  0.45594000000E+02  0.51100000000E-03 0. -1.
         11   -1    0    0    0    0 -0.00000000000E+00 -0.00000000000E+00 -0.45593999997E+02  0.45594000000E+02  0.51100000000E-03 0.  1.
    9900012    2    1    2    0    0  0.40547282425E+02  0.38022342525E+00  0.29898614033E+01  0.50528856463E+02  0.29999989706E+02 0.  0.
         12    1    1    2    0    0 -0.40547282425E+02 -0.38022342525E+00 -0.29898614033E+01  0.40659143537E+02  0.00000000000E+00 0. -1.
         11    1    3    3    0    0  0.64276064223E+01 -0.60189816932E+01  0.27588754941E+01  0.92278740345E+01  0.51100000000E-03 0.  1.
        -11    1    3    3    0    0  0.18100008983E+02  0.10176094323E+02 -0.87712784762E+01  0.22541041396E+02  0.51100000000E-03 0. -1.
         12    1    3    3    0    0  0.16019667020E+02 -0.37768892042E+01  0.90022643855E+01  0.18759941033E+02  0.00000000000E+00 0. -1.
</event>
<event>
 7    1  0.2755991E-011  0.5052887E+02  0.7816164E-02  0.1300439E+00
        -11   -1    0    0    0    0  0.00000000000E+00  0.00000000000E+00  0.45593999997E+02  0.45594000000E+02  0.51100000000E-03 0.  1.
         11   -1    0    0    0    0 -0.00000000000E+00 -0.00000000000E+00 -0.45593999997E+02  0.45594000000E+02  0.51100000000E-03 0. -1.
    9900012    2    1    2    0    0  0.12617149814E+02 -0.12823258226E+02  0.36462814202E+02  0.50528865227E+02  0.30000016344E+02 0.  0.
         12    1    1    2    0    0 -0.12617149814E+02  0.12823258226E+02 -0.36462814202E+02  0.40659134773E+02  0.00000000000E+00 0. -1.
         11    1    3    3    0    0  0.19572188107E+01  0.24055202031E+01  0.17175864781E+02  0.17453583133E+02  0.51100000000E-03 0. -1.
        -11    1    3    3    0    0  0.83571023012E+01 -0.17619373119E+01  0.17267838841E+02  0.19264574754E+02  0.51100000000E-03 0.  1.
        -12    1    3    3    0    0  0.23028287025E+01 -0.13466841117E+02  0.20191105794E+01  0.13810707340E+02  0.00000000000E+00 0.  1.
</event>
<event>
 7    1  0.2755991E-011  0.5052886E+02  0.7816164E-02  0.1300439E+00
        -11   -1    0    0    0    0  0.00000000000E+00  0.00000000000E+00  0.45593999997E+02  0.45594000000E+02  0.51100000000E-03 0.  1.
         11   -1    0    0    0    0 -0.00000000000E+00 -0.00000000000E+00 -0.45593999997E+02  0.45594000000E+02  0.51100000000E-03 0. -1.
    9900012    2    1    2    0    0  0.21889802908E+02 -0.21412776151E+02  0.26748748642E+02  0.50528855792E+02  0.29999987664E+02 0.  0.
         12    1    1    2    0    0 -0.21889802908E+02  0.21412776151E+02 -0.26748748642E+02  0.40659144208E+02  0.00000000000E+00 0. -1.
         11    1    3    3    0    0  0.23788716567E+02 -0.23513975707E+02  0.17208860460E+02  0.37615887176E+02  0.51100000000E-03 0. -1.
        -11    1    3    3    0    0  0.30368097217E+01  0.18691503084E+01  0.53767970585E+01  0.64518123834E+01  0.51100000000E-03 0.  1.
        -12    1    3    3    0    0 -0.49357233811E+01  0.23204924752E+00  0.41630911237E+01  0.64611562318E+01  0.00000000000E+00 0.  1.
</event>
<event>
 7    1  0.2755991E-011  0.5052886E+02  0.7816164E-02  0.1300439E+00
        -11   -1    0    0    0    0  0.00000000000E+00  0.00000000000E+00  0.45593999997E+02  0.45594000000E+02  0.51100000000E-03 0.  1.
         11   -1    0    0    0    0 -0.00000000000E+00 -0.00000000000E+00 -0.45593999997E+02  0.45594000000E+02  0.51100000000E-03 0. -1.
    9900012    2    1    2    0    0  0.32781748627E+02  0.23776125528E+02 -0.36356668894E+01  0.50528864964E+02  0.30000015545E+02 0.  0.
         12    1    1    2    0    0 -0.32781748627E+02 -0.23776125528E+02  0.36356668894E+01  0.40659135036E+02  0.00000000000E+00 0. -1.
         11    1    3    3    0    0  0.62881744237E+01  0.35732358912E+01 -0.98136125908E+01  0.12190822149E+02  0.51100000000E-03 0. -1.
        -11    1    3    3    0    0  0.15905364837E+02  0.62674659952E+01 -0.47017390209E+01  0.17730428948E+02  0.51100000000E-03 0.  1.
        -12    1    3    3    0    0  0.10588209366E+02  0.13935423642E+02  0.10879684722E+02  0.20607613867E+02  0.00000000000E+00 0.  1.
</event>
<event>
 7    1  0.2755991E-011  0.5052886E+02  0.7816164E-02  0.1300439E+00
        -11   -1    0    0    0    0  0.00000000000E+00  0.00000000000E+00  0.45593999997E+02  0.45594000000E+02  0.51100000000E-03 0. -1.
         11   -1    0    0    0    0 -0.00000000000E+00 -0.00000000000E+00 -0.45593999997E+02  0.45594000000E+02  0.51100000000E-03 0.  1.
    9900012    2    1    2    0    0  0.99067485388E+01 -0.12822595023E+02 -0.37290790500E+02  0.50528859996E+02  0.30000000444E+02 0.  0.
         12    1    1    2    0    0 -0.99067485388E+01  0.12822595023E+02  0.37290790500E+02  0.40659140004E+02  0.00000000000E+00 0. -1.
         11    1    3    3    0    0  0.56107301322E+01  0.27418512450E+01 -0.50909525817E+01  0.80570366337E+01  0.51100000000E-03 0. -1.
        -11    1    3    3    0    0  0.68920575326E+01 -0.11186881555E+02 -0.38830088958E+01  0.13701260318E+02  0.51100000000E-03 0.  1.
        -12    1    3    3    0    0 -0.25960391260E+01 -0.43775647130E+01 -0.28316829023E+02  0.28770563044E+02  0.00000000000E+00 0.  1.
</event>
<event>
 7    1  0.2755991E-011  0.5052887E+02  0.7816164E-02  0.1300439E+00
        -11   -1    0    0    0    0  0.00000000000E+00  0.00000000000E+00  0.45593999997E+02  0.45594000000E+02  0.51100000000E-03 0.  1.
         11   -1    0    0    0    0 -0.00000000000E+00 -0.00000000000E+00 -0.45593999997E+02  0.45594000000E+02  0.51100000000E-03 0. -1.
    9900012    2    1    2    0    0  0.81511535500E+01 -0.29037807932E+02  0.27267735523E+02  0.50528868255E+02  0.30000025549E+02 0.  0.
         12    1    1    2    0    0 -0.81511535500E+01  0.29037807932E+02 -0.27267735523E+02  0.40659131745E+02  0.00000000000E+00 0. -1.
         11    1    3    3    0    0  0.40050033445E+01 -0.36742525867E+01 -0.36473475768E+01  0.65454815306E+01  0.51100000000E-03 0. -1.
        -11    1    3    3    0    0 -0.31287205083E+01 -0.65376523658E+01  0.19484052681E+02  0.20788412629E+02  0.51100000000E-03 0.  1.
         12    1    3    3    0    0  0.72748707138E+01 -0.18825902980E+02  0.11431030418E+02  0.23194974096E+02  0.00000000000E+00 0. -1.
</event>
<event>
 7    1  0.2755991E-011  0.5052887E+02  0.7816164E-02  0.1300439E+00
        -11   -1    0    0    0    0  0.00000000000E+00  0.00000000000E+00  0.45593999997E+02  0.45594000000E+02  0.51100000000E-03 0.  1.
         11   -1    0    0    0    0 -0.00000000000E+00 -0.00000000000E+00 -0.45593999997E+02  0.45594000000E+02  0.51100000000E-03 0. -1.
    9900012    2    1    2    0    0 -0.10558488783E+02 -0.17782571745E+02  0.35006619769E+02  0.50528868543E+02  0.30000026422E+02 0.  0.
         12    1    1    2    0    0  0.10558488783E+02  0.17782571745E+02 -0.35006619769E+02  0.40659131457E+02  0.00000000000E+00 0. -1.
         11    1    3    3    0    0 -0.89345884896E+01  0.37985743813E+01  0.13574628715E+02  0.16689115729E+02  0.51100000000E-03 0. -1.
        -11    1    3    3    0    0 -0.33415865300E+01 -0.83768459885E+01  0.17931476607E+02  0.20071761328E+02  0.51100000000E-03 0.  1.
         12    1    3    3    0    0  0.17176862366E+01 -0.13204300138E+02  0.35005144462E+01  0.13767991485E+02  0.00000000000E+00 0. -1.
</event>
<event>
 7    1  0.2755991E-011  0.5052887E+02  0.7816164E-02  0.1300439E+00
        -11   -1    0    0    0    0  0.00000000000E+00  0.00000000000E+00  0.45593999997E+02  0.45594000000E+02  0.51100000000E-03 0.  1.
         11   -1    0    0    0    0 -0.00000000000E+00 -0.00000000000E+00 -0.45593999997E+02  0.45594000000E+02  0.51100000000E-03 0. -1.
    9900012    2    1    2    0    0  0.30805957554E+02  0.11803978594E+02  0.23766031258E+02  0.50528866055E+02  0.30000018860E+02 0.  0.
         12    1    1    2    0    0 -0.30805957554E+02 -0.11803978594E+02 -0.23766031258E+02  0.40659133945E+02  0.00000000000E+00 0. -1.
         11    1    3    3    0    0  0.55348162645E+01  0.50714876941E+01  0.12809197720E+02  0.14846875934E+02  0.51100000000E-03 0. -1.
        -11    1    3    3    0    0  0.33916130393E+01  0.59046844652E+01  0.11961323050E+02  0.13763778079E+02  0.51100000000E-03 0.  1.
         12    1    3    3    0    0  0.21879528250E+02  0.82780643473E+00 -0.10044895121E+01  0.21918212042E+02  0.00000000000E+00 0. -1.
</event>
<event>
 7    1  0.2755991E-011  0.5052886E+02  0.7816164E-02  0.1300439E+00
        -11   -1    0    0    0    0  0.00000000000E+00  0.00000000000E+00  0.45593999997E+02  0.45594000000E+02  0.51100000000E-03 0.  1.
         11   -1    0    0    0    0 -0.00000000000E+00 -0.00000000000E+00 -0.45593999997E+02  0.45594000000E+02  0.51100000000E-03 0. -1.
    9900012    2    1    2    0    0 -0.16822587018E+02  0.35516428092E+02  0.10428307413E+02  0.50528859651E+02  0.29999999396E+02 0.  0.
         12    1    1    2    0    0  0.16822587018E+02 -0.35516428092E+02 -0.10428307413E+02  0.40659140349E+02  0.00000000000E+00 0. -1.
         11    1    3    3    0    0  0.33636036891E+01  0.82119963377E+01 -0.43328132428E+01  0.98754232561E+01  0.51100000000E-03 0. -1.
        -11    1    3    3    0    0 -0.58539118106E+01  0.53052614221E-01 -0.11939732179E+01  0.59746690596E+01  0.51100000000E-03 0.  1.
        -12    1    3    3    0    0 -0.14332278897E+02  0.27251379140E+02  0.15955093874E+02  0.34678767336E+02  0.00000000000E+00 0.  1.
</event>
<event>
 7    1  0.2755991E-011  0.5052886E+02  0.7816164E-02  0.1300439E+00
        -11   -1    0    0    0    0  0.00000000000E+00  0.00000000000E+00  0.45593999997E+02  0.45594000000E+02  0.51100000000E-03 0. -1.
         11   -1    0    0    0    0 -0.00000000000E+00 -0.00000000000E+00 -0.45593999997E+02  0.45594000000E+02  0.51100000000E-03 0.  1.
    9900012    2    1    2    0    0 -0.32872075540E+02 -0.10175804008E+02 -0.21657454517E+02  0.50528859900E+02  0.30000000151E+02 0.  0.
         12    1    1    2    0    0  0.32872075540E+02  0.10175804008E+02  0.21657454517E+02  0.40659140100E+02  0.00000000000E+00 0. -1.
         11    1    3    3    0    0 -0.19072516980E+02  0.22983318331E+01 -0.16942034599E+02  0.25613976063E+02  0.51100000000E-03 0. -1.
        -11    1    3    3    0    0 -0.11271630670E+02  0.43137372138E+00 -0.15235623153E+01  0.11382310118E+02  0.51100000000E-03 0.  1.
         12    1    3    3    0    0 -0.25279278913E+01 -0.12905509562E+02 -0.31918576028E+01  0.13532573718E+02  0.00000000000E+00 0. -1.
</event>
<event>
 7    1  0.2755991E-011  0.5052886E+02  0.7816164E-02  0.1300439E+00
        -11   -1    0    0    0    0  0.00000000000E+00  0.00000000000E+00  0.45593999997E+02  0.45594000000E+02  0.51100000000E-03 0. -1.
         11   -1    0    0    0    0 -0.00000000000E+00 -0.00000000000E+00 -0.45593999997E+02  0.45594000000E+02  0.51100000000E-03 0.  1.
    9900012    2    1    2    0    0 -0.10741847247E+02  0.21130773181E+02 -0.33034355883E+02  0.50528861715E+02  0.30000005667E+02 0.  0.
         12    1    1    2    0    0  0.10741847247E+02 -0.21130773181E+02  0.33034355883E+02  0.40659138285E+02  0.00000000000E+00 0. -1.
         11    1    3    3    0    0  0.66973317483E+01  0.72938467947E+01 -0.23755967964E+01  0.10183217272E+02  0.51100000000E-03 0. -1.
        -11    1    3    3    0    0 -0.24675814752E+01  0.13743060939E+00 -0.13635340670E+02  0.13857501974E+02  0.51100000000E-03 0.  1.
        -12    1    3    3    0    0 -0.14971597520E+02  0.13699495777E+02 -0.17023418417E+02  0.26488142468E+02  0.00000000000E+00 0.  1.
</event>
<event>
 7    1  0.2755991E-011  0.5052885E+02  0.7816164E-02  0.1300439E+00
        -11   -1    0    0    0    0  0.00000000000E+00  0.00000000000E+00  0.45593999997E+02  0.45594000000E+02  0.51100000000E-03 0. -1.
         11   -1    0    0    0    0 -0.00000000000E+00 -0.00000000000E+00 -0.45593999997E+02  0.45594000000E+02  0.51100000000E-03 0.  1.
    9900012    2    1    2    0    0  0.38727339963E+02 -0.57637691695E+01  0.10960766802E+02  0.50528852142E+02  0.29999976571E+02 0.  0.
         12    1    1    2    0    0 -0.38727339963E+02  0.57637691695E+01 -0.10960766802E+02  0.40659147858E+02  0.00000000000E+00 0. -1.
         11    1    3    3    0    0  0.82411419241E+01 -0.50522442734E+00  0.12887972859E+02  0.15305930766E+02  0.51100000000E-03 0. -1.
        -11    1    3    3    0    0  0.31567596198E+02 -0.51954070282E+01  0.10964798192E+01  0.32011055155E+02  0.51100000000E-03 0.  1.
        -12    1    3    3    0    0 -0.10813981591E+01 -0.63137713948E-01 -0.30236858754E+01  0.32118662211E+01  0.00000000000E+00 0.  1.
</event>
<event>
 7    1  0.2755991E-011  0.5052890E+02  0.7816164E-02  0.1300439E+00
        -11   -1    0    0    0    0  0.00000000000E+00  0.00000000000E+00  0.45593999997E+02  0.45594000000E+02  0.51100000000E-03 0. -1.
         11   -1    0    0    0    0 -0.00000000000E+00 -0.00000000000E+00 -0.45593999997E+02  0.45594000000E+02  0.51100000000E-03 0.  1.
    9900012    2    1    2    0    0  0.19830407400E+02 -0.53307866649E+00 -0.35491308988E+02  0.50528902074E+02  0.30000128343E+02 0.  0.
         12    1    1    2    0    0 -0.19830407400E+02  0.53307866649E+00  0.35491308988E+02  0.40659097926E+02  0.00000000000E+00 0. -1.
         11    1    3    3    0    0  0.29223764518E+01  0.34867829022E+01  0.15043973881E+01  0.47917795124E+01  0.51100000000E-03 0. -1.
        -11    1    3    3    0    0  0.80447466594E+01  0.28945554163E+01 -0.17297436868E+01  0.87228672668E+01  0.51100000000E-03 0.  1.
        -12    1    3    3    0    0  0.88632842892E+01 -0.69144169850E+01 -0.35265962689E+02  0.37014255295E+02  0.00000000000E+00 0.  1.
</event>
<event>
 7    1  0.2755991E-011  0.5052890E+02  0.7816164E-02  0.1300439E+00
        -11   -1    0    0    0    0  0.00000000000E+00  0.00000000000E+00  0.45593999997E+02  0.45594000000E+02  0.51100000000E-03 0.  1.
         11   -1    0    0    0    0 -0.00000000000E+00 -0.00000000000E+00 -0.45593999997E+02  0.45594000000E+02  0.51100000000E-03 0. -1.
    9900012    2    1    2    0    0 -0.14795948732E+01 -0.37680149736E+02  0.15204589570E+02  0.50528899800E+02  0.30000121431E+02 0.  0.
         12    1    1    2    0    0  0.14795948732E+01  0.37680149736E+02 -0.15204589570E+02  0.40659100200E+02  0.00000000000E+00 0. -1.
         11    1    3    3    0    0  0.94422876390E+01 -0.22309525148E+02  0.48397743438E+01  0.24704151962E+02  0.51100000000E-03 0. -1.
        -11    1    3    3    0    0 -0.17723039162E+01 -0.13021717999E+02  0.97402760484E+01  0.16357847615E+02  0.51100000000E-03 0.  1.
        -12    1    3    3    0    0 -0.91495785960E+01 -0.23489065881E+01  0.62453917828E+00  0.94669002229E+01  0.00000000000E+00 0.  1.
</event>
<event>
 7    1  0.2755991E-011  0.5052885E+02  0.7816164E-02  0.1300439E+00
        -11   -1    0    0    0    0  0.00000000000E+00  0.00000000000E+00  0.45593999997E+02  0.45594000000E+02  0.51100000000E-03 0.  1.
         11   -1    0    0    0    0 -0.00000000000E+00 -0.00000000000E+00 -0.45593999997E+02  0.45594000000E+02  0.51100000000E-03 0. -1.
    9900012    2    1    2    0    0 -0.18852436146E+01 -0.35400619030E+02  0.19910000410E+02  0.50528854811E+02  0.29999984683E+02 0.  0.
         12    1    1    2    0    0  0.18852436146E+01  0.35400619030E+02 -0.19910000410E+02  0.40659145189E+02  0.00000000000E+00 0. -1.
         11    1    3    3    0    0  0.21805034173E+01 -0.10570779755E+02  0.71293576945E+01  0.12935367068E+02  0.51100000000E-03 0. -1.
        -11    1    3    3    0    0 -0.71664994500E+01 -0.26976382800E+02  0.16394101682E+02  0.32370519204E+02  0.51100000000E-03 0.  1.
         12    1    3    3    0    0  0.31007524181E+01  0.21465435246E+01 -0.36134589664E+01  0.52229685394E+01  0.00000000000E+00 0. -1.
</event>
<event>
 7    1  0.2755991E-011  0.5052883E+02  0.7816164E-02  0.1300439E+00
        -11   -1    0    0    0    0  0.00000000000E+00  0.00000000000E+00  0.45593999997E+02  0.45594000000E+02  0.51100000000E-03 0.  1.
         11   -1    0    0    0    0 -0.00000000000E+00 -0.00000000000E+00 -0.45593999997E+02  0.45594000000E+02  0.51100000000E-03 0. -1.
    9900012    2    1    2    0    0  0.10681084619E+02  0.19495488828E+02  0.34044207661E+02  0.50528834631E+02  0.29999923343E+02 0.  0.
         12    1    1    2    0    0 -0.10681084619E+02 -0.19495488828E+02 -0.34044207661E+02  0.40659165369E+02  0.00000000000E+00 0. -1.
         11    1    3    3    0    0  0.26007659669E+01 -0.43648080075E+01 -0.12773928423E+01  0.52390137709E+01  0.51100000000E-03 0. -1.
        -11    1    3    3    0    0  0.37305657952E+01  0.46885063065E+00  0.17629683968E+01  0.41527099459E+01  0.51100000000E-03 0.  1.
        -12    1    3    3    0    0  0.43497528571E+01  0.23391446205E+02  0.33558632106E+02  0.41137110914E+02  0.00000000000E+00 0.  1.
</event>
<event>
 7    1  0.2755991E-011  0.5052886E+02  0.7816164E-02  0.1300439E+00
        -11   -1    0    0    0    0  0.00000000000E+00  0.00000000000E+00  0.45593999997E+02  0.45594000000E+02  0.51100000000E-03 0. -1.
         11   -1    0    0    0    0 -0.00000000000E+00 -0.00000000000E+00 -0.45593999997E+02  0.45594000000E+02  0.51100000000E-03 0.  1.
    9900012    2    1    2    0    0  0.34121701770E+02  0.13370161690E+02 -0.17610051429E+02  0.50528859987E+02  0.30000000417E+02 0.  0.
         12    1    1    2    0    0 -0.34121701770E+02 -0.13370161690E+02  0.17610051429E+02  0.40659140013E+02  0.00000000000E+00 0. -1.
         11    1    3    3    0    0  0.34456103642E+01 -0.55701296322E+01 -0.37435391816E+01  0.75440480358E+01  0.51100000000E-03 0. -1.
        -11    1    3    3    0    0  0.22945658196E+02  0.83873216866E+01 -0.16709118776E+02  0.29598058140E+02  0.51100000000E-03 0.  1.
         12    1    3    3    0    0  0.77304332099E+01  0.10552969635E+02  0.28426065293E+01  0.13386753812E+02  0.00000000000E+00 0. -1.
</event>
<event>
 7    1  0.2755991E-011  0.5052886E+02  0.7816164E-02  0.1300439E+00
        -11   -1    0    0    0    0  0.00000000000E+00  0.00000000000E+00  0.45593999997E+02  0.45594000000E+02  0.51100000000E-03 0.  1.
         11   -1    0    0    0    0 -0.00000000000E+00 -0.00000000000E+00 -0.45593999997E+02  0.45594000000E+02  0.51100000000E-03 0. -1.
    9900012    2    1    2    0    0  0.93864998891E+01 -0.35646084493E+02  0.17158547929E+02  0.50528862197E+02  0.30000007133E+02 0.  0.
         12    1    1    2    0    0 -0.93864998891E+01  0.35646084493E+02 -0.17158547929E+02  0.40659137803E+02  0.00000000000E+00 0. -1.
         11    1    3    3    0    0  0.44104616546E+01 -0.41878196300E+01 -0.25676035646E+01  0.66017114135E+01  0.51100000000E-03 0. -1.
        -11    1    3    3    0    0  0.13100105913E+02 -0.22000809361E+02  0.80383617701E+01  0.26837728064E+02  0.51100000000E-03 0.  1.
        -12    1    3    3    0    0 -0.81240676782E+01 -0.94574555026E+01  0.11687789724E+02  0.17089422719E+02  0.00000000000E+00 0.  1.
</event>
<event>
 7    1  0.2755991E-011  0.5052885E+02  0.7816164E-02  0.1300439E+00
        -11   -1    0    0    0    0  0.00000000000E+00  0.00000000000E+00  0.45593999997E+02  0.45594000000E+02  0.51100000000E-03 0. -1.
         11   -1    0    0    0    0 -0.00000000000E+00 -0.00000000000E+00 -0.45593999997E+02  0.45594000000E+02  0.51100000000E-03 0.  1.
    9900012    2    1    2    0    0 -0.43173029437E+01  0.29344440592E+02 -0.27810629570E+02  0.50528850778E+02  0.29999972424E+02 0.  0.
         12    1    1    2    0    0  0.43173029437E+01 -0.29344440592E+02  0.27810629570E+02  0.40659149222E+02  0.00000000000E+00 0. -1.
         11    1    3    3    0    0  0.65508569578E+01  0.16268187081E+02 -0.61653232912E+01  0.18589751191E+02  0.51100000000E-03 0.  1.
        -11    1    3    3    0    0  0.37145101246E+01  0.60626124715E+01 -0.47865663206E+01  0.85711185296E+01  0.51100000000E-03 0. -1.
         12    1    3    3    0    0 -0.14582670026E+02  0.70136410396E+01 -0.16858739959E+02  0.23367981058E+02  0.00000000000E+00 0. -1.
</event>
<event>
 7    1  0.2755991E-011  0.5052886E+02  0.7816164E-02  0.1300439E+00
        -11   -1    0    0    0    0  0.00000000000E+00  0.00000000000E+00  0.45593999997E+02  0.45594000000E+02  0.51100000000E-03 0.  1.
         11   -1    0    0    0    0 -0.00000000000E+00 -0.00000000000E+00 -0.45593999997E+02  0.45594000000E+02  0.51100000000E-03 0. -1.
    9900012    2    1    2    0    0  0.13426586181E+02  0.31977216227E+02  0.21221444853E+02  0.50528864548E+02  0.30000014279E+02 0.  0.
         12    1    1    2    0    0 -0.13426586181E+02 -0.31977216227E+02 -0.21221444853E+02  0.40659135452E+02  0.00000000000E+00 0. -1.
         11    1    3    3    0    0  0.16794617224E+02  0.18267246465E+02  0.33523244152E+01  0.25039759192E+02  0.51100000000E-03 0. -1.
        -11    1    3    3    0    0 -0.25869543174E+01  0.44261729398E+01 -0.23103373695E+00  0.51319310578E+01  0.51100000000E-03 0.  1.
        -12    1    3    3    0    0 -0.78107672512E+00  0.92837968216E+01  0.18100154174E+02  0.20357174298E+02  0.00000000000E+00 0.  1.
</event>
<event>
 7    1  0.2755991E-011  0.5052888E+02  0.7816164E-02  0.1300439E+00
        -11   -1    0    0    0    0  0.00000000000E+00  0.00000000000E+00  0.45593999997E+02  0.45594000000E+02  0.51100000000E-03 0. -1.
         11   -1    0    0    0    0 -0.00000000000E+00 -0.00000000000E+00 -0.45593999997E+02  0.45594000000E+02  0.51100000000E-03 0.  1.
    9900012    2    1    2    0    0  0.31959174659E+02 -0.13937558321E+01 -0.25096473895E+02  0.50528875536E+02  0.30000047680E+02 0.  0.
         12    1    1    2    0    0 -0.31959174659E+02  0.13937558321E+01  0.25096473895E+02  0.40659124464E+02  0.00000000000E+00 0. -1.
         11    1    3    3    0    0 -0.59591419169E+00 -0.36431580559E+01 -0.15565447150E+01  0.40063132747E+01  0.51100000000E-03 0. -1.
        -11    1    3    3    0    0  0.18209043646E+01 -0.71130137023E+01 -0.79145170859E+01  0.10795843533E+02  0.51100000000E-03 0.  1.
         12    1    3    3    0    0  0.30734184486E+02  0.93624159261E+01 -0.15625412094E+02  0.35726718728E+02  0.00000000000E+00 0. -1.
</event>
<event>
 7    1  0.2755991E-011  0.5052888E+02  0.7816164E-02  0.1300439E+00
        -11   -1    0    0    0    0  0.00000000000E+00  0.00000000000E+00  0.45593999997E+02  0.45594000000E+02  0.51100000000E-03 0.  1.
         11   -1    0    0    0    0 -0.00000000000E+00 -0.00000000000E+00 -0.45593999997E+02  0.45594000000E+02  0.51100000000E-03 0. -1.
    9900012    2    1    2    0    0  0.29503519229E+02 -0.17847099514E+02  0.21545015528E+02  0.50528876767E+02  0.30000051420E+02 0.  0.
         12    1    1    2    0    0 -0.29503519229E+02  0.17847099514E+02 -0.21545015528E+02  0.40659123233E+02  0.00000000000E+00 0. -1.
         11    1    3    3    0    0  0.51853867996E+00 -0.40796065867E+01  0.59360415052E+01  0.72214029992E+01  0.51100000000E-03 0. -1.
        -11    1    3    3    0    0 -0.11263080854E+01 -0.84573722445E+01  0.82284327576E+01  0.11853388591E+02  0.51100000000E-03 0.  1.
        -12    1    3    3    0    0  0.30111288635E+02 -0.53101206833E+01  0.73805412656E+01  0.31454085176E+02  0.00000000000E+00 0.  1.
</event>
<event>
 7    1  0.2755991E-011  0.5052886E+02  0.7816164E-02  0.1300439E+00
        -11   -1    0    0    0    0  0.00000000000E+00  0.00000000000E+00  0.45593999997E+02  0.45594000000E+02  0.51100000000E-03 0. -1.
         11   -1    0    0    0    0 -0.00000000000E+00 -0.00000000000E+00 -0.45593999997E+02  0.45594000000E+02  0.51100000000E-03 0.  1.
    9900012    2    1    2    0    0 -0.20883693921E+02 -0.34167843796E+02 -0.70424300759E+01  0.50528855360E+02  0.29999986353E+02 0.  0.
         12    1    1    2    0    0  0.20883693921E+02  0.34167843796E+02  0.70424300759E+01  0.40659144640E+02  0.00000000000E+00 0. -1.
         11    1    3    3    0    0 -0.13280990540E+02 -0.64514573005E+01 -0.63871766543E+01  0.16087325349E+02  0.51100000000E-03 0. -1.
        -11    1    3    3    0    0  0.18669076658E+01  0.12800201999E+01  0.29580269232E+01  0.37247442173E+01  0.51100000000E-03 0.  1.
        -12    1    3    3    0    0 -0.94696110473E+01 -0.28996406695E+02 -0.36132803448E+01  0.30716785794E+02  0.00000000000E+00 0.  1.
</event>
<event>
 7    1  0.2755991E-011  0.5052885E+02  0.7816164E-02  0.1300439E+00
        -11   -1    0    0    0    0  0.00000000000E+00  0.00000000000E+00  0.45593999997E+02  0.45594000000E+02  0.51100000000E-03 0.  1.
         11   -1    0    0    0    0 -0.00000000000E+00 -0.00000000000E+00 -0.45593999997E+02  0.45594000000E+02  0.51100000000E-03 0. -1.
    9900012    2    1    2    0    0 -0.14616224201E+02  0.33465649114E+02  0.17876876092E+02  0.50528851223E+02  0.29999973776E+02 0.  0.
         12    1    1    2    0    0  0.14616224201E+02 -0.33465649114E+02 -0.17876876092E+02  0.40659148777E+02  0.00000000000E+00 0. -1.
         11    1    3    3    0    0 -0.95758956999E+00  0.16541775764E+02 -0.32580967512E+01  0.16886755696E+02  0.51100000000E-03 0. -1.
        -11    1    3    3    0    0  0.20604175602E+01  0.33598138056E+01  0.84174108507E+01  0.92944324744E+01  0.51100000000E-03 0.  1.
         12    1    3    3    0    0 -0.15719052191E+02  0.13564059544E+02  0.12717561993E+02  0.24347663053E+02  0.00000000000E+00 0. -1.
</event>
<event>
 7    1  0.2755991E-011  0.5052885E+02  0.7816164E-02  0.1300439E+00
        -11   -1    0    0    0    0  0.00000000000E+00  0.00000000000E+00  0.45593999997E+02  0.45594000000E+02  0.51100000000E-03 0.  1.
         11   -1    0    0    0    0 -0.00000000000E+00 -0.00000000000E+00 -0.45593999997E+02  0.45594000000E+02  0.51100000000E-03 0. -1.
    9900012    2    1    2    0    0  0.10834281545E+02  0.15890517764E+02  0.35822840705E+02  0.50528854318E+02  0.29999983186E+02 0.  0.
         12    1    1    2    0    0 -0.10834281545E+02 -0.15890517764E+02 -0.35822840705E+02  0.40659145682E+02  0.00000000000E+00 0. -1.
         11    1    3    3    0    0  0.74561209929E+01 -0.48574266516E+01  0.13378567755E+02  0.16067806613E+02  0.51100000000E-03 0. -1.
        -11    1    3    3    0    0  0.64103294552E+01  0.44110008818E+01  0.13522108230E+02  0.15601175076E+02  0.51100000000E-03 0.  1.
         12    1    3    3    0    0 -0.30321689036E+01  0.16336943533E+02  0.89221647201E+01  0.18859872629E+02  0.00000000000E+00 0. -1.
</event>
<event>
 7    1  0.2755991E-011  0.5052886E+02  0.7816164E-02  0.1300439E+00
        -11   -1    0    0    0    0  0.00000000000E+00  0.00000000000E+00  0.45593999997E+02  0.45594000000E+02  0.51100000000E-03 0.  1.
         11   -1    0    0    0    0 -0.00000000000E+00 -0.00000000000E+00 -0.45593999997E+02  0.45594000000E+02  0.51100000000E-03 0. -1.
    9900012    2    1    2    0    0 -0.10839804550E+02  0.27861217763E+01  0.39088387722E+02  0.50528857216E+02  0.29999991993E+02 0.  0.
         12    1    1    2    0    0  0.10839804550E+02 -0.27861217763E+01 -0.39088387722E+02  0.40659142784E+02  0.00000000000E+00 0. -1.
         11    1    3    3    0    0 -0.13867281511E+01  0.35295782415E+01  0.39864435756E+01  0.55020605386E+01  0.51100000000E-03 0. -1.
        -11    1    3    3    0    0 -0.43152013205E+00  0.10640915747E+02  0.53491806312E+01  0.11917593350E+02  0.51100000000E-03 0.  1.
         12    1    3    3    0    0 -0.90215562674E+01 -0.11384372213E+02  0.29752763515E+02  0.33109203327E+02  0.00000000000E+00 0. -1.
</event>
<event>
 7    1  0.2755991E-011  0.5052887E+02  0.7816164E-02  0.1300439E+00
        -11   -1    0    0    0    0  0.00000000000E+00  0.00000000000E+00  0.45593999997E+02  0.45594000000E+02  0.51100000000E-03 0.  1.
         11   -1    0    0    0    0 -0.00000000000E+00 -0.00000000000E+00 -0.45593999997E+02  0.45594000000E+02  0.51100000000E-03 0. -1.
    9900012    2    1    2    0    0  0.18943290178E+02 -0.35943181960E+02  0.15504833357E+01  0.50528873463E+02  0.30000041379E+02 0.  0.
         12    1    1    2    0    0 -0.18943290178E+02  0.35943181960E+02 -0.15504833357E+01  0.40659126537E+02  0.00000000000E+00 0. -1.
         11    1    3    3    0    0 -0.17015116754E+01  0.24557894153E+00 -0.35162036695E+01  0.39139672334E+01  0.51100000000E-03 0. -1.
        -11    1    3    3    0    0  0.11032719844E+02 -0.12371846381E+02  0.11454348129E+02  0.20149083884E+02  0.51100000000E-03 0.  1.
         12    1    3    3    0    0  0.96120820101E+01 -0.23816914520E+02 -0.63876611240E+01  0.26465822346E+02  0.00000000000E+00 0. -1.
</event>
<event>
 7    1  0.2755991E-011  0.5052887E+02  0.7816164E-02  0.1300439E+00
        -11   -1    0    0    0    0  0.00000000000E+00  0.00000000000E+00  0.45593999997E+02  0.45594000000E+02  0.51100000000E-03 0.  1.
         11   -1    0    0    0    0 -0.00000000000E+00 -0.00000000000E+00 -0.45593999997E+02  0.45594000000E+02  0.51100000000E-03 0. -1.
    9900012    2    1    2    0    0 -0.33941881600E+02  0.19366015693E+02  0.11228144043E+02  0.50528866844E+02  0.30000021258E+02 0.  0.
         12    1    1    2    0    0  0.33941881600E+02 -0.19366015693E+02 -0.11228144043E+02  0.40659133156E+02  0.00000000000E+00 0. -1.
         11    1    3    3    0    0 -0.27638803328E+02  0.25670767718E+02  0.77247396179E+01  0.38504069487E+02  0.51100000000E-03 0. -1.
        -11    1    3    3    0    0 -0.37098218398E+01  0.77515302737E+00  0.21721448814E+01  0.43682781443E+01  0.51100000000E-03 0.  1.
        -12    1    3    3    0    0 -0.25932564320E+01 -0.70799050524E+01  0.13312595436E+01  0.76565192121E+01  0.00000000000E+00 0.  1.
</event>
<event>
 7    1  0.2832646E-011  0.5052886E+02  0.7816164E-02  0.1300439E+00
        -11   -1    0    0    0    0  0.00000000000E+00  0.00000000000E+00  0.45593999997E+02  0.45594000000E+02  0.51100000000E-03 0. -1.
         11   -1    0    0    0    0 -0.00000000000E+00 -0.00000000000E+00 -0.45593999997E+02  0.45594000000E+02  0.51100000000E-03 0.  1.
    9900012    2    1    2    0    0  0.15093562041E+02 -0.17915474171E+02 -0.33232299239E+02  0.50528861512E+02  0.30000005051E+02 0.  0.
         12    1    1    2    0    0 -0.15093562041E+02  0.17915474171E+02  0.33232299239E+02  0.40659138488E+02  0.00000000000E+00 0. -1.
         11    1    3    3    0    0 -0.11805577234E+01 -0.36039666742E+01  0.17007704639E+01  0.41563099932E+01  0.51100000000E-03 0. -1.
        -11    1    3    3    0    0  0.18838849988E+01 -0.14435647389E+02 -0.10262970829E+02  0.17811948482E+02  0.51100000000E-03 0.  1.
        -12    1    3    3    0    0  0.14390234766E+02  0.12413989218E+00 -0.24670098874E+02  0.28560603036E+02  0.00000000000E+00 0.  1.
</event>
<event>
 7    1  0.2755991E-011  0.5052885E+02  0.7816164E-02  0.1300439E+00
        -11   -1    0    0    0    0  0.00000000000E+00  0.00000000000E+00  0.45593999997E+02  0.45594000000E+02  0.51100000000E-03 0.  1.
         11   -1    0    0    0    0 -0.00000000000E+00 -0.00000000000E+00 -0.45593999997E+02  0.45594000000E+02  0.51100000000E-03 0. -1.
    9900012    2    1    2    0    0  0.44626233495E+01  0.19805818111E+02  0.35227563420E+02  0.50528847737E+02  0.29999963182E+02 0.  0.
         12    1    1    2    0    0 -0.44626233495E+01 -0.19805818111E+02 -0.35227563420E+02  0.40659152263E+02  0.00000000000E+00 0. -1.
         11    1    3    3    0    0 -0.20727807436E+01  0.90486528774E+01  0.27950396832E+02  0.29451642097E+02  0.51100000000E-03 0. -1.
        -11    1    3    3    0    0  0.11076181029E+02  0.55846675122E+01  0.68759231596E+01  0.14182687227E+02  0.51100000000E-03 0.  1.
        -12    1    3    3    0    0 -0.45407769361E+01  0.51724977217E+01  0.40124342864E+00  0.68945184135E+01  0.00000000000E+00 0.  1.
</event>
<event>
 7    1  0.2755991E-011  0.5052886E+02  0.7816164E-02  0.1300439E+00
        -11   -1    0    0    0    0  0.00000000000E+00  0.00000000000E+00  0.45593999997E+02  0.45594000000E+02  0.51100000000E-03 0.  1.
         11   -1    0    0    0    0 -0.00000000000E+00 -0.00000000000E+00 -0.45593999997E+02  0.45594000000E+02  0.51100000000E-03 0. -1.
    9900012    2    1    2    0    0  0.69480431928E+01  0.25732321907E+01  0.39978354968E+02  0.50528859649E+02  0.29999999389E+02 0.  0.
         12    1    1    2    0    0 -0.69480431928E+01 -0.25732321907E+01 -0.39978354968E+02  0.40659140351E+02  0.00000000000E+00 0. -1.
         11    1    3    3    0    0  0.41452955454E+00 -0.53504877028E+01  0.13112174723E+02  0.14167874916E+02  0.51100000000E-03 0. -1.
        -11    1    3    3    0    0  0.13578113895E+02  0.10053672121E+02  0.16235991973E+02  0.23431793267E+02  0.51100000000E-03 0.  1.
         12    1    3    3    0    0 -0.70446002572E+01 -0.21299522279E+01  0.10630188272E+02  0.12929191467E+02  0.00000000000E+00 0. -1.
</event>
<event>
 7    1  0.2755991E-011  0.5052886E+02  0.7816164E-02  0.1300439E+00
        -11   -1    0    0    0    0  0.00000000000E+00  0.00000000000E+00  0.45593999997E+02  0.45594000000E+02  0.51100000000E-03 0. -1.
         11   -1    0    0    0    0 -0.00000000000E+00 -0.00000000000E+00 -0.45593999997E+02  0.45594000000E+02  0.51100000000E-03 0.  1.
    9900012    2    1    2    0    0  0.34160012528E+02 -0.68271779870E+01 -0.20967808347E+02  0.50528858321E+02  0.29999995353E+02 0.  0.
         12    1    1    2    0    0 -0.34160012528E+02  0.68271779870E+01  0.20967808347E+02  0.40659141679E+02  0.00000000000E+00 0. -1.
         11    1    3    3    0    0  0.54770776183E+01 -0.84877236811E+00  0.13292774581E+01  0.56996291626E+01  0.51100000000E-03 0. -1.
        -11    1    3    3    0    0 -0.45054528903E+00 -0.85617816525E+01 -0.96341923084E+00  0.86275879015E+01  0.51100000000E-03 0.  1.
        -12    1    3    3    0    0  0.29133480198E+02  0.25833760336E+01 -0.21333666575E+02  0.36201641257E+02  0.00000000000E+00 0.  1.
</event>
<event>
 7    1  0.2755991E-011  0.5052887E+02  0.7816164E-02  0.1300439E+00
        -11   -1    0    0    0    0  0.00000000000E+00  0.00000000000E+00  0.45593999997E+02  0.45594000000E+02  0.51100000000E-03 0. -1.
         11   -1    0    0    0    0 -0.00000000000E+00 -0.00000000000E+00 -0.45593999997E+02  0.45594000000E+02  0.51100000000E-03 0.  1.
    9900012    2    1    2    0    0 -0.19151995525E+02  0.16542088084E+02 -0.31823346879E+02  0.50528867971E+02  0.30000024686E+02 0.  0.
         12    1    1    2    0    0  0.19151995525E+02 -0.16542088084E+02  0.31823346879E+02  0.40659132029E+02  0.00000000000E+00 0. -1.
         11    1    3    3    0    0 -0.90673011910E+01  0.90687471698E+01 -0.40419941787E+01  0.13446034483E+02  0.51100000000E-03 0. -1.
        -11    1    3    3    0    0 -0.53709812786E+01  0.14574219824E+02 -0.14179263980E+02  0.21031092474E+02  0.51100000000E-03 0.  1.
         12    1    3    3    0    0 -0.47137130550E+01 -0.71008789095E+01 -0.13602088720E+02  0.16051741015E+02  0.00000000000E+00 0. -1.
</event>
<event>
 7    1  0.2755991E-011  0.5052887E+02  0.7816164E-02  0.1300439E+00
        -11   -1    0    0    0    0  0.00000000000E+00  0.00000000000E+00  0.45593999997E+02  0.45594000000E+02  0.51100000000E-03 0.  1.
         11   -1    0    0    0    0 -0.00000000000E+00 -0.00000000000E+00 -0.45593999997E+02  0.45594000000E+02  0.51100000000E-03 0. -1.
    9900012    2    1    2    0    0 -0.22741350946E+02  0.32119371064E+02  0.10214801206E+02  0.50528865675E+02  0.30000017705E+02 0.  0.
         12    1    1    2    0    0  0.22741350946E+02 -0.32119371064E+02 -0.10214801206E+02  0.40659134325E+02  0.00000000000E+00 0. -1.
         11    1    3    3    0    0 -0.18197541293E+02  0.91843487729E+01  0.90639225426E+01  0.22308237573E+02  0.51100000000E-03 0. -1.
        -11    1    3    3    0    0 -0.75932964542E+01  0.15644842050E+02  0.66229513300E+01  0.18608673204E+02  0.51100000000E-03 0.  1.
        -12    1    3    3    0    0  0.30494868010E+01  0.72901802410E+01 -0.54720726667E+01  0.96119548982E+01  0.00000000000E+00 0.  1.
</event>
<event>
 7    1  0.2755991E-011  0.5052880E+02  0.7816164E-02  0.1300439E+00
        -11   -1    0    0    0    0  0.00000000000E+00  0.00000000000E+00  0.45593999997E+02  0.45594000000E+02  0.51100000000E-03 0.  1.
         11   -1    0    0    0    0 -0.00000000000E+00 -0.00000000000E+00 -0.45593999997E+02  0.45594000000E+02  0.51100000000E-03 0. -1.
    9900012    2    1    2    0    0  0.15932385193E+02 -0.14820086561E+02  0.34346687655E+02  0.50528796657E+02  0.29999807918E+02 0.  0.
         12    1    1    2    0    0 -0.15932385193E+02  0.14820086561E+02 -0.34346687655E+02  0.40659203343E+02  0.00000000000E+00 0. -1.
         11    1    3    3    0    0 -0.39188018133E+01 -0.65847255582E+01  0.15352044808E+02  0.17158114651E+02  0.51100000000E-03 0. -1.
        -11    1    3    3    0    0  0.37053563666E+01 -0.85469913438E+01  0.13318988010E+02  0.16253497122E+02  0.51100000000E-03 0.  1.
         12    1    3    3    0    0  0.16145830639E+02  0.31163034100E+00  0.56756548374E+01  0.17117184884E+02  0.00000000000E+00 0. -1.
</event>
<event>
 7    1  0.2755991E-011  0.5052886E+02  0.7816164E-02  0.1300439E+00
        -11   -1    0    0    0    0  0.00000000000E+00  0.00000000000E+00  0.45593999997E+02  0.45594000000E+02  0.51100000000E-03 0. -1.
         11   -1    0    0    0    0 -0.00000000000E+00 -0.00000000000E+00 -0.45593999997E+02  0.45594000000E+02  0.51100000000E-03 0.  1.
    9900012    2    1    2    0    0 -0.11044464096E+02  0.27551595311E+02 -0.27786592681E+02  0.50528864197E+02  0.30000013214E+02 0.  0.
         12    1    1    2    0    0  0.11044464096E+02 -0.27551595311E+02  0.27786592681E+02  0.40659135803E+02  0.00000000000E+00 0. -1.
         11    1    3    3    0    0  0.26765592980E+01  0.48728345363E+01 -0.40438869848E+00  0.55742278904E+01  0.51100000000E-03 0. -1.
        -11    1    3    3    0    0 -0.35877762637E+01  0.53409431392E+01  0.40879758890E+01  0.76229495121E+01  0.51100000000E-03 0.  1.
         12    1    3    3    0    0 -0.10133247131E+02  0.17337817636E+02 -0.31470179872E+02  0.37331686795E+02  0.00000000000E+00 0. -1.
</event>
<event>
 7    1  0.2755991E-011  0.5052878E+02  0.7816164E-02  0.1300439E+00
        -11   -1    0    0    0    0  0.00000000000E+00  0.00000000000E+00  0.45593999997E+02  0.45594000000E+02  0.51100000000E-03 0.  1.
         11   -1    0    0    0    0 -0.00000000000E+00 -0.00000000000E+00 -0.45593999997E+02  0.45594000000E+02  0.51100000000E-03 0. -1.
    9900012    2    1    2    0    0  0.23011765582E+02 -0.23714738266E+02  0.23690538748E+02  0.50528784656E+02  0.29999771440E+02 0.  0.
         12    1    1    2    0    0 -0.23011765582E+02  0.23714738266E+02 -0.23690538748E+02  0.40659215344E+02  0.00000000000E+00 0. -1.
         11    1    3    3    0    0 -0.77234159069E+00 -0.31758661427E+01  0.14442392221E+01  0.35732988233E+01  0.51100000000E-03 0. -1.
        -11    1    3    3    0    0  0.57966464342E+01 -0.14327675294E+02  0.23228325323E+02  0.27900510511E+02  0.51100000000E-03 0.  1.
        -12    1    3    3    0    0  0.17987460738E+02 -0.62111968289E+01 -0.98202579669E+00  0.19054975322E+02  0.00000000000E+00 0.  1.
</event>
<event>
 7    1  0.2755991E-011  0.5052886E+02  0.7816164E-02  0.1300439E+00
        -11   -1    0    0    0    0  0.00000000000E+00  0.00000000000E+00  0.45593999997E+02  0.45594000000E+02  0.51100000000E-03 0. -1.
         11   -1    0    0    0    0 -0.00000000000E+00 -0.00000000000E+00 -0.45593999997E+02  0.45594000000E+02  0.51100000000E-03 0.  1.
    9900012    2    1    2    0    0 -0.32335944934E+01 -0.37493443813E+02 -0.15393214520E+02  0.50528861845E+02  0.30000006063E+02 0.  0.
         12    1    1    2    0    0  0.32335944934E+01  0.37493443813E+02  0.15393214520E+02  0.40659138155E+02  0.00000000000E+00 0. -1.
         11    1    3    3    0    0 -0.14420974906E+01 -0.21120016199E+02 -0.98986300048E+01  0.23369159284E+02  0.51100000000E-03 0.  1.
        -11    1    3    3    0    0 -0.75174630876E+01 -0.18895742382E+02 -0.44245719580E+01  0.20811971764E+02  0.51100000000E-03 0. -1.
         12    1    3    3    0    0  0.57259660847E+01  0.25223147679E+01 -0.10700125568E+01  0.63477307964E+01  0.00000000000E+00 0. -1.
</event>
<event>
 7    1  0.2755991E-011  0.5052885E+02  0.7816164E-02  0.1300439E+00
        -11   -1    0    0    0    0  0.00000000000E+00  0.00000000000E+00  0.45593999997E+02  0.45594000000E+02  0.51100000000E-03 0.  1.
         11   -1    0    0    0    0 -0.00000000000E+00 -0.00000000000E+00 -0.45593999997E+02  0.45594000000E+02  0.51100000000E-03 0. -1.
    9900012    2    1    2    0    0  0.53148721508E+00  0.26280161786E+02  0.31019944538E+02  0.50528851690E+02  0.29999975197E+02 0.  0.
         12    1    1    2    0    0 -0.53148721508E+00 -0.26280161786E+02 -0.31019944538E+02  0.40659148310E+02  0.00000000000E+00 0. -1.
         11    1    3    3    0    0 -0.84211770954E+01  0.12526250195E+02  0.11763510181E+02  0.19136440099E+02  0.51100000000E-03 0. -1.
        -11    1    3    3    0    0 -0.31758026904E+01  0.86210229065E+01  0.14929522969E+02  0.17529929122E+02  0.51100000000E-03 0.  1.
         12    1    3    3    0    0  0.12128467001E+02  0.51328886838E+01  0.43269113873E+01  0.13862482468E+02  0.00000000000E+00 0. -1.
</event>
<event>
 7    1  0.2755991E-011  0.5052886E+02  0.7816164E-02  0.1300439E+00
        -11   -1    0    0    0    0  0.00000000000E+00  0.00000000000E+00  0.45593999997E+02  0.45594000000E+02  0.51100000000E-03 0. -1.
         11   -1    0    0    0    0 -0.00000000000E+00 -0.00000000000E+00 -0.45593999997E+02  0.45594000000E+02  0.51100000000E-03 0.  1.
    9900012    2    1    2    0    0 -0.26352801818E+02 -0.30874286186E+02  0.23396123998E+01  0.50528862068E+02  0.30000006743E+02 0.  0.
         12    1    1    2    0    0  0.26352801818E+02  0.30874286186E+02 -0.23396123998E+01  0.40659137932E+02  0.00000000000E+00 0. -1.
         11    1    3    3    0    0 -0.60369014254E+01 -0.16846031203E+01  0.62291128403E+01  0.88365102575E+01  0.51100000000E-03 0. -1.
        -11    1    3    3    0    0 -0.24353897034E+02 -0.20993514624E+02 -0.12325505913E+01  0.32176997036E+02  0.51100000000E-03 0.  1.
        -12    1    3    3    0    0  0.40379966412E+01 -0.81961684410E+01 -0.26569498493E+01  0.95153547748E+01  0.00000000000E+00 0.  1.
</event>
<event>
 7    1  0.2755991E-011  0.5052886E+02  0.7816164E-02  0.1300439E+00
        -11   -1    0    0    0    0  0.00000000000E+00  0.00000000000E+00  0.45593999997E+02  0.45594000000E+02  0.51100000000E-03 0. -1.
         11   -1    0    0    0    0 -0.00000000000E+00 -0.00000000000E+00 -0.45593999997E+02  0.45594000000E+02  0.51100000000E-03 0.  1.
    9900012    2    1    2    0    0  0.24935219148E+02  0.16746649280E+02 -0.27403474626E+02  0.50528857883E+02  0.29999994021E+02 0.  0.
         12    1    1    2    0    0 -0.24935219148E+02 -0.16746649280E+02  0.27403474626E+02  0.40659142117E+02  0.00000000000E+00 0. -1.
         11    1    3    3    0    0 -0.97804837626E+00 -0.12807236052E+01 -0.41364580241E+01  0.44392698527E+01  0.51100000000E-03 0. -1.
        -11    1    3    3    0    0  0.99231528750E+01 -0.51101496906E+01 -0.10025684183E+02  0.15003230867E+02  0.51100000000E-03 0.  1.
         12    1    3    3    0    0  0.15990114650E+02  0.23137522576E+02 -0.13241332419E+02  0.31086357163E+02  0.00000000000E+00 0. -1.
</event>
<event>
 7    1  0.2755991E-011  0.5052886E+02  0.7816164E-02  0.1300439E+00
        -11   -1    0    0    0    0  0.00000000000E+00  0.00000000000E+00  0.45593999997E+02  0.45594000000E+02  0.51100000000E-03 0. -1.
         11   -1    0    0    0    0 -0.00000000000E+00 -0.00000000000E+00 -0.45593999997E+02  0.45594000000E+02  0.51100000000E-03 0.  1.
    9900012    2    1    2    0    0 -0.36895805290E+02 -0.15958557960E+02 -0.60983100945E+01  0.50528863190E+02  0.30000010153E+02 0.  0.
         12    1    1    2    0    0  0.36895805290E+02  0.15958557960E+02  0.60983100945E+01  0.40659136810E+02  0.00000000000E+00 0. -1.
         11    1    3    3    0    0 -0.32450974587E+01 -0.44516014418E+01 -0.98175285920E+01  0.11257498871E+02  0.51100000000E-03 0. -1.
        -11    1    3    3    0    0 -0.85174814375E+01 -0.10967928810E+02  0.24425271321E+01  0.14099960690E+02  0.51100000000E-03 0.  1.
         12    1    3    3    0    0 -0.25133226393E+02 -0.53902770834E+00  0.12766913654E+01  0.25171403629E+02  0.00000000000E+00 0. -1.
</event>
<event>
 7    1  0.2755991E-011  0.5052886E+02  0.7816164E-02  0.1300439E+00
        -11   -1    0    0    0    0  0.00000000000E+00  0.00000000000E+00  0.45593999997E+02  0.45594000000E+02  0.51100000000E-03 0.  1.
         11   -1    0    0    0    0 -0.00000000000E+00 -0.00000000000E+00 -0.45593999997E+02  0.45594000000E+02  0.51100000000E-03 0. -1.
    9900012    2    1    2    0    0  0.31779669279E+02 -0.20536354117E+02  0.14882086252E+02  0.50528859440E+02  0.29999998753E+02 0.  0.
         12    1    1    2    0    0 -0.31779669279E+02  0.20536354117E+02 -0.14882086252E+02  0.40659140560E+02  0.00000000000E+00 0. -1.
         11    1    3    3    0    0  0.11367363313E+02 -0.16822515226E+01  0.10722747705E+02  0.15717004724E+02  0.51100000000E-03 0. -1.
        -11    1    3    3    0    0  0.70814815743E+01  0.12751981622E+01  0.75523619410E+01  0.10431283851E+02  0.51100000000E-03 0.  1.
         12    1    3    3    0    0  0.13330824391E+02 -0.20129300757E+02 -0.33930233943E+01  0.24380570864E+02  0.00000000000E+00 0. -1.
</event>
<event>
 7    1  0.2755991E-011  0.5052886E+02  0.7816164E-02  0.1300439E+00
        -11   -1    0    0    0    0  0.00000000000E+00  0.00000000000E+00  0.45593999997E+02  0.45594000000E+02  0.51100000000E-03 0.  1.
         11   -1    0    0    0    0 -0.00000000000E+00 -0.00000000000E+00 -0.45593999997E+02  0.45594000000E+02  0.51100000000E-03 0. -1.
    9900012    2    1    2    0    0 -0.34325471359E+02  0.89423768762E+01  0.19873640268E+02  0.50528859998E+02  0.30000000449E+02 0.  0.
         12    1    1    2    0    0  0.34325471359E+02 -0.89423768762E+01 -0.19873640268E+02  0.40659140002E+02  0.00000000000E+00 0. -1.
         11    1    3    3    0    0 -0.15648655579E+01 -0.24312547225E+01 -0.10825573523E+01  0.30873507125E+01  0.51100000000E-03 0. -1.
        -11    1    3    3    0    0 -0.74094254418E+01  0.68929271652E+01 -0.46447888343E+01  0.11134904304E+02  0.51100000000E-03 0.  1.
        -12    1    3    3    0    0 -0.25351180359E+02  0.44807044335E+01  0.25600986454E+02  0.36306604981E+02  0.00000000000E+00 0.  1.
</event>
<event>
 7    1  0.2755991E-011  0.5052885E+02  0.7816164E-02  0.1300439E+00
        -11   -1    0    0    0    0  0.00000000000E+00  0.00000000000E+00  0.45593999997E+02  0.45594000000E+02  0.51100000000E-03 0.  1.
         11   -1    0    0    0    0 -0.00000000000E+00 -0.00000000000E+00 -0.45593999997E+02  0.45594000000E+02  0.51100000000E-03 0. -1.
    9900012    2    1    2    0    0 -0.22816307279E+02 -0.29630031921E+02  0.15957550268E+02  0.50528854903E+02  0.29999984962E+02 0.  0.
         12    1    1    2    0    0  0.22816307279E+02  0.29630031921E+02 -0.15957550268E+02  0.40659145097E+02  0.00000000000E+00 0. -1.
         11    1    3    3    0    0  0.82869754948E+00 -0.74645864509E+01 -0.28229613310E+01  0.80234594439E+01  0.51100000000E-03 0. -1.
        -11    1    3    3    0    0 -0.27784020959E+01 -0.15273066792E+02  0.40294021039E+01  0.16038147306E+02  0.51100000000E-03 0.  1.
        -12    1    3    3    0    0 -0.20866602732E+02 -0.68923786783E+01  0.14751109495E+02  0.26467248153E+02  0.00000000000E+00 0.  1.
</event>
<event>
 7    1  0.2755991E-011  0.5052886E+02  0.7816164E-02  0.1300439E+00
        -11   -1    0    0    0    0  0.00000000000E+00  0.00000000000E+00  0.45593999997E+02  0.45594000000E+02  0.51100000000E-03 0.  1.
         11   -1    0    0    0    0 -0.00000000000E+00 -0.00000000000E+00 -0.45593999997E+02  0.45594000000E+02  0.51100000000E-03 0. -1.
    9900012    2    1    2    0    0 -0.40925365764E+00  0.40489453941E+02  0.36880937396E+01  0.50528863211E+02  0.30000010216E+02 0.  0.
         12    1    1    2    0    0  0.40925365764E+00 -0.40489453941E+02 -0.36880937396E+01  0.40659136789E+02  0.00000000000E+00 0. -1.
         11    1    3    3    0    0 -0.68741989616E+00  0.25084408361E+02  0.88140714936E+01  0.26596765696E+02  0.51100000000E-03 0. -1.
        -11    1    3    3    0    0 -0.12185262990E+01  0.17432971244E+02  0.79853666191E+00  0.17493740418E+02  0.51100000000E-03 0.  1.
         12    1    3    3    0    0  0.14966925375E+01 -0.20279256638E+01 -0.59245144159E+01  0.64383570974E+01  0.00000000000E+00 0. -1.
</event>
<event>
 7    1  0.2755991E-011  0.5052886E+02  0.7816164E-02  0.1300439E+00
        -11   -1    0    0    0    0  0.00000000000E+00  0.00000000000E+00  0.45593999997E+02  0.45594000000E+02  0.51100000000E-03 0.  1.
         11   -1    0    0    0    0 -0.00000000000E+00 -0.00000000000E+00 -0.45593999997E+02  0.45594000000E+02  0.51100000000E-03 0. -1.
    9900012    2    1    2    0    0 -0.25543597291E+02 -0.11236311255E+02  0.29570856449E+02  0.50528860753E+02  0.30000002745E+02 0.  0.
         12    1    1    2    0    0  0.25543597291E+02  0.11236311255E+02 -0.29570856449E+02  0.40659139247E+02  0.00000000000E+00 0. -1.
         11    1    3    3    0    0 -0.48184094351E+01 -0.97570928445E+00  0.87319539979E+01  0.10020783351E+02  0.51100000000E-03 0.  1.
        -11    1    3    3    0    0 -0.25494681044E+02 -0.25412518497E+01  0.14503203251E+02  0.29441121366E+02  0.51100000000E-03 0. -1.
         12    1    3    3    0    0  0.47694931874E+01 -0.77193501205E+01  0.63356992002E+01  0.11066956036E+02  0.00000000000E+00 0. -1.
</event>
<event>
 7    1  0.2755991E-011  0.5052886E+02  0.7816164E-02  0.1300439E+00
        -11   -1    0    0    0    0  0.00000000000E+00  0.00000000000E+00  0.45593999997E+02  0.45594000000E+02  0.51100000000E-03 0. -1.
         11   -1    0    0    0    0 -0.00000000000E+00 -0.00000000000E+00 -0.45593999997E+02  0.45594000000E+02  0.51100000000E-03 0.  1.
    9900012    2    1    2    0    0 -0.17252436616E+02 -0.29742939215E+02 -0.21699693276E+02  0.50528859692E+02  0.29999999520E+02 0.  0.
         12    1    1    2    0    0  0.17252436616E+02  0.29742939215E+02  0.21699693276E+02  0.40659140308E+02  0.00000000000E+00 0. -1.
         11    1    3    3    0    0 -0.22865473097E+01 -0.15438614729E+02 -0.16250843001E+01  0.15691399638E+02  0.51100000000E-03 0. -1.
        -11    1    3    3    0    0 -0.14358698999E+02 -0.84505787754E+01 -0.31991344789E+01  0.16965228565E+02  0.51100000000E-03 0.  1.
        -12    1    3    3    0    0 -0.60719030738E+00 -0.58537457102E+01 -0.16875474497E+02  0.17872231489E+02  0.00000000000E+00 0.  1.
</event>
<event>
 7    1  0.2755991E-011  0.5052886E+02  0.7816164E-02  0.1300439E+00
        -11   -1    0    0    0    0  0.00000000000E+00  0.00000000000E+00  0.45593999997E+02  0.45594000000E+02  0.51100000000E-03 0.  1.
         11   -1    0    0    0    0 -0.00000000000E+00 -0.00000000000E+00 -0.45593999997E+02  0.45594000000E+02  0.51100000000E-03 0. -1.
    9900012    2    1    2    0    0  0.30558124756E+02 -0.43174756887E+01  0.26471235225E+02  0.50528857371E+02  0.29999992466E+02 0.  0.
         12    1    1    2    0    0 -0.30558124756E+02  0.43174756887E+01 -0.26471235225E+02  0.40659142629E+02  0.00000000000E+00 0. -1.
         11    1    3    3    0    0  0.14970750532E+02  0.24360537343E+01  0.48620233685E+00  0.15175444714E+02  0.51100000000E-03 0. -1.
        -11    1    3    3    0    0  0.18687743311E+01 -0.45478701560E+01 -0.98498900284E+00  0.50145432547E+01  0.51100000000E-03 0.  1.
        -12    1    3    3    0    0  0.13718599893E+02 -0.22056592671E+01  0.26970021891E+02  0.30338869403E+02  0.00000000000E+00 0.  1.
</event>
<event>
 7    1  0.2755991E-011  0.5052887E+02  0.7816164E-02  0.1300439E+00
        -11   -1    0    0    0    0  0.00000000000E+00  0.00000000000E+00  0.45593999997E+02  0.45594000000E+02  0.51100000000E-03 0.  1.
         11   -1    0    0    0    0 -0.00000000000E+00 -0.00000000000E+00 -0.45593999997E+02  0.45594000000E+02  0.51100000000E-03 0. -1.
    9900012    2    1    2    0    0 -0.17924647166E+02 -0.36490156185E+02  0.58357332004E+00  0.50528867788E+02  0.30000024128E+02 0.  0.
         12    1    1    2    0    0  0.17924647166E+02  0.36490156185E+02 -0.58357332004E+00  0.40659132212E+02  0.00000000000E+00 0. -1.
         11    1    3    3    0    0 -0.28731793383E+01 -0.42905135434E+00  0.39993871590E+00  0.29324385436E+01  0.51100000000E-03 0. -1.
        -11    1    3    3    0    0 -0.16976086616E+02 -0.15988583036E+02 -0.95571217051E+01  0.25202398295E+02  0.51100000000E-03 0.  1.
         12    1    3    3    0    0  0.19246187878E+01 -0.20072521794E+02  0.97407563092E+01  0.22394030949E+02  0.00000000000E+00 0. -1.
</event>
<event>
 7    1  0.2755991E-011  0.5052884E+02  0.7816164E-02  0.1300439E+00
        -11   -1    0    0    0    0  0.00000000000E+00  0.00000000000E+00  0.45593999997E+02  0.45594000000E+02  0.51100000000E-03 0.  1.
         11   -1    0    0    0    0 -0.00000000000E+00 -0.00000000000E+00 -0.45593999997E+02  0.45594000000E+02  0.51100000000E-03 0. -1.
    9900012    2    1    2    0    0  0.81682269001E+01 -0.34189937029E+02  0.20432700851E+02  0.50528843727E+02  0.29999950992E+02 0.  0.
         12    1    1    2    0    0 -0.81682269001E+01  0.34189937029E+02 -0.20432700851E+02  0.40659156273E+02  0.00000000000E+00 0. -1.
         11    1    3    3    0    0 -0.22367566615E+01  0.73158367528E+00 -0.91484369125E+00  0.25249226280E+01  0.51100000000E-03 0. -1.
        -11    1    3    3    0    0  0.11641255710E+02 -0.58481791915E+01  0.11217077345E+02  0.17191360005E+02  0.51100000000E-03 0.  1.
        -12    1    3    3    0    0 -0.12362721487E+01 -0.29073341513E+02  0.10130467197E+02  0.30812561094E+02  0.00000000000E+00 0.  1.
</event>
<event>
 7    1  0.2755991E-011  0.5052886E+02  0.7816164E-02  0.1300439E+00
        -11   -1    0    0    0    0  0.00000000000E+00  0.00000000000E+00  0.45593999997E+02  0.45594000000E+02  0.51100000000E-03 0.  1.
         11   -1    0    0    0    0 -0.00000000000E+00 -0.00000000000E+00 -0.45593999997E+02  0.45594000000E+02  0.51100000000E-03 0. -1.
    9900012    2    1    2    0    0 -0.28224956229E+02 -0.28780087745E+02  0.53126547485E+01  0.50528857052E+02  0.29999991495E+02 0.  0.
         12    1    1    2    0    0  0.28224956229E+02  0.28780087745E+02 -0.53126547485E+01  0.40659142948E+02  0.00000000000E+00 0. -1.
         11    1    3    3    0    0  0.11018764621E+01 -0.60436820966E+01 -0.10360545919E+01  0.62300589405E+01  0.51100000000E-03 0. -1.
        -11    1    3    3    0    0  0.21541031956E+01  0.26127811177E+01  0.98258500106E+00  0.35259409088E+01  0.51100000000E-03 0.  1.
        -12    1    3    3    0    0 -0.31480935887E+02 -0.25349186766E+02  0.53661243393E+01  0.40772857203E+02  0.00000000000E+00 0.  1.
</event>
<event>
 7    1  0.2755991E-011  0.5052887E+02  0.7816164E-02  0.1300439E+00
        -11   -1    0    0    0    0  0.00000000000E+00  0.00000000000E+00  0.45593999997E+02  0.45594000000E+02  0.51100000000E-03 0.  1.
         11   -1    0    0    0    0 -0.00000000000E+00 -0.00000000000E+00 -0.45593999997E+02  0.45594000000E+02  0.51100000000E-03 0. -1.
    9900012    2    1    2    0    0 -0.21427197095E+02 -0.62816799489E+01  0.33979114175E+02  0.50528874598E+02  0.30000044827E+02 0.  0.
         12    1    1    2    0    0  0.21427197095E+02  0.62816799489E+01 -0.33979114175E+02  0.40659125402E+02  0.00000000000E+00 0. -1.
         11    1    3    3    0    0  0.28034862135E+01 -0.21237217290E+00  0.16654776565E+02  0.16890417981E+02  0.51100000000E-03 0. -1.
        -11    1    3    3    0    0 -0.95747003187E+00  0.34322646290E+01  0.32806389800E+01  0.48435298826E+01  0.51100000000E-03 0.  1.
        -12    1    3    3    0    0 -0.23273213277E+02 -0.95015724050E+01  0.14043698630E+02  0.28794926734E+02  0.00000000000E+00 0.  1.
</event>
<event>
 7    1  0.2755991E-011  0.5052886E+02  0.7816164E-02  0.1300439E+00
        -11   -1    0    0    0    0  0.00000000000E+00  0.00000000000E+00  0.45593999997E+02  0.45594000000E+02  0.51100000000E-03 0. -1.
         11   -1    0    0    0    0 -0.00000000000E+00 -0.00000000000E+00 -0.45593999997E+02  0.45594000000E+02  0.51100000000E-03 0.  1.
    9900012    2    1    2    0    0  0.30735290958E+02 -0.57830599182E+01 -0.25981994501E+02  0.50528856741E+02  0.29999990550E+02 0.  0.
         12    1    1    2    0    0 -0.30735290958E+02  0.57830599182E+01  0.25981994501E+02  0.40659143259E+02  0.00000000000E+00 0. -1.
         11    1    3    3    0    0  0.94288967126E+01  0.57649384666E+01 -0.35087058845E+01  0.11595241523E+02  0.51100000000E-03 0. -1.
        -11    1    3    3    0    0 -0.55622359821E-01  0.48102188459E+01 -0.44152684201E+01  0.65296167326E+01  0.51100000000E-03 0.  1.
        -12    1    3    3    0    0  0.21362016605E+02 -0.16358217231E+02 -0.18058020196E+02  0.32403998485E+02  0.00000000000E+00 0.  1.
</event>
<event>
 7    1  0.2755991E-011  0.5052886E+02  0.7816164E-02  0.1300439E+00
        -11   -1    0    0    0    0  0.00000000000E+00  0.00000000000E+00  0.45593999997E+02  0.45594000000E+02  0.51100000000E-03 0.  1.
         11   -1    0    0    0    0 -0.00000000000E+00 -0.00000000000E+00 -0.45593999997E+02  0.45594000000E+02  0.51100000000E-03 0. -1.
    9900012    2    1    2    0    0  0.49313623552E+01 -0.35514413226E+02  0.19172217394E+02  0.50528858331E+02  0.29999995383E+02 0.  0.
         12    1    1    2    0    0 -0.49313623552E+01  0.35514413226E+02 -0.19172217394E+02  0.40659141669E+02  0.00000000000E+00 0. -1.
         11    1    3    3    0    0 -0.14154113396E+01 -0.14540902963E+02  0.11358720598E+02  0.18505722956E+02  0.51100000000E-03 0. -1.
        -11    1    3    3    0    0 -0.30747727542E+01 -0.17292810969E+02  0.11790417088E+02  0.21154419729E+02  0.51100000000E-03 0.  1.
         12    1    3    3    0    0  0.94215464490E+01 -0.36806992938E+01 -0.39769202919E+01  0.10868715646E+02  0.00000000000E+00 0. -1.
</event>
