<event>
 7    1  0.7457761E-012  0.5930192E+02  0.7816164E-02  0.1266605E+00
        -11   -1    0    0    0    0  0.00000000000E+00  0.00000000000E+00  0.45593999997E+02  0.45594000000E+02  0.51100000000E-03 0.  1.
         11   -1    0    0    0    0 -0.00000000000E+00 -0.00000000000E+00 -0.45593999997E+02  0.45594000000E+02  0.51100000000E-03 0. -1.
    9900012    2    1    2    0    0  0.26498924699E+01 -0.14427371278E+02  0.28311674334E+02  0.59301923482E+02  0.49999962530E+02 0.  0.
         12    1    1    2    0    0 -0.26498924699E+01  0.14427371278E+02 -0.28311674334E+02  0.31886076518E+02  0.00000000000E+00 0. -1.
         11    1    3    3    0    0 -0.10512283841E+02  0.80849484310E+01  0.58118473417E+01  0.14479367130E+02  0.51100000000E-03 0. -1.
        -11    1    3    3    0    0  0.13233692078E+02 -0.25491157252E+02  0.27003559514E+02  0.39422353186E+02  0.51100000000E-03 0.  1.
        -12    1    3    3    0    0 -0.71515766567E-01  0.29788375426E+01 -0.45037325215E+01  0.54002031661E+01  0.00000000000E+00 0.  1.
</event>
<event>
 7    1  0.7457761E-012  0.5930195E+02  0.7816164E-02  0.1266605E+00
        -11   -1    0    0    0    0  0.00000000000E+00  0.00000000000E+00  0.45593999997E+02  0.45594000000E+02  0.51100000000E-03 0.  1.
         11   -1    0    0    0    0 -0.00000000000E+00 -0.00000000000E+00 -0.45593999997E+02  0.45594000000E+02  0.51100000000E-03 0. -1.
    9900012    2    1    2    0    0 -0.16174594139E+02 -0.26614681931E+02  0.68382180665E+01  0.59301952641E+02  0.50000015708E+02 0.  0.
         12    1    1    2    0    0  0.16174594139E+02  0.26614681931E+02 -0.68382180665E+01  0.31886047359E+02  0.00000000000E+00 0. -1.
         11    1    3    3    0    0 -0.12700644213E+00 -0.68909454464E+01 -0.39778777616E+01  0.79576863176E+01  0.51100000000E-03 0. -1.
        -11    1    3    3    0    0  0.33230932716E+01 -0.17015151375E+01  0.22221321915E+02  0.22532759497E+02  0.51100000000E-03 0.  1.
        -12    1    3    3    0    0 -0.19370680969E+02 -0.18022221348E+02 -0.11405226087E+02  0.28811506826E+02  0.00000000000E+00 0.  1.
</event>
<event>
 7    1  0.7457761E-012  0.5930199E+02  0.7816164E-02  0.1266605E+00
        -11   -1    0    0    0    0  0.00000000000E+00  0.00000000000E+00  0.45593999997E+02  0.45594000000E+02  0.51100000000E-03 0. -1.
         11   -1    0    0    0    0 -0.00000000000E+00 -0.00000000000E+00 -0.45593999997E+02  0.45594000000E+02  0.51100000000E-03 0.  1.
    9900012    2    1    2    0    0  0.26860180542E+02 -0.27392311193E+01 -0.16963049004E+02  0.59301988687E+02  0.50000081449E+02 0.  0.
         12    1    1    2    0    0 -0.26860180542E+02  0.27392311193E+01  0.16963049004E+02  0.31886011313E+02  0.00000000000E+00 0. -1.
         11    1    3    3    0    0 -0.57219940662E+01  0.35902676211E+01  0.10957708231E+02  0.12872552491E+02  0.51100000000E-03 0. -1.
        -11    1    3    3    0    0  0.99634581872E+00 -0.54050690941E+01 -0.42352999235E+01  0.69386772951E+01  0.51100000000E-03 0.  1.
         12    1    3    3    0    0  0.31585828790E+02 -0.92442964628E+00 -0.23685457312E+02  0.39490758901E+02  0.00000000000E+00 0. -1.
</event>
<event>
 7    1  0.7457761E-012  0.5930196E+02  0.7816164E-02  0.1266605E+00
        -11   -1    0    0    0    0  0.00000000000E+00  0.00000000000E+00  0.45593999997E+02  0.45594000000E+02  0.51100000000E-03 0. -1.
         11   -1    0    0    0    0 -0.00000000000E+00 -0.00000000000E+00 -0.45593999997E+02  0.45594000000E+02  0.51100000000E-03 0.  1.
    9900012    2    1    2    0    0  0.11091995778E+02 -0.34222524584E+01 -0.29698071559E+02  0.59301958594E+02  0.50000026565E+02 0.  0.
         12    1    1    2    0    0 -0.11091995778E+02  0.34222524584E+01  0.29698071559E+02  0.31886041406E+02  0.00000000000E+00 0. -1.
         11    1    3    3    0    0  0.30391986816E+01  0.59125107934E+01  0.93672109814E+01  0.11486477020E+02  0.51100000000E-03 0. -1.
        -11    1    3    3    0    0  0.41110799948E+01 -0.17468570394E+02 -0.30355059980E+02  0.35263034427E+02  0.51100000000E-03 0.  1.
        -12    1    3    3    0    0  0.39417171013E+01  0.81338071417E+01 -0.87102225605E+01  0.12552447147E+02  0.00000000000E+00 0.  1.
</event>
<event>
 7    1  0.7457761E-012  0.5930194E+02  0.7816164E-02  0.1266605E+00
        -11   -1    0    0    0    0  0.00000000000E+00  0.00000000000E+00  0.45593999997E+02  0.45594000000E+02  0.51100000000E-03 0. -1.
         11   -1    0    0    0    0 -0.00000000000E+00 -0.00000000000E+00 -0.45593999997E+02  0.45594000000E+02  0.51100000000E-03 0.  1.
    9900012    2    1    2    0    0  0.12698744938E+02 -0.28518384983E+02  0.64934040882E+01  0.59301941892E+02  0.49999996104E+02 0.  0.
         12    1    1    2    0    0 -0.12698744938E+02  0.28518384983E+02 -0.64934040882E+01  0.31886058108E+02  0.00000000000E+00 0. -1.
         11    1    3    3    0    0  0.76918920365E+01  0.10550080911E+02  0.73471023974E+01  0.14981632896E+02  0.51100000000E-03 0. -1.
        -11    1    3    3    0    0  0.44711182714E+01 -0.23361088654E+02 -0.10369839358E+02  0.25947349195E+02  0.51100000000E-03 0.  1.
         12    1    3    3    0    0  0.53573462989E+00 -0.15707377240E+02  0.95161410488E+01  0.18372959800E+02  0.00000000000E+00 0. -1.
</event>
<event>
 7    1  0.7457761E-012  0.5930191E+02  0.7816164E-02  0.1266605E+00
        -11   -1    0    0    0    0  0.00000000000E+00  0.00000000000E+00  0.45593999997E+02  0.45594000000E+02  0.51100000000E-03 0.  1.
         11   -1    0    0    0    0 -0.00000000000E+00 -0.00000000000E+00 -0.45593999997E+02  0.45594000000E+02  0.51100000000E-03 0. -1.
    9900012    2    1    2    0    0  0.84552179280E+01  0.90438522634E+01  0.29384358439E+02  0.59301913774E+02  0.49999944824E+02 0.  0.
         12    1    1    2    0    0 -0.84552179280E+01 -0.90438522634E+01 -0.29384358439E+02  0.31886086226E+02  0.00000000000E+00 0. -1.
         11    1    3    3    0    0  0.12383204567E+01  0.15055662391E+02  0.28742698069E+02  0.32470742217E+02  0.51100000000E-03 0. -1.
        -11    1    3    3    0    0  0.64178440497E+01  0.88023966155E+01 -0.34757438419E+01  0.11434671134E+02  0.51100000000E-03 0.  1.
         12    1    3    3    0    0  0.79905342158E+00 -0.14814206743E+02  0.41174042117E+01  0.15396500422E+02  0.00000000000E+00 0. -1.
</event>
<event>
 7    1  0.7457761E-012  0.5930195E+02  0.7816164E-02  0.1266605E+00
        -11   -1    0    0    0    0  0.00000000000E+00  0.00000000000E+00  0.45593999997E+02  0.45594000000E+02  0.51100000000E-03 0. -1.
         11   -1    0    0    0    0 -0.00000000000E+00 -0.00000000000E+00 -0.45593999997E+02  0.45594000000E+02  0.51100000000E-03 0.  1.
    9900012    2    1    2    0    0 -0.18669222518E+02  0.14734120271E+02 -0.21238784911E+02  0.59301950479E+02  0.50000011765E+02 0.  0.
         12    1    1    2    0    0  0.18669222518E+02 -0.14734120271E+02  0.21238784911E+02  0.31886049521E+02  0.00000000000E+00 0. -1.
         11    1    3    3    0    0  0.52147826622E+01 -0.61489613763E+01  0.13173549936E+01  0.81694007529E+01  0.51100000000E-03 0. -1.
        -11    1    3    3    0    0 -0.22891633215E+02  0.10397038758E+02 -0.29313247359E+02  0.38618541625E+02  0.51100000000E-03 0.  1.
        -12    1    3    3    0    0 -0.99237196501E+00  0.10486042889E+02  0.67571074549E+01  0.12514008101E+02  0.00000000000E+00 0.  1.
</event>
<event>
 7    1  0.7457761E-012  0.5930209E+02  0.7816164E-02  0.1266604E+00
        -11   -1    0    0    0    0  0.00000000000E+00  0.00000000000E+00  0.45593999997E+02  0.45594000000E+02  0.51100000000E-03 0.  1.
         11   -1    0    0    0    0 -0.00000000000E+00 -0.00000000000E+00 -0.45593999997E+02  0.45594000000E+02  0.51100000000E-03 0. -1.
    9900012    2    1    2    0    0  0.18342071559E+02  0.24166777423E+02 -0.98105481016E+01  0.59302085020E+02  0.50000257135E+02 0.  0.
         12    1    1    2    0    0 -0.18342071559E+02 -0.24166777423E+02  0.98105481016E+01  0.31885914980E+02  0.00000000000E+00 0. -1.
         11    1    3    3    0    0  0.12450556446E+02 -0.57508871349E+01 -0.11584806769E+01  0.13763398431E+02  0.51100000000E-03 0. -1.
        -11    1    3    3    0    0 -0.90266062268E+01  0.16625494104E+02  0.69852344198E+01  0.20166312859E+02  0.51100000000E-03 0.  1.
        -12    1    3    3    0    0  0.14918121340E+02  0.13292170454E+02 -0.15637301844E+02  0.25372373729E+02  0.00000000000E+00 0.  1.
</event>
<event>
 7    1  0.7457761E-012  0.5930195E+02  0.7816164E-02  0.1266605E+00
        -11   -1    0    0    0    0  0.00000000000E+00  0.00000000000E+00  0.45593999997E+02  0.45594000000E+02  0.51100000000E-03 0.  1.
         11   -1    0    0    0    0 -0.00000000000E+00 -0.00000000000E+00 -0.45593999997E+02  0.45594000000E+02  0.51100000000E-03 0. -1.
    9900012    2    1    2    0    0  0.11894901440E+02  0.24917094824E+02 -0.15948973369E+02  0.59301952169E+02  0.50000014848E+02 0.  0.
         12    1    1    2    0    0 -0.11894901440E+02 -0.24917094824E+02  0.15948973369E+02  0.31886047831E+02  0.00000000000E+00 0. -1.
         11    1    3    3    0    0 -0.13590224286E+02  0.25654959491E+02 -0.74599587781E+01  0.29975358678E+02  0.51100000000E-03 0. -1.
        -11    1    3    3    0    0  0.24876264512E+02  0.21359323867E+01 -0.85418836464E+01  0.26388530079E+02  0.51100000000E-03 0.  1.
         12    1    3    3    0    0  0.60886121395E+00 -0.28737970529E+01  0.52869055190E-01  0.29380634126E+01  0.00000000000E+00 0. -1.
</event>
<event>
 7    1  0.7457761E-012  0.5930217E+02  0.7816164E-02  0.1266604E+00
        -11   -1    0    0    0    0  0.00000000000E+00  0.00000000000E+00  0.45593999997E+02  0.45594000000E+02  0.51100000000E-03 0.  1.
         11   -1    0    0    0    0 -0.00000000000E+00 -0.00000000000E+00 -0.45593999997E+02  0.45594000000E+02  0.51100000000E-03 0. -1.
    9900012    2    1    2    0    0  0.98465003270E+01  0.12461881444E+02  0.27648759833E+02  0.59302172770E+02  0.50000417170E+02 0.  0.
         12    1    1    2    0    0 -0.98465003270E+01 -0.12461881444E+02 -0.27648759833E+02  0.31885827230E+02  0.00000000000E+00 0. -1.
         11    1    3    3    0    0  0.96713538427E+01 -0.15357573290E+01 -0.81022729966E+01  0.12709856950E+02  0.51100000000E-03 0. -1.
        -11    1    3    3    0    0 -0.15698788724E+01  0.20625634498E+02  0.17493355872E+02  0.27090566957E+02  0.51100000000E-03 0.  1.
         12    1    3    3    0    0  0.17450253567E+01 -0.66279957253E+01  0.18257676958E+02  0.19501748863E+02  0.00000000000E+00 0. -1.
</event>
<event>
 7    1  0.7457761E-012  0.5930192E+02  0.7816164E-02  0.1266605E+00
        -11   -1    0    0    0    0  0.00000000000E+00  0.00000000000E+00  0.45593999997E+02  0.45594000000E+02  0.51100000000E-03 0. -1.
         11   -1    0    0    0    0 -0.00000000000E+00 -0.00000000000E+00 -0.45593999997E+02  0.45594000000E+02  0.51100000000E-03 0.  1.
    9900012    2    1    2    0    0  0.18376500667E+02 -0.18812532683E+02  0.18030943969E+02  0.59301919916E+02  0.49999956026E+02 0.  0.
         12    1    1    2    0    0 -0.18376500667E+02  0.18812532683E+02 -0.18030943969E+02  0.31886080084E+02  0.00000000000E+00 0. -1.
         11    1    3    3    0    0  0.59628866223E+01  0.80643087163E+01 -0.12602809988E+02  0.16106517681E+02  0.51100000000E-03 0. -1.
        -11    1    3    3    0    0  0.83890838550E+01 -0.11205646693E+02  0.17122233622E+02  0.22115924810E+02  0.51100000000E-03 0.  1.
        -12    1    3    3    0    0  0.40245301897E+01 -0.15671194706E+02  0.13511520336E+02  0.21079477425E+02  0.00000000000E+00 0.  1.
</event>
<event>
 7    1  0.7457761E-012  0.5930197E+02  0.7816164E-02  0.1266605E+00
        -11   -1    0    0    0    0  0.00000000000E+00  0.00000000000E+00  0.45593999997E+02  0.45594000000E+02  0.51100000000E-03 0.  1.
         11   -1    0    0    0    0 -0.00000000000E+00 -0.00000000000E+00 -0.45593999997E+02  0.45594000000E+02  0.51100000000E-03 0. -1.
    9900012    2    1    2    0    0 -0.21734740159E+02 -0.21475425470E+02  0.91173509784E+01  0.59301969865E+02  0.50000047121E+02 0.  0.
         12    1    1    2    0    0  0.21734740159E+02  0.21475425470E+02 -0.91173509784E+01  0.31886030135E+02  0.00000000000E+00 0. -1.
         11    1    3    3    0    0  0.27095054849E+01  0.33402967283E+01 -0.79502672330E+00  0.43739078589E+01  0.51100000000E-03 0. -1.
        -11    1    3    3    0    0 -0.19288308012E+02 -0.30290603921E+02  0.20947836088E+02  0.41573685775E+02  0.51100000000E-03 0.  1.
        -12    1    3    3    0    0 -0.51559376316E+01  0.54748817226E+01 -0.11035458386E+02  0.13354376231E+02  0.00000000000E+00 0.  1.
</event>
<event>
 7    1  0.7457761E-012  0.5930193E+02  0.7816164E-02  0.1266605E+00
        -11   -1    0    0    0    0  0.00000000000E+00  0.00000000000E+00  0.45593999997E+02  0.45594000000E+02  0.51100000000E-03 0.  1.
         11   -1    0    0    0    0 -0.00000000000E+00 -0.00000000000E+00 -0.45593999997E+02  0.45594000000E+02  0.51100000000E-03 0. -1.
    9900012    2    1    2    0    0 -0.69116340027E+01  0.28696442972E+02 -0.12060874544E+02  0.59301933786E+02  0.49999981322E+02 0.  0.
         12    1    1    2    0    0  0.69116340027E+01 -0.28696442972E+02  0.12060874544E+02  0.31886066214E+02  0.00000000000E+00 0. -1.
         11    1    3    3    0    0  0.14686340953E+00  0.30117655939E+02 -0.25675396020E+02  0.39576770070E+02  0.51100000000E-03 0. -1.
        -11    1    3    3    0    0 -0.27449232955E+01  0.84240540254E+00  0.14493403765E+02  0.14775080498E+02  0.51100000000E-03 0.  1.
         12    1    3    3    0    0 -0.43135741167E+01 -0.22636183700E+01 -0.87888228976E+00  0.49500832180E+01  0.00000000000E+00 0. -1.
</event>
<event>
 7    1  0.7457761E-012  0.5930195E+02  0.7816164E-02  0.1266605E+00
        -11   -1    0    0    0    0  0.00000000000E+00  0.00000000000E+00  0.45593999997E+02  0.45594000000E+02  0.51100000000E-03 0.  1.
         11   -1    0    0    0    0 -0.00000000000E+00 -0.00000000000E+00 -0.45593999997E+02  0.45594000000E+02  0.51100000000E-03 0. -1.
    9900012    2    1    2    0    0  0.21448619528E+02 -0.16330689765E+02  0.17028950681E+02  0.59301954946E+02  0.50000019913E+02 0.  0.
         12    1    1    2    0    0 -0.21448619528E+02  0.16330689765E+02 -0.17028950681E+02  0.31886045054E+02  0.00000000000E+00 0. -1.
         11    1    3    3    0    0 -0.44353132890E+01  0.65237015910E+01 -0.42712740029E+01  0.89707562830E+01  0.51100000000E-03 0. -1.
        -11    1    3    3    0    0  0.30425465507E+02 -0.25965288871E+02  0.19768427718E+02  0.44617215424E+02  0.51100000000E-03 0.  1.
        -12    1    3    3    0    0 -0.45415326901E+01  0.31108975143E+01  0.15317969655E+01  0.57139832397E+01  0.00000000000E+00 0.  1.
</event>
<event>
 7    1  0.7457761E-012  0.5930194E+02  0.7816164E-02  0.1266605E+00
        -11   -1    0    0    0    0  0.00000000000E+00  0.00000000000E+00  0.45593999997E+02  0.45594000000E+02  0.51100000000E-03 0.  1.
         11   -1    0    0    0    0 -0.00000000000E+00 -0.00000000000E+00 -0.45593999997E+02  0.45594000000E+02  0.51100000000E-03 0. -1.
    9900012    2    1    2    0    0  0.23219142992E+02 -0.20149304768E+01  0.21760790190E+02  0.59301944493E+02  0.50000000848E+02 0.  0.
         12    1    1    2    0    0 -0.23219142992E+02  0.20149304768E+01 -0.21760790190E+02  0.31886055507E+02  0.00000000000E+00 0. -1.
         11    1    3    3    0    0 -0.78840554998E+01  0.13808203582E+01  0.44779754672E+01  0.91715462454E+01  0.51100000000E-03 0. -1.
        -11    1    3    3    0    0  0.37250325640E+02  0.16893528017E+00  0.74332522382E+01  0.37985109432E+02  0.51100000000E-03 0.  1.
        -12    1    3    3    0    0 -0.61471271482E+01 -0.35646861151E+01  0.98495624846E+01  0.12145288816E+02  0.00000000000E+00 0.  1.
</event>
<event>
 7    1  0.7457761E-012  0.5930196E+02  0.7816164E-02  0.1266605E+00
        -11   -1    0    0    0    0  0.00000000000E+00  0.00000000000E+00  0.45593999997E+02  0.45594000000E+02  0.51100000000E-03 0.  1.
         11   -1    0    0    0    0 -0.00000000000E+00 -0.00000000000E+00 -0.45593999997E+02  0.45594000000E+02  0.51100000000E-03 0. -1.
    9900012    2    1    2    0    0 -0.38927681533E+01  0.54959892369E+01  0.31166645277E+02  0.59301963567E+02  0.50000035636E+02 0.  0.
         12    1    1    2    0    0  0.38927681533E+01 -0.54959892369E+01 -0.31166645277E+02  0.31886036433E+02  0.00000000000E+00 0. -1.
         11    1    3    3    0    0  0.84828047741E+00  0.19993567224E+01 -0.17452605853E+01  0.27862056356E+01  0.51100000000E-03 0.  1.
        -11    1    3    3    0    0 -0.25077891856E+02  0.39061263911E+00  0.21216522453E+02  0.32851089227E+02  0.51100000000E-03 0. -1.
        -12    1    3    3    0    0  0.20336843225E+02  0.31060198754E+01  0.11695383409E+02  0.23664668704E+02  0.00000000000E+00 0.  1.
</event>
<event>
 7    1  0.7457761E-012  0.5930193E+02  0.7816164E-02  0.1266605E+00
        -11   -1    0    0    0    0  0.00000000000E+00  0.00000000000E+00  0.45593999997E+02  0.45594000000E+02  0.51100000000E-03 0. -1.
         11   -1    0    0    0    0 -0.00000000000E+00 -0.00000000000E+00 -0.45593999997E+02  0.45594000000E+02  0.51100000000E-03 0.  1.
    9900012    2    1    2    0    0  0.11346188784E+02 -0.29705494734E+02 -0.23599259661E+01  0.59301926741E+02  0.49999968472E+02 0.  0.
         12    1    1    2    0    0 -0.11346188784E+02  0.29705494734E+02  0.23599259661E+01  0.31886073259E+02  0.00000000000E+00 0. -1.
         11    1    3    3    0    0  0.13764525856E+02 -0.25152140695E+02  0.12009269578E+02  0.31085606149E+02  0.51100000000E-03 0.  1.
        -11    1    3    3    0    0  0.10053383654E+02 -0.47249700421E+01 -0.10155435940E+02  0.15050871875E+02  0.51100000000E-03 0. -1.
         12    1    3    3    0    0 -0.12471720726E+02  0.17161600334E+00 -0.42137596037E+01  0.13165448717E+02  0.00000000000E+00 0. -1.
</event>
<event>
 7    1  0.7457761E-012  0.5930194E+02  0.7816164E-02  0.1266605E+00
        -11   -1    0    0    0    0  0.00000000000E+00  0.00000000000E+00  0.45593999997E+02  0.45594000000E+02  0.51100000000E-03 0.  1.
         11   -1    0    0    0    0 -0.00000000000E+00 -0.00000000000E+00 -0.45593999997E+02  0.45594000000E+02  0.51100000000E-03 0. -1.
    9900012    2    1    2    0    0  0.27189668593E+02  0.16639694293E+02 -0.75053038491E+00  0.59301940346E+02  0.49999993286E+02 0.  0.
         12    1    1    2    0    0 -0.27189668593E+02 -0.16639694293E+02  0.75053038491E+00  0.31886059654E+02  0.00000000000E+00 0. -1.
         11    1    3    3    0    0 -0.74204699871E+01 -0.73886926604E+01 -0.61145705940E+01  0.12126175319E+02  0.51100000000E-03 0. -1.
        -11    1    3    3    0    0  0.26475718637E+02  0.12076674328E+02 -0.48135084166E+01  0.29495416656E+02  0.51100000000E-03 0.  1.
         12    1    3    3    0    0  0.81344199430E+01  0.11951712626E+02  0.10177548626E+02  0.17680348371E+02  0.00000000000E+00 0. -1.
</event>
<event>
 7    1  0.7457761E-012  0.5930194E+02  0.7816164E-02  0.1266605E+00
        -11   -1    0    0    0    0  0.00000000000E+00  0.00000000000E+00  0.45593999997E+02  0.45594000000E+02  0.51100000000E-03 0.  1.
         11   -1    0    0    0    0 -0.00000000000E+00 -0.00000000000E+00 -0.45593999997E+02  0.45594000000E+02  0.51100000000E-03 0. -1.
    9900012    2    1    2    0    0 -0.29124679592E+02 -0.12777119674E+02  0.22844914010E+01  0.59301942710E+02  0.49999997597E+02 0.  0.
         12    1    1    2    0    0  0.29124679592E+02  0.12777119674E+02 -0.22844914010E+01  0.31886057290E+02  0.00000000000E+00 0. -1.
         11    1    3    3    0    0 -0.41862594384E+00 -0.25924739974E+01  0.83657009819E+01  0.87681880846E+01  0.51100000000E-03 0. -1.
        -11    1    3    3    0    0 -0.71463618778E+01 -0.17893348488E+02 -0.16510492462E+02  0.25373978202E+02  0.51100000000E-03 0.  1.
        -12    1    3    3    0    0 -0.21559691771E+02  0.77087028106E+01  0.10429282881E+02  0.25159776424E+02  0.00000000000E+00 0.  1.
</event>
<event>
 7    1  0.7457761E-012  0.5930192E+02  0.7816164E-02  0.1266605E+00
        -11   -1    0    0    0    0  0.00000000000E+00  0.00000000000E+00  0.45593999997E+02  0.45594000000E+02  0.51100000000E-03 0.  1.
         11   -1    0    0    0    0 -0.00000000000E+00 -0.00000000000E+00 -0.45593999997E+02  0.45594000000E+02  0.51100000000E-03 0. -1.
    9900012    2    1    2    0    0  0.54950679100E+01 -0.21970002365E+02  0.22446493719E+02  0.59301923798E+02  0.49999963107E+02 0.  0.
         12    1    1    2    0    0 -0.54950679100E+01  0.21970002365E+02 -0.22446493719E+02  0.31886076202E+02  0.00000000000E+00 0. -1.
         11    1    3    3    0    0  0.13020889429E+02  0.19766439152E+01  0.16610847499E+02  0.21198371107E+02  0.51100000000E-03 0. -1.
        -11    1    3    3    0    0 -0.15672455271E+02 -0.10588841404E+02  0.10684423754E+02  0.21723405067E+02  0.51100000000E-03 0.  1.
        -12    1    3    3    0    0  0.81466337520E+01 -0.13357804877E+02 -0.48487775347E+01  0.16380147624E+02  0.00000000000E+00 0.  1.
</event>
<event>
 7    1  0.7457761E-012  0.5930192E+02  0.7816164E-02  0.1266605E+00
        -11   -1    0    0    0    0  0.00000000000E+00  0.00000000000E+00  0.45593999997E+02  0.45594000000E+02  0.51100000000E-03 0.  1.
         11   -1    0    0    0    0 -0.00000000000E+00 -0.00000000000E+00 -0.45593999997E+02  0.45594000000E+02  0.51100000000E-03 0. -1.
    9900012    2    1    2    0    0  0.18952493203E+02 -0.25638382382E+02 -0.44556044339E+00  0.59301918807E+02  0.49999954003E+02 0.  0.
         12    1    1    2    0    0 -0.18952493203E+02  0.25638382382E+02  0.44556044339E+00  0.31886081193E+02  0.00000000000E+00 0. -1.
         11    1    3    3    0    0  0.67980738883E+01 -0.24077542174E+02 -0.63692534815E+01  0.25816840161E+02  0.51100000000E-03 0. -1.
        -11    1    3    3    0    0  0.14005350354E+02  0.96217149352E+01  0.11829369964E+02  0.20704135598E+02  0.51100000000E-03 0.  1.
        -12    1    3    3    0    0 -0.18509310397E+01 -0.11182555143E+02 -0.59056769261E+01  0.12780943048E+02  0.00000000000E+00 0.  1.
</event>
<event>
 7    1  0.7457761E-012  0.5930194E+02  0.7816164E-02  0.1266605E+00
        -11   -1    0    0    0    0  0.00000000000E+00  0.00000000000E+00  0.45593999997E+02  0.45594000000E+02  0.51100000000E-03 0.  1.
         11   -1    0    0    0    0 -0.00000000000E+00 -0.00000000000E+00 -0.45593999997E+02  0.45594000000E+02  0.51100000000E-03 0. -1.
    9900012    2    1    2    0    0 -0.12608951008E+02 -0.28447361267E+02  0.69629700069E+01  0.59301937843E+02  0.49999988720E+02 0.  0.
         12    1    1    2    0    0  0.12608951008E+02  0.28447361267E+02 -0.69629700069E+01  0.31886062157E+02  0.00000000000E+00 0. -1.
         11    1    3    3    0    0 -0.89079747361E+00 -0.14491433386E+02 -0.29658434325E+01  0.14818616307E+02  0.51100000000E-03 0. -1.
        -11    1    3    3    0    0 -0.14533810156E+02  0.99272019395E+01  0.10374532918E+02  0.20430661015E+02  0.51100000000E-03 0.  1.
        -12    1    3    3    0    0  0.28156566222E+01 -0.23883129821E+02 -0.44571947825E+00  0.24052660520E+02  0.00000000000E+00 0.  1.
</event>
<event>
 7    1  0.7457761E-012  0.5930194E+02  0.7816164E-02  0.1266605E+00
        -11   -1    0    0    0    0  0.00000000000E+00  0.00000000000E+00  0.45593999997E+02  0.45594000000E+02  0.51100000000E-03 0. -1.
         11   -1    0    0    0    0 -0.00000000000E+00 -0.00000000000E+00 -0.45593999997E+02  0.45594000000E+02  0.51100000000E-03 0.  1.
    9900012    2    1    2    0    0  0.42414861416E+01  0.23131255023E+02  0.21533123300E+02  0.59301944072E+02  0.50000000080E+02 0.  0.
         12    1    1    2    0    0 -0.42414861416E+01 -0.23131255023E+02 -0.21533123300E+02  0.31886055928E+02  0.00000000000E+00 0. -1.
         11    1    3    3    0    0  0.19893917975E+02  0.23524295089E+02  0.70709078027E+01  0.31609463286E+02  0.51100000000E-03 0. -1.
        -11    1    3    3    0    0 -0.18248143316E+02  0.12397677017E+00  0.66142994910E+01  0.19410282397E+02  0.51100000000E-03 0.  1.
         12    1    3    3    0    0  0.25957114822E+01 -0.51701683649E+00  0.78479160060E+01  0.82821983884E+01  0.00000000000E+00 0. -1.
</event>
<event>
 7    1  0.7457761E-012  0.5930194E+02  0.7816164E-02  0.1266605E+00
        -11   -1    0    0    0    0  0.00000000000E+00  0.00000000000E+00  0.45593999997E+02  0.45594000000E+02  0.51100000000E-03 0.  1.
         11   -1    0    0    0    0 -0.00000000000E+00 -0.00000000000E+00 -0.45593999997E+02  0.45594000000E+02  0.51100000000E-03 0. -1.
    9900012    2    1    2    0    0  0.11894342454E+02  0.61104933268E+01  0.28946629666E+02  0.59301939094E+02  0.49999991002E+02 0.  0.
         12    1    1    2    0    0 -0.11894342454E+02 -0.61104933268E+01 -0.28946629666E+02  0.31886060906E+02  0.00000000000E+00 0. -1.
         11    1    3    3    0    0 -0.29185539251E+01  0.46816712706E+01  0.60150739421E+01  0.81619310025E+01  0.51100000000E-03 0. -1.
        -11    1    3    3    0    0  0.14463242156E+02 -0.99421934835E+01 -0.71711248185E+01  0.18959367509E+02  0.51100000000E-03 0.  1.
        -12    1    3    3    0    0  0.34965422365E+00  0.11371015540E+02  0.30102680542E+02  0.32180640582E+02  0.00000000000E+00 0.  1.
</event>
<event>
 7    1  0.7457761E-012  0.5930194E+02  0.7816164E-02  0.1266605E+00
        -11   -1    0    0    0    0  0.00000000000E+00  0.00000000000E+00  0.45593999997E+02  0.45594000000E+02  0.51100000000E-03 0. -1.
         11   -1    0    0    0    0 -0.00000000000E+00 -0.00000000000E+00 -0.45593999997E+02  0.45594000000E+02  0.51100000000E-03 0.  1.
    9900012    2    1    2    0    0 -0.27396169488E+02 -0.14687941368E+02  0.71017865291E+01  0.59301935706E+02  0.49999984824E+02 0.  0.
         12    1    1    2    0    0  0.27396169488E+02  0.14687941368E+02 -0.71017865291E+01  0.31886064294E+02  0.00000000000E+00 0. -1.
         11    1    3    3    0    0 -0.33937217252E+01  0.11254566887E+02 -0.93061131410E+01  0.14992877142E+02  0.51100000000E-03 0. -1.
        -11    1    3    3    0    0 -0.12868522713E+02 -0.98514764288E+00  0.10202515956E+01  0.12946439907E+02  0.51100000000E-03 0.  1.
         12    1    3    3    0    0 -0.11133925050E+02 -0.24957360612E+02  0.15387648074E+02  0.31362618656E+02  0.00000000000E+00 0. -1.
</event>
<event>
 7    1  0.7457761E-012  0.5930203E+02  0.7816164E-02  0.1266604E+00
        -11   -1    0    0    0    0  0.00000000000E+00  0.00000000000E+00  0.45593999997E+02  0.45594000000E+02  0.51100000000E-03 0.  1.
         11   -1    0    0    0    0 -0.00000000000E+00 -0.00000000000E+00 -0.45593999997E+02  0.45594000000E+02  0.51100000000E-03 0. -1.
    9900012    2    1    2    0    0 -0.19548926815E+02  0.21471377492E+02  0.13173258296E+02  0.59302026201E+02  0.50000149864E+02 0.  0.
         12    1    1    2    0    0  0.19548926815E+02 -0.21471377492E+02 -0.13173258296E+02  0.31885973799E+02  0.00000000000E+00 0. -1.
         11    1    3    3    0    0  0.81808331576E+01  0.97009273334E+01 -0.12392873029E+02  0.17737455411E+02  0.51100000000E-03 0. -1.
        -11    1    3    3    0    0 -0.48745800030E+01  0.15900209353E+01  0.12120945703E+02  0.13160813872E+02  0.51100000000E-03 0.  1.
         12    1    3    3    0    0 -0.22855179969E+02  0.10180429223E+02  0.13445185622E+02  0.28403756917E+02  0.00000000000E+00 0. -1.
</event>
<event>
 7    1  0.7457761E-012  0.5930185E+02  0.7816164E-02  0.1266605E+00
        -11   -1    0    0    0    0  0.00000000000E+00  0.00000000000E+00  0.45593999997E+02  0.45594000000E+02  0.51100000000E-03 0. -1.
         11   -1    0    0    0    0 -0.00000000000E+00 -0.00000000000E+00 -0.45593999997E+02  0.45594000000E+02  0.51100000000E-03 0.  1.
    9900012    2    1    2    0    0 -0.29892981951E+02  0.87982160368E+01  0.67622316795E+01  0.59301847008E+02  0.49999823058E+02 0.  0.
         12    1    1    2    0    0  0.29892981951E+02 -0.87982160368E+01 -0.67622316795E+01  0.31886152992E+02  0.00000000000E+00 0. -1.
         11    1    3    3    0    0  0.50073569095E+01  0.80942254990E+01 -0.27179367635E+01  0.98983478500E+01  0.51100000000E-03 0. -1.
        -11    1    3    3    0    0 -0.19610864795E+02  0.45902965723E+00  0.22119479814E+02  0.29564642966E+02  0.51100000000E-03 0.  1.
        -12    1    3    3    0    0 -0.15289474066E+02  0.24496088054E+00 -0.12639311371E+02  0.19838856191E+02  0.00000000000E+00 0.  1.
</event>
<event>
 7    1  0.7457761E-012  0.5930197E+02  0.7816164E-02  0.1266605E+00
        -11   -1    0    0    0    0  0.00000000000E+00  0.00000000000E+00  0.45593999997E+02  0.45594000000E+02  0.51100000000E-03 0.  1.
         11   -1    0    0    0    0 -0.00000000000E+00 -0.00000000000E+00 -0.45593999997E+02  0.45594000000E+02  0.51100000000E-03 0. -1.
    9900012    2    1    2    0    0 -0.11956330671E+02 -0.65821829333E+01  0.28817350568E+02  0.59301973765E+02  0.50000054234E+02 0.  0.
         12    1    1    2    0    0  0.11956330671E+02  0.65821829333E+01 -0.28817350568E+02  0.31886026235E+02  0.00000000000E+00 0. -1.
         11    1    3    3    0    0  0.12821096417E+02 -0.14758230146E+02  0.60337740867E+01  0.20459528352E+02  0.51100000000E-03 0. -1.
        -11    1    3    3    0    0 -0.12044860037E+02 -0.61758196545E+00  0.19647288494E+02  0.23053763385E+02  0.51100000000E-03 0.  1.
         12    1    3    3    0    0 -0.12732567051E+02  0.87936291785E+01  0.31362879876E+01  0.15788682028E+02  0.00000000000E+00 0. -1.
</event>
<event>
 7    1  0.7457761E-012  0.5930194E+02  0.7816164E-02  0.1266605E+00
        -11   -1    0    0    0    0  0.00000000000E+00  0.00000000000E+00  0.45593999997E+02  0.45594000000E+02  0.51100000000E-03 0.  1.
         11   -1    0    0    0    0 -0.00000000000E+00 -0.00000000000E+00 -0.45593999997E+02  0.45594000000E+02  0.51100000000E-03 0. -1.
    9900012    2    1    2    0    0  0.27244909537E+02  0.15843671655E+02 -0.48387900930E+01  0.59301938519E+02  0.49999989953E+02 0.  0.
         12    1    1    2    0    0 -0.27244909537E+02 -0.15843671655E+02  0.48387900930E+01  0.31886061481E+02  0.00000000000E+00 0. -1.
         11    1    3    3    0    0 -0.79849250745E+01  0.12142163860E+02 -0.58973830141E+01  0.15683440258E+02  0.51100000000E-03 0. -1.
        -11    1    3    3    0    0  0.12587760014E+02 -0.75210093951E+01 -0.80847300729E+01  0.16744555686E+02  0.51100000000E-03 0.  1.
         12    1    3    3    0    0  0.22642074598E+02  0.11222517190E+02  0.91433229939E+01  0.26873942575E+02  0.00000000000E+00 0. -1.
</event>
<event>
 7    1  0.7457761E-012  0.5930205E+02  0.7816164E-02  0.1266604E+00
        -11   -1    0    0    0    0  0.00000000000E+00  0.00000000000E+00  0.45593999997E+02  0.45594000000E+02  0.51100000000E-03 0.  1.
         11   -1    0    0    0    0 -0.00000000000E+00 -0.00000000000E+00 -0.45593999997E+02  0.45594000000E+02  0.51100000000E-03 0. -1.
    9900012    2    1    2    0    0  0.19357912749E+02  0.23796852420E+02  0.87002754317E+01  0.59302050686E+02  0.50000194518E+02 0.  0.
         12    1    1    2    0    0 -0.19357912749E+02 -0.23796852420E+02 -0.87002754317E+01  0.31885949314E+02  0.00000000000E+00 0. -1.
         11    1    3    3    0    0  0.26906642831E+02  0.74580232010E+01 -0.10261240052E+02  0.29746976085E+02  0.51100000000E-03 0. -1.
        -11    1    3    3    0    0 -0.26465108337E+01  0.15915604844E+02  0.90736416162E+01  0.18510577235E+02  0.51100000000E-03 0.  1.
         12    1    3    3    0    0 -0.49022192485E+01  0.42322437465E+00  0.98878738677E+01  0.11044497365E+02  0.00000000000E+00 0. -1.
</event>
<event>
 7    1  0.7457761E-012  0.5930194E+02  0.7816164E-02  0.1266605E+00
        -11   -1    0    0    0    0  0.00000000000E+00  0.00000000000E+00  0.45593999997E+02  0.45594000000E+02  0.51100000000E-03 0.  1.
         11   -1    0    0    0    0 -0.00000000000E+00 -0.00000000000E+00 -0.45593999997E+02  0.45594000000E+02  0.51100000000E-03 0. -1.
    9900012    2    1    2    0    0  0.23901313472E+01  0.14269633621E+02  0.28414529533E+02  0.59301942544E+02  0.49999997293E+02 0.  0.
         12    1    1    2    0    0 -0.23901313472E+01 -0.14269633621E+02 -0.28414529533E+02  0.31886057456E+02  0.00000000000E+00 0. -1.
         11    1    3    3    0    0  0.10530391897E+01  0.14818114158E+01 -0.13947000485E+02  0.14064973494E+02  0.51100000000E-03 0. -1.
        -11    1    3    3    0    0 -0.24860427675E+01  0.36066315940E+01  0.23593406822E+02  0.23996604882E+02  0.51100000000E-03 0.  1.
         12    1    3    3    0    0  0.38231349250E+01  0.91811906113E+01  0.18768123196E+02  0.21240364168E+02  0.00000000000E+00 0. -1.
</event>
<event>
 7    1  0.7457761E-012  0.5930194E+02  0.7816164E-02  0.1266605E+00
        -11   -1    0    0    0    0  0.00000000000E+00  0.00000000000E+00  0.45593999997E+02  0.45594000000E+02  0.51100000000E-03 0. -1.
         11   -1    0    0    0    0 -0.00000000000E+00 -0.00000000000E+00 -0.45593999997E+02  0.45594000000E+02  0.51100000000E-03 0.  1.
    9900012    2    1    2    0    0 -0.88178140596E+01  0.21842314257E+02 -0.21491402009E+02  0.59301938826E+02  0.49999990513E+02 0.  0.
         12    1    1    2    0    0  0.88178140596E+01 -0.21842314257E+02  0.21491402009E+02  0.31886061174E+02  0.00000000000E+00 0. -1.
         11    1    3    3    0    0 -0.21676671982E+02  0.69047524880E+01  0.22677748020E+01  0.22862557117E+02  0.51100000000E-03 0. -1.
        -11    1    3    3    0    0  0.15324281759E+02  0.15943731381E+02 -0.13655170844E+02  0.25990380390E+02  0.51100000000E-03 0.  1.
        -12    1    3    3    0    0 -0.24654238363E+01 -0.10061696119E+01 -0.10104005967E+02  0.10449001319E+02  0.00000000000E+00 0.  1.
</event>
<event>
 7    1  0.7457761E-012  0.5930195E+02  0.7816164E-02  0.1266605E+00
        -11   -1    0    0    0    0  0.00000000000E+00  0.00000000000E+00  0.45593999997E+02  0.45594000000E+02  0.51100000000E-03 0.  1.
         11   -1    0    0    0    0 -0.00000000000E+00 -0.00000000000E+00 -0.45593999997E+02  0.45594000000E+02  0.51100000000E-03 0. -1.
    9900012    2    1    2    0    0 -0.21377193712E+02 -0.36867217236E+01  0.23369715788E+02  0.59301953771E+02  0.50000017770E+02 0.  0.
         12    1    1    2    0    0  0.21377193712E+02  0.36867217236E+01 -0.23369715788E+02  0.31886046229E+02  0.00000000000E+00 0. -1.
         11    1    3    3    0    0 -0.54301718048E+01  0.24769691946E+01  0.57019885835E+01  0.82543816417E+01  0.51100000000E-03 0. -1.
        -11    1    3    3    0    0 -0.18985517486E+02 -0.38445430548E+01 -0.10898809454E+02  0.22226435461E+02  0.51100000000E-03 0.  1.
        -12    1    3    3    0    0  0.30384955787E+01 -0.23191478634E+01  0.28566536659E+02  0.28821136669E+02  0.00000000000E+00 0.  1.
</event>
<event>
 7    1  0.7457761E-012  0.5930198E+02  0.7816164E-02  0.1266605E+00
        -11   -1    0    0    0    0  0.00000000000E+00  0.00000000000E+00  0.45593999997E+02  0.45594000000E+02  0.51100000000E-03 0.  1.
         11   -1    0    0    0    0 -0.00000000000E+00 -0.00000000000E+00 -0.45593999997E+02  0.45594000000E+02  0.51100000000E-03 0. -1.
    9900012    2    1    2    0    0 -0.24745175243E+02  0.76190993067E+01  0.18610312386E+02  0.59301982702E+02  0.50000070532E+02 0.  0.
         12    1    1    2    0    0  0.24745175243E+02 -0.76190993067E+01 -0.18610312386E+02  0.31886017298E+02  0.00000000000E+00 0. -1.
         11    1    3    3    0    0  0.13310894583E+01 -0.60478038213E+01  0.22238487022E+02  0.23084584369E+02  0.51100000000E-03 0. -1.
        -11    1    3    3    0    0 -0.11624200891E+02  0.17222364954E+02 -0.46751445586E+01  0.21297626109E+02  0.51100000000E-03 0.  1.
         12    1    3    3    0    0 -0.14452063810E+02 -0.35554618264E+01  0.10469699228E+01  0.14919772223E+02  0.00000000000E+00 0. -1.
</event>
<event>
 7    1  0.7457761E-012  0.5930193E+02  0.7816164E-02  0.1266605E+00
        -11   -1    0    0    0    0  0.00000000000E+00  0.00000000000E+00  0.45593999997E+02  0.45594000000E+02  0.51100000000E-03 0.  1.
         11   -1    0    0    0    0 -0.00000000000E+00 -0.00000000000E+00 -0.45593999997E+02  0.45594000000E+02  0.51100000000E-03 0. -1.
    9900012    2    1    2    0    0  0.32076899773E+00 -0.26919489543E+02  0.17086826395E+02  0.59301930216E+02  0.49999974811E+02 0.  0.
         12    1    1    2    0    0 -0.32076899773E+00  0.26919489543E+02 -0.17086826395E+02  0.31886069784E+02  0.00000000000E+00 0. -1.
         11    1    3    3    0    0 -0.10126447437E+02 -0.64520231058E+01 -0.14199224474E+02  0.18595470303E+02  0.51100000000E-03 0. -1.
        -11    1    3    3    0    0  0.37383151071E+01 -0.71905849683E+01  0.21300359020E+02  0.22790015504E+02  0.51100000000E-03 0.  1.
         12    1    3    3    0    0  0.67089013275E+01 -0.13276881469E+02  0.99856918489E+01  0.17916444409E+02  0.00000000000E+00 0. -1.
</event>
<event>
 7    1  0.7457761E-012  0.5930196E+02  0.7816164E-02  0.1266605E+00
        -11   -1    0    0    0    0  0.00000000000E+00  0.00000000000E+00  0.45593999997E+02  0.45594000000E+02  0.51100000000E-03 0.  1.
         11   -1    0    0    0    0 -0.00000000000E+00 -0.00000000000E+00 -0.45593999997E+02  0.45594000000E+02  0.51100000000E-03 0. -1.
    9900012    2    1    2    0    0 -0.20642086950E+02  0.13604464999E+02  0.20138083648E+02  0.59301958625E+02  0.50000026622E+02 0.  0.
         12    1    1    2    0    0  0.20642086950E+02 -0.13604464999E+02 -0.20138083648E+02  0.31886041375E+02  0.00000000000E+00 0. -1.
         11    1    3    3    0    0 -0.14210656710E+01 -0.11243426333E+02  0.62969601955E+01  0.12964789675E+02  0.51100000000E-03 0. -1.
        -11    1    3    3    0    0 -0.29889610833E+01  0.13780697688E+02 -0.85959638575E+01  0.16514602993E+02  0.51100000000E-03 0.  1.
        -12    1    3    3    0    0 -0.16232060196E+02  0.11067193644E+02  0.22437087310E+02  0.29822565957E+02  0.00000000000E+00 0.  1.
</event>
<event>
 7    1  0.7457761E-012  0.5930193E+02  0.7816164E-02  0.1266605E+00
        -11   -1    0    0    0    0  0.00000000000E+00  0.00000000000E+00  0.45593999997E+02  0.45594000000E+02  0.51100000000E-03 0. -1.
         11   -1    0    0    0    0 -0.00000000000E+00 -0.00000000000E+00 -0.45593999997E+02  0.45594000000E+02  0.51100000000E-03 0.  1.
    9900012    2    1    2    0    0 -0.15857214275E+02  0.26558077532E+02 -0.77420130676E+01  0.59301929482E+02  0.49999973471E+02 0.  0.
         12    1    1    2    0    0  0.15857214275E+02 -0.26558077532E+02  0.77420130676E+01  0.31886070518E+02  0.00000000000E+00 0. -1.
         11    1    3    3    0    0 -0.18860743189E+02  0.95089265290E+01 -0.42768091177E+01  0.21550833252E+02  0.51100000000E-03 0. -1.
        -11    1    3    3    0    0  0.80314997343E+01 -0.60440608328E+01  0.66403924674E+01  0.12047010904E+02  0.51100000000E-03 0.  1.
        -12    1    3    3    0    0 -0.50279708201E+01  0.23093211836E+02 -0.10105596417E+02  0.25704085326E+02  0.00000000000E+00 0.  1.
</event>
<event>
 7    1  0.7457761E-012  0.5930194E+02  0.7816164E-02  0.1266605E+00
        -11   -1    0    0    0    0  0.00000000000E+00  0.00000000000E+00  0.45593999997E+02  0.45594000000E+02  0.51100000000E-03 0.  1.
         11   -1    0    0    0    0 -0.00000000000E+00 -0.00000000000E+00 -0.45593999997E+02  0.45594000000E+02  0.51100000000E-03 0. -1.
    9900012    2    1    2    0    0 -0.27539352779E+02 -0.15538380915E+02  0.41065446360E+01  0.59301938127E+02  0.49999989238E+02 0.  0.
         12    1    1    2    0    0  0.27539352779E+02  0.15538380915E+02 -0.41065446360E+01  0.31886061873E+02  0.00000000000E+00 0. -1.
         11    1    3    3    0    0 -0.26697583396E+02  0.69873980711E+01 -0.34108372617E+00  0.27598931671E+02  0.51100000000E-03 0. -1.
        -11    1    3    3    0    0  0.15643503436E+01 -0.83568976918E+01  0.12584791842E+02  0.15187557967E+02  0.51100000000E-03 0.  1.
         12    1    3    3    0    0 -0.24061197261E+01 -0.14168881295E+02 -0.81371634801E+01  0.16515448489E+02  0.00000000000E+00 0. -1.
</event>
<event>
 7    1  0.7457761E-012  0.5930191E+02  0.7816164E-02  0.1266605E+00
        -11   -1    0    0    0    0  0.00000000000E+00  0.00000000000E+00  0.45593999997E+02  0.45594000000E+02  0.51100000000E-03 0.  1.
         11   -1    0    0    0    0 -0.00000000000E+00 -0.00000000000E+00 -0.45593999997E+02  0.45594000000E+02  0.51100000000E-03 0. -1.
    9900012    2    1    2    0    0  0.14536383655E+02 -0.10286324922E+02 -0.26450096874E+02  0.59301912833E+02  0.49999943109E+02 0.  0.
         12    1    1    2    0    0 -0.14536383655E+02  0.10286324922E+02  0.26450096874E+02  0.31886087167E+02  0.00000000000E+00 0. -1.
         11    1    3    3    0    0  0.18733297713E+02  0.13923014656E+01 -0.16934601398E+02  0.25291414973E+02  0.51100000000E-03 0. -1.
        -11    1    3    3    0    0 -0.16823898944E+02 -0.29763612464E+01 -0.29909687112E+01  0.17344976104E+02  0.51100000000E-03 0.  1.
        -12    1    3    3    0    0  0.12626984886E+02 -0.87022651413E+01 -0.65245267650E+01  0.16665521756E+02  0.00000000000E+00 0.  1.
</event>
<event>
 7    1  0.7457761E-012  0.5930195E+02  0.7816164E-02  0.1266605E+00
        -11   -1    0    0    0    0  0.00000000000E+00  0.00000000000E+00  0.45593999997E+02  0.45594000000E+02  0.51100000000E-03 0.  1.
         11   -1    0    0    0    0 -0.00000000000E+00 -0.00000000000E+00 -0.45593999997E+02  0.45594000000E+02  0.51100000000E-03 0. -1.
    9900012    2    1    2    0    0  0.25931465592E+02 -0.11244597963E+02  0.14759354434E+02  0.59301946083E+02  0.50000003748E+02 0.  0.
         12    1    1    2    0    0 -0.25931465592E+02  0.11244597963E+02 -0.14759354434E+02  0.31886053917E+02  0.00000000000E+00 0. -1.
         11    1    3    3    0    0 -0.71739461325E+01  0.12894305238E+02  0.54083563312E+01  0.15715563278E+02  0.51100000000E-03 0. -1.
        -11    1    3    3    0    0  0.17031346170E+02 -0.17598163943E+02  0.94009971556E+01  0.26232439351E+02  0.51100000000E-03 0.  1.
         12    1    3    3    0    0  0.16074065554E+02 -0.65407392577E+01 -0.49999052868E-01  0.17353943454E+02  0.00000000000E+00 0. -1.
</event>
<event>
 7    1  0.7457761E-012  0.5930194E+02  0.7816164E-02  0.1266605E+00
        -11   -1    0    0    0    0  0.00000000000E+00  0.00000000000E+00  0.45593999997E+02  0.45594000000E+02  0.51100000000E-03 0.  1.
         11   -1    0    0    0    0 -0.00000000000E+00 -0.00000000000E+00 -0.45593999997E+02  0.45594000000E+02  0.51100000000E-03 0. -1.
    9900012    2    1    2    0    0  0.16390298000E+02 -0.20048542905E+02  0.18604693989E+02  0.59301943807E+02  0.49999999597E+02 0.  0.
         12    1    1    2    0    0 -0.16390298000E+02  0.20048542905E+02 -0.18604693989E+02  0.31886056193E+02  0.00000000000E+00 0. -1.
         11    1    3    3    0    0  0.25311063785E+02  0.51178805419E+01 -0.10484197043E+01  0.25844570713E+02  0.51100000000E-03 0. -1.
        -11    1    3    3    0    0 -0.16928882983E+01 -0.10483060884E+02  0.64017257425E+01  0.12399295506E+02  0.51100000000E-03 0.  1.
         12    1    3    3    0    0 -0.72278774871E+01 -0.14683362563E+02  0.13251387950E+02  0.21058077589E+02  0.00000000000E+00 0. -1.
</event>
<event>
 7    1  0.7457761E-012  0.5930196E+02  0.7816164E-02  0.1266605E+00
        -11   -1    0    0    0    0  0.00000000000E+00  0.00000000000E+00  0.45593999997E+02  0.45594000000E+02  0.51100000000E-03 0.  1.
         11   -1    0    0    0    0 -0.00000000000E+00 -0.00000000000E+00 -0.45593999997E+02  0.45594000000E+02  0.51100000000E-03 0. -1.
    9900012    2    1    2    0    0  0.17945199913E+02 -0.23868711366E+02  0.11179173717E+02  0.59301960623E+02  0.50000030266E+02 0.  0.
         12    1    1    2    0    0 -0.17945199913E+02  0.23868711366E+02 -0.11179173717E+02  0.31886039377E+02  0.00000000000E+00 0. -1.
         11    1    3    3    0    0 -0.82040240248E+01 -0.85884642882E+01 -0.12793944692E+02  0.17457169017E+02  0.51100000000E-03 0. -1.
        -11    1    3    3    0    0  0.22727213052E+02 -0.17601609727E+02  0.24376246043E+02  0.37690108112E+02  0.51100000000E-03 0.  1.
        -12    1    3    3    0    0  0.34220108858E+01  0.23213626488E+01 -0.40312763445E+00  0.41546834945E+01  0.00000000000E+00 0.  1.
</event>
<event>
 7    1  0.7457761E-012  0.5930196E+02  0.7816164E-02  0.1266605E+00
        -11   -1    0    0    0    0  0.00000000000E+00  0.00000000000E+00  0.45593999997E+02  0.45594000000E+02  0.51100000000E-03 0. -1.
         11   -1    0    0    0    0 -0.00000000000E+00 -0.00000000000E+00 -0.45593999997E+02  0.45594000000E+02  0.51100000000E-03 0.  1.
    9900012    2    1    2    0    0 -0.16898306072E+02 -0.26927706172E+02 -0.24628546829E+01  0.59301956643E+02  0.50000023007E+02 0.  0.
         12    1    1    2    0    0  0.16898306072E+02  0.26927706172E+02  0.24628546829E+01  0.31886043357E+02  0.00000000000E+00 0. -1.
         11    1    3    3    0    0  0.56838473328E+01 -0.73159293109E+01  0.17275294004E+02  0.19602671384E+02  0.51100000000E-03 0. -1.
        -11    1    3    3    0    0 -0.58889584116E+01 -0.14971283500E+02 -0.14341167799E+02  0.21551989581E+02  0.51100000000E-03 0.  1.
         12    1    3    3    0    0 -0.16693194993E+02 -0.46404933611E+01 -0.53969808886E+01  0.18147295678E+02  0.00000000000E+00 0. -1.
</event>
<event>
 7    1  0.7457761E-012  0.5930194E+02  0.7816164E-02  0.1266605E+00
        -11   -1    0    0    0    0  0.00000000000E+00  0.00000000000E+00  0.45593999997E+02  0.45594000000E+02  0.51100000000E-03 0.  1.
         11   -1    0    0    0    0 -0.00000000000E+00 -0.00000000000E+00 -0.45593999997E+02  0.45594000000E+02  0.51100000000E-03 0. -1.
    9900012    2    1    2    0    0 -0.31333232203E+02  0.59106558105E+01  0.11705064688E+00  0.59301937320E+02  0.49999987767E+02 0.  0.
         12    1    1    2    0    0  0.31333232203E+02 -0.59106558105E+01 -0.11705064688E+00  0.31886062680E+02  0.00000000000E+00 0. -1.
         11    1    3    3    0    0  0.25338106226E+01 -0.49502054266E+01 -0.15790255254E+02  0.16740874866E+02  0.51100000000E-03 0. -1.
        -11    1    3    3    0    0 -0.12147010852E+02 -0.40774256348E+01  0.77138849180E+01  0.14955911648E+02  0.51100000000E-03 0.  1.
         12    1    3    3    0    0 -0.21720031973E+02  0.14938286872E+02  0.81934209828E+01  0.27605150805E+02  0.00000000000E+00 0. -1.
</event>
<event>
 7    1  0.7457761E-012  0.5930194E+02  0.7816164E-02  0.1266605E+00
        -11   -1    0    0    0    0  0.00000000000E+00  0.00000000000E+00  0.45593999997E+02  0.45594000000E+02  0.51100000000E-03 0.  1.
         11   -1    0    0    0    0 -0.00000000000E+00 -0.00000000000E+00 -0.45593999997E+02  0.45594000000E+02  0.51100000000E-03 0. -1.
    9900012    2    1    2    0    0  0.17320990911E+02  0.22819180977E+02  0.13999618848E+02  0.59301936046E+02  0.49999985443E+02 0.  0.
         12    1    1    2    0    0 -0.17320990911E+02 -0.22819180977E+02 -0.13999618848E+02  0.31886063954E+02  0.00000000000E+00 0. -1.
         11    1    3    3    0    0 -0.84301331767E+01  0.15793021765E+02 -0.11715559924E+02  0.21394883184E+02  0.51100000000E-03 0. -1.
        -11    1    3    3    0    0  0.12668212171E+02  0.75457303843E+01  0.14186233439E+02  0.20461448289E+02  0.51100000000E-03 0.  1.
         12    1    3    3    0    0  0.13082911917E+02 -0.51957117228E+00  0.11528945333E+02  0.17445604573E+02  0.00000000000E+00 0. -1.
</event>
<event>
 7    1  0.7457761E-012  0.5930191E+02  0.7816164E-02  0.1266605E+00
        -11   -1    0    0    0    0  0.00000000000E+00  0.00000000000E+00  0.45593999997E+02  0.45594000000E+02  0.51100000000E-03 0.  1.
         11   -1    0    0    0    0 -0.00000000000E+00 -0.00000000000E+00 -0.45593999997E+02  0.45594000000E+02  0.51100000000E-03 0. -1.
    9900012    2    1    2    0    0 -0.13600399631E+02  0.28591290717E+02  0.37802171701E+01  0.59301908724E+02  0.49999935614E+02 0.  0.
         12    1    1    2    0    0  0.13600399631E+02 -0.28591290717E+02 -0.37802171701E+01  0.31886091276E+02  0.00000000000E+00 0. -1.
         11    1    3    3    0    0 -0.81959523028E+00 -0.10924901585E+02  0.21675460031E+01  0.11167966105E+02  0.51100000000E-03 0.  1.
        -11    1    3    3    0    0 -0.15626476685E+01  0.36364628666E+02  0.22187458051E+01  0.36465749944E+02  0.51100000000E-03 0. -1.
         12    1    3    3    0    0 -0.11218156733E+02  0.31515636367E+01 -0.60607463811E+00  0.11668192675E+02  0.00000000000E+00 0. -1.
</event>
<event>
 7    1  0.7457761E-012  0.5930194E+02  0.7816164E-02  0.1266605E+00
        -11   -1    0    0    0    0  0.00000000000E+00  0.00000000000E+00  0.45593999997E+02  0.45594000000E+02  0.51100000000E-03 0.  1.
         11   -1    0    0    0    0 -0.00000000000E+00 -0.00000000000E+00 -0.45593999997E+02  0.45594000000E+02  0.51100000000E-03 0. -1.
    9900012    2    1    2    0    0  0.17656572292E+02 -0.99735754669E+01  0.24606786368E+02  0.59301942105E+02  0.49999996494E+02 0.  0.
         12    1    1    2    0    0 -0.17656572292E+02  0.99735754669E+01 -0.24606786368E+02  0.31886057895E+02  0.00000000000E+00 0. -1.
         11    1    3    3    0    0  0.32155660036E+02 -0.33594242257E+00  0.75376322015E+01  0.33029005876E+02  0.51100000000E-03 0. -1.
        -11    1    3    3    0    0 -0.20671428232E+01 -0.63690956301E+01  0.34029486200E+01  0.75112261429E+01  0.51100000000E-03 0.  1.
         12    1    3    3    0    0 -0.12431944921E+02 -0.32685374142E+01  0.13666205547E+02  0.18761710087E+02  0.00000000000E+00 0. -1.
</event>
<event>
 7    1  0.7457761E-012  0.5930195E+02  0.7816164E-02  0.1266605E+00
        -11   -1    0    0    0    0  0.00000000000E+00  0.00000000000E+00  0.45593999997E+02  0.45594000000E+02  0.51100000000E-03 0. -1.
         11   -1    0    0    0    0 -0.00000000000E+00 -0.00000000000E+00 -0.45593999997E+02  0.45594000000E+02  0.51100000000E-03 0.  1.
    9900012    2    1    2    0    0  0.13658035408E+02  0.13386605333E+02 -0.25514258074E+02  0.59301945075E+02  0.50000001911E+02 0.  0.
         12    1    1    2    0    0 -0.13658035408E+02 -0.13386605333E+02  0.25514258074E+02  0.31886054925E+02  0.00000000000E+00 0. -1.
         11    1    3    3    0    0 -0.65840774379E+01  0.81423494229E+01 -0.88072111310E+00  0.10508263404E+02  0.51100000000E-03 0. -1.
        -11    1    3    3    0    0  0.13856819380E+02 -0.25703529640E+01 -0.32872383304E+02  0.35766069704E+02  0.51100000000E-03 0.  1.
         12    1    3    3    0    0  0.63852934662E+01  0.78146088742E+01  0.82388463431E+01  0.13027611967E+02  0.00000000000E+00 0. -1.
</event>
<event>
 7    1  0.7457761E-012  0.5930193E+02  0.7816164E-02  0.1266605E+00
        -11   -1    0    0    0    0  0.00000000000E+00  0.00000000000E+00  0.45593999997E+02  0.45594000000E+02  0.51100000000E-03 0.  1.
         11   -1    0    0    0    0 -0.00000000000E+00 -0.00000000000E+00 -0.45593999997E+02  0.45594000000E+02  0.51100000000E-03 0. -1.
    9900012    2    1    2    0    0 -0.18990215483E+02 -0.25467228920E+02  0.27410299664E+01  0.59301932851E+02  0.49999979616E+02 0.  0.
         12    1    1    2    0    0  0.18990215483E+02  0.25467228920E+02 -0.27410299664E+01  0.31886067149E+02  0.00000000000E+00 0. -1.
         11    1    3    3    0    0  0.10254501352E+02  0.22751249527E+01  0.10192533647E+02  0.14636213101E+02  0.51100000000E-03 0. -1.
        -11    1    3    3    0    0 -0.22467873993E+02 -0.23608203344E+02 -0.12885670262E+02  0.35045586387E+02  0.51100000000E-03 0.  1.
        -12    1    3    3    0    0 -0.67768428412E+01 -0.41341505293E+01  0.54341665809E+01  0.96201333630E+01  0.00000000000E+00 0.  1.
</event>
<event>
 7    1  0.7457761E-012  0.5930194E+02  0.7816164E-02  0.1266605E+00
        -11   -1    0    0    0    0  0.00000000000E+00  0.00000000000E+00  0.45593999997E+02  0.45594000000E+02  0.51100000000E-03 0.  1.
         11   -1    0    0    0    0 -0.00000000000E+00 -0.00000000000E+00 -0.45593999997E+02  0.45594000000E+02  0.51100000000E-03 0. -1.
    9900012    2    1    2    0    0  0.20033512872E+02 -0.12302680292E+02  0.21541198496E+02  0.59301940146E+02  0.49999992921E+02 0.  0.
         12    1    1    2    0    0 -0.20033512872E+02  0.12302680292E+02 -0.21541198496E+02  0.31886059854E+02  0.00000000000E+00 0. -1.
         11    1    3    3    0    0  0.12187001644E+02  0.14294170151E+02  0.85844557991E+01  0.20652825255E+02  0.51100000000E-03 0. -1.
        -11    1    3    3    0    0 -0.41588918653E+01 -0.16040866282E+02  0.15224173079E+02  0.22502915785E+02  0.51100000000E-03 0.  1.
        -12    1    3    3    0    0  0.12005403093E+02 -0.10555984161E+02 -0.22674303823E+01  0.16146199106E+02  0.00000000000E+00 0.  1.
</event>
<event>
 7    1  0.7457761E-012  0.5930190E+02  0.7816164E-02  0.1266605E+00
        -11   -1    0    0    0    0  0.00000000000E+00  0.00000000000E+00  0.45593999997E+02  0.45594000000E+02  0.51100000000E-03 0. -1.
         11   -1    0    0    0    0 -0.00000000000E+00 -0.00000000000E+00 -0.45593999997E+02  0.45594000000E+02  0.51100000000E-03 0.  1.
    9900012    2    1    2    0    0  0.23661858291E+01  0.25556810803E+02 -0.18920204945E+02  0.59301896931E+02  0.49999914106E+02 0.  0.
         12    1    1    2    0    0 -0.23661858291E+01 -0.25556810803E+02  0.18920204945E+02  0.31886103069E+02  0.00000000000E+00 0. -1.
         11    1    3    3    0    0  0.32060182757E+01 -0.75191766382E+01 -0.43667831531E+01  0.92674357763E+01  0.51100000000E-03 0. -1.
        -11    1    3    3    0    0  0.13923639372E+02  0.29578801035E+02 -0.10337810629E+02  0.34287658609E+02  0.51100000000E-03 0.  1.
        -12    1    3    3    0    0 -0.14763471819E+02  0.34971864058E+01 -0.42156111628E+01  0.15746802545E+02  0.00000000000E+00 0.  1.
</event>
<event>
 7    1  0.7457761E-012  0.5930186E+02  0.7816164E-02  0.1266605E+00
        -11   -1    0    0    0    0  0.00000000000E+00  0.00000000000E+00  0.45593999997E+02  0.45594000000E+02  0.51100000000E-03 0. -1.
         11   -1    0    0    0    0 -0.00000000000E+00 -0.00000000000E+00 -0.45593999997E+02  0.45594000000E+02  0.51100000000E-03 0.  1.
    9900012    2    1    2    0    0 -0.57029950669E+01 -0.69180961486E-01 -0.31371912883E+02  0.59301861057E+02  0.49999848681E+02 0.  0.
         12    1    1    2    0    0  0.57029950669E+01  0.69180961486E-01  0.31371912883E+02  0.31886138943E+02  0.00000000000E+00 0. -1.
         11    1    3    3    0    0 -0.97640415979E+01 -0.72605226282E+00  0.17344018835E+01  0.99434305131E+01  0.51100000000E-03 0. -1.
        -11    1    3    3    0    0  0.14390622694E+02  0.13518106656E+02 -0.21489450371E+02  0.29182626794E+02  0.51100000000E-03 0.  1.
        -12    1    3    3    0    0 -0.10329576163E+02 -0.12861235355E+02 -0.11616864396E+02  0.20175803750E+02  0.00000000000E+00 0.  1.
</event>
<event>
 7    1  0.7457761E-012  0.5930195E+02  0.7816164E-02  0.1266605E+00
        -11   -1    0    0    0    0  0.00000000000E+00  0.00000000000E+00  0.45593999997E+02  0.45594000000E+02  0.51100000000E-03 0. -1.
         11   -1    0    0    0    0 -0.00000000000E+00 -0.00000000000E+00 -0.45593999997E+02  0.45594000000E+02  0.51100000000E-03 0.  1.
    9900012    2    1    2    0    0  0.14228832492E+02 -0.28238470730E+02 -0.41048196202E+01  0.59301945880E+02  0.50000003378E+02 0.  0.
         12    1    1    2    0    0 -0.14228832492E+02  0.28238470730E+02  0.41048196202E+01  0.31886054120E+02  0.00000000000E+00 0. -1.
         11    1    3    3    0    0  0.26915309489E+02 -0.99428535886E+01  0.65476315221E+01  0.29430693182E+02  0.51100000000E-03 0. -1.
        -11    1    3    3    0    0 -0.63354994543E+01 -0.13250849946E+02 -0.14722950841E+02  0.20796366494E+02  0.51100000000E-03 0.  1.
         12    1    3    3    0    0 -0.63509775427E+01 -0.50447671951E+01  0.40704996990E+01  0.90748862032E+01  0.00000000000E+00 0. -1.
</event>
<event>
 7    1  0.7457761E-012  0.5930191E+02  0.7816164E-02  0.1266605E+00
        -11   -1    0    0    0    0  0.00000000000E+00  0.00000000000E+00  0.45593999997E+02  0.45594000000E+02  0.51100000000E-03 0. -1.
         11   -1    0    0    0    0 -0.00000000000E+00 -0.00000000000E+00 -0.45593999997E+02  0.45594000000E+02  0.51100000000E-03 0.  1.
    9900012    2    1    2    0    0 -0.13169200834E+02 -0.28263704933E+02  0.66676886444E+01  0.59301906809E+02  0.49999932122E+02 0.  0.
         12    1    1    2    0    0  0.13169200834E+02  0.28263704933E+02 -0.66676886444E+01  0.31886093191E+02  0.00000000000E+00 0. -1.
         11    1    3    3    0    0 -0.11594211624E+01  0.82623860618E+01 -0.11065239711E+02  0.13858239823E+02  0.51100000000E-03 0. -1.
        -11    1    3    3    0    0  0.56561520891E+00 -0.15816506944E+02  0.13595459891E+02  0.20864283893E+02  0.51100000000E-03 0.  1.
         12    1    3    3    0    0 -0.12575394880E+02 -0.20709584051E+02  0.41374684647E+01  0.24579383093E+02  0.00000000000E+00 0. -1.
</event>
<event>
 7    1  0.7457761E-012  0.5930196E+02  0.7816164E-02  0.1266605E+00
        -11   -1    0    0    0    0  0.00000000000E+00  0.00000000000E+00  0.45593999997E+02  0.45594000000E+02  0.51100000000E-03 0.  1.
         11   -1    0    0    0    0 -0.00000000000E+00 -0.00000000000E+00 -0.45593999997E+02  0.45594000000E+02  0.51100000000E-03 0. -1.
    9900012    2    1    2    0    0 -0.27766612818E+02 -0.50036273530E+01  0.14855934033E+02  0.59301955245E+02  0.50000020458E+02 0.  0.
         12    1    1    2    0    0  0.27766612818E+02  0.50036273530E+01 -0.14855934033E+02  0.31886044755E+02  0.00000000000E+00 0. -1.
         11    1    3    3    0    0 -0.19758613581E+02  0.15634460188E+02 -0.10736565691E+01  0.25218879727E+02  0.51100000000E-03 0. -1.
        -11    1    3    3    0    0  0.56255529554E+01 -0.80288820600E+00  0.53035395332E+01  0.77729664457E+01  0.51100000000E-03 0.  1.
         12    1    3    3    0    0 -0.13633552193E+02 -0.19835199335E+02  0.10626051069E+02  0.26310109072E+02  0.00000000000E+00 0. -1.
</event>
<event>
 7    1  0.7457761E-012  0.5930181E+02  0.7816164E-02  0.1266605E+00
        -11   -1    0    0    0    0  0.00000000000E+00  0.00000000000E+00  0.45593999997E+02  0.45594000000E+02  0.51100000000E-03 0.  1.
         11   -1    0    0    0    0 -0.00000000000E+00 -0.00000000000E+00 -0.45593999997E+02  0.45594000000E+02  0.51100000000E-03 0. -1.
    9900012    2    1    2    0    0 -0.13808417139E+02 -0.16621971351E+02  0.23447109384E+02  0.59301807785E+02  0.49999751526E+02 0.  0.
         12    1    1    2    0    0  0.13808417139E+02  0.16621971351E+02 -0.23447109384E+02  0.31886192215E+02  0.00000000000E+00 0. -1.
         11    1    3    3    0    0  0.10597931613E+02 -0.49492885322E+01  0.76396258601E+01  0.13970522359E+02  0.51100000000E-03 0. -1.
        -11    1    3    3    0    0 -0.25887295491E+02 -0.13863753428E+02  0.23235484309E+02  0.37446541339E+02  0.51100000000E-03 0.  1.
        -12    1    3    3    0    0  0.14809467397E+01  0.21910706091E+01 -0.74280007847E+01  0.78847440870E+01  0.00000000000E+00 0.  1.
</event>
<event>
 7    1  0.7457761E-012  0.5930190E+02  0.7816164E-02  0.1266605E+00
        -11   -1    0    0    0    0  0.00000000000E+00  0.00000000000E+00  0.45593999997E+02  0.45594000000E+02  0.51100000000E-03 0. -1.
         11   -1    0    0    0    0 -0.00000000000E+00 -0.00000000000E+00 -0.45593999997E+02  0.45594000000E+02  0.51100000000E-03 0.  1.
    9900012    2    1    2    0    0 -0.18726736759E+01 -0.34937795620E+01 -0.31638737465E+02  0.59301904116E+02  0.49999927211E+02 0.  0.
         12    1    1    2    0    0  0.18726736759E+01  0.34937795620E+01  0.31638737465E+02  0.31886095884E+02  0.00000000000E+00 0. -1.
         11    1    3    3    0    0  0.13526899655E+02 -0.44382518737E+01  0.63553875716E+01  0.15590575532E+02  0.51100000000E-03 0. -1.
        -11    1    3    3    0    0 -0.90400460623E+01 -0.46409136727E+01 -0.31335702082E+02  0.32942172633E+02  0.51100000000E-03 0.  1.
         12    1    3    3    0    0 -0.63595272684E+01  0.55853859844E+01 -0.66584229547E+01  0.10769155952E+02  0.00000000000E+00 0. -1.
</event>
<event>
 7    1  0.7457761E-012  0.5930193E+02  0.7816164E-02  0.1266605E+00
        -11   -1    0    0    0    0  0.00000000000E+00  0.00000000000E+00  0.45593999997E+02  0.45594000000E+02  0.51100000000E-03 0.  1.
         11   -1    0    0    0    0 -0.00000000000E+00 -0.00000000000E+00 -0.45593999997E+02  0.45594000000E+02  0.51100000000E-03 0. -1.
    9900012    2    1    2    0    0  0.99483833537E+01  0.85977984476E+01  0.29048731028E+02  0.59301933390E+02  0.49999980599E+02 0.  0.
         12    1    1    2    0    0 -0.99483833537E+01 -0.85977984476E+01 -0.29048731028E+02  0.31886066610E+02  0.00000000000E+00 0. -1.
         11    1    3    3    0    0 -0.28927737161E-01  0.76369819514E+01  0.89970714385E+00  0.76898506713E+01  0.51100000000E-03 0. -1.
        -11    1    3    3    0    0  0.13672538435E+02  0.47361803820E+01  0.37874522070E+02  0.40544409407E+02  0.51100000000E-03 0.  1.
        -12    1    3    3    0    0 -0.36952273441E+01 -0.37753638858E+01 -0.97254981851E+01  0.11067673312E+02  0.00000000000E+00 0.  1.
</event>
<event>
 7    1  0.7457761E-012  0.5930193E+02  0.7816164E-02  0.1266605E+00
        -11   -1    0    0    0    0  0.00000000000E+00  0.00000000000E+00  0.45593999997E+02  0.45594000000E+02  0.51100000000E-03 0. -1.
         11   -1    0    0    0    0 -0.00000000000E+00 -0.00000000000E+00 -0.45593999997E+02  0.45594000000E+02  0.51100000000E-03 0.  1.
    9900012    2    1    2    0    0 -0.55654498333E+01 -0.34042871603E+01 -0.31211505876E+02  0.59301929342E+02  0.49999973217E+02 0.  0.
         12    1    1    2    0    0  0.55654498333E+01  0.34042871603E+01  0.31211505876E+02  0.31886070658E+02  0.00000000000E+00 0. -1.
         11    1    3    3    0    0  0.82055455302E+01  0.61641419952E+01 -0.11130571673E+02  0.15139922391E+02  0.51100000000E-03 0. -1.
        -11    1    3    3    0    0 -0.16830131383E+02 -0.13081721320E+01 -0.27751047077E+02  0.32482075840E+02  0.51100000000E-03 0.  1.
        -12    1    3    3    0    0  0.30591360192E+01 -0.82602570234E+01  0.76701128739E+01  0.11679931112E+02  0.00000000000E+00 0.  1.
</event>
<event>
 7    1  0.7457761E-012  0.5930194E+02  0.7816164E-02  0.1266605E+00
        -11   -1    0    0    0    0  0.00000000000E+00  0.00000000000E+00  0.45593999997E+02  0.45594000000E+02  0.51100000000E-03 0. -1.
         11   -1    0    0    0    0 -0.00000000000E+00 -0.00000000000E+00 -0.45593999997E+02  0.45594000000E+02  0.51100000000E-03 0.  1.
    9900012    2    1    2    0    0 -0.28945949405E+02  0.61839168586E+01  0.11857987761E+02  0.59301942100E+02  0.49999996483E+02 0.  0.
         12    1    1    2    0    0  0.28945949405E+02 -0.61839168586E+01 -0.11857987761E+02  0.31886057900E+02  0.00000000000E+00 0. -1.
         11    1    3    3    0    0 -0.12662018473E+02  0.56048540961E+01 -0.94773355623E+01  0.16779779226E+02  0.51100000000E-03 0. -1.
        -11    1    3    3    0    0  0.92809950532E+01  0.17185654470E+01  0.37960042579E+00  0.94463978911E+01  0.51100000000E-03 0.  1.
         12    1    3    3    0    0 -0.25564925985E+02 -0.11395026845E+01  0.20955722897E+02  0.33075764982E+02  0.00000000000E+00 0. -1.
</event>
<event>
 7    1  0.7457761E-012  0.5930194E+02  0.7816164E-02  0.1266605E+00
        -11   -1    0    0    0    0  0.00000000000E+00  0.00000000000E+00  0.45593999997E+02  0.45594000000E+02  0.51100000000E-03 0.  1.
         11   -1    0    0    0    0 -0.00000000000E+00 -0.00000000000E+00 -0.45593999997E+02  0.45594000000E+02  0.51100000000E-03 0. -1.
    9900012    2    1    2    0    0  0.38466402800E+01  0.31547424635E+02  0.25853981433E+01  0.59301938373E+02  0.49999989687E+02 0.  0.
         12    1    1    2    0    0 -0.38466402800E+01 -0.31547424635E+02 -0.25853981433E+01  0.31886061627E+02  0.00000000000E+00 0. -1.
         11    1    3    3    0    0 -0.16239574295E+02 -0.16803698127E+01 -0.97106621840E+00  0.16355133318E+02  0.51100000000E-03 0. -1.
        -11    1    3    3    0    0  0.42259884759E+01  0.24163916531E+02  0.18828704495E+01  0.24602825897E+02  0.51100000000E-03 0.  1.
         12    1    3    3    0    0  0.15860226099E+02  0.90638779162E+01  0.16735939122E+01  0.18343979158E+02  0.00000000000E+00 0. -1.
</event>
<event>
 7    1  0.7457761E-012  0.5930220E+02  0.7816164E-02  0.1266604E+00
        -11   -1    0    0    0    0  0.00000000000E+00  0.00000000000E+00  0.45593999997E+02  0.45594000000E+02  0.51100000000E-03 0. -1.
         11   -1    0    0    0    0 -0.00000000000E+00 -0.00000000000E+00 -0.45593999997E+02  0.45594000000E+02  0.51100000000E-03 0.  1.
    9900012    2    1    2    0    0 -0.20544928882E+02 -0.94974058232E+01 -0.22459063110E+02  0.59302198522E+02  0.50000464134E+02 0.  0.
         12    1    1    2    0    0  0.20544928882E+02  0.94974058232E+01  0.22459063110E+02  0.31885801478E+02  0.00000000000E+00 0. -1.
         11    1    3    3    0    0  0.27185734715E+01 -0.21778126223E+02 -0.23212394637E+02  0.31945151252E+02  0.51100000000E-03 0. -1.
        -11    1    3    3    0    0 -0.11048165120E+02  0.10018939007E+02  0.76516783027E+00  0.14934074241E+02  0.51100000000E-03 0.  1.
         12    1    3    3    0    0 -0.12215337233E+02  0.22617813922E+01 -0.11836303142E-01  0.12422973029E+02  0.00000000000E+00 0. -1.
</event>
<event>
 7    1  0.7457761E-012  0.5930195E+02  0.7816164E-02  0.1266605E+00
        -11   -1    0    0    0    0  0.00000000000E+00  0.00000000000E+00  0.45593999997E+02  0.45594000000E+02  0.51100000000E-03 0. -1.
         11   -1    0    0    0    0 -0.00000000000E+00 -0.00000000000E+00 -0.45593999997E+02  0.45594000000E+02  0.51100000000E-03 0.  1.
    9900012    2    1    2    0    0  0.29855416265E+02  0.53056020942E+01  0.98602665566E+01  0.59301950535E+02  0.50000011867E+02 0.  0.
         12    1    1    2    0    0 -0.29855416265E+02 -0.53056020942E+01 -0.98602665566E+01  0.31886049465E+02  0.00000000000E+00 0. -1.
         11    1    3    3    0    0  0.23283848214E+01  0.94405232030E+01 -0.66808633122E+01  0.11797406032E+02  0.51100000000E-03 0. -1.
        -11    1    3    3    0    0  0.46434713792E+01 -0.13186893118E+02 -0.49514894926E+01  0.14831494362E+02  0.51100000000E-03 0.  1.
        -12    1    3    3    0    0  0.22883560065E+02  0.90519720090E+01  0.21492619361E+02  0.32673050141E+02  0.00000000000E+00 0.  1.
</event>
<event>
 7    1  0.7457761E-012  0.5930196E+02  0.7816164E-02  0.1266605E+00
        -11   -1    0    0    0    0  0.00000000000E+00  0.00000000000E+00  0.45593999997E+02  0.45594000000E+02  0.51100000000E-03 0. -1.
         11   -1    0    0    0    0 -0.00000000000E+00 -0.00000000000E+00 -0.45593999997E+02  0.45594000000E+02  0.51100000000E-03 0.  1.
    9900012    2    1    2    0    0  0.17523788679E+01 -0.17460469888E+02 -0.26622934713E+02  0.59301960842E+02  0.50000030666E+02 0.  0.
         12    1    1    2    0    0 -0.17523788679E+01  0.17460469888E+02  0.26622934713E+02  0.31886039158E+02  0.00000000000E+00 0. -1.
         11    1    3    3    0    0  0.76893292302E+01 -0.11510744237E+02 -0.18324812719E+02  0.22965665206E+02  0.51100000000E-03 0. -1.
        -11    1    3    3    0    0 -0.10249204562E+01  0.14393416612E+02 -0.39641893769E+01  0.14964481327E+02  0.51100000000E-03 0.  1.
        -12    1    3    3    0    0 -0.49120299062E+01 -0.20343142263E+02 -0.43339326174E+01  0.21371814309E+02  0.00000000000E+00 0.  1.
</event>
<event>
 7    1  0.7457761E-012  0.5930195E+02  0.7816164E-02  0.1266605E+00
        -11   -1    0    0    0    0  0.00000000000E+00  0.00000000000E+00  0.45593999997E+02  0.45594000000E+02  0.51100000000E-03 0.  1.
         11   -1    0    0    0    0 -0.00000000000E+00 -0.00000000000E+00 -0.45593999997E+02  0.45594000000E+02  0.51100000000E-03 0. -1.
    9900012    2    1    2    0    0 -0.23178350485E+02  0.72402641170E+01  0.20665499212E+02  0.59301949548E+02  0.50000010068E+02 0.  0.
         12    1    1    2    0    0  0.23178350485E+02 -0.72402641170E+01 -0.20665499212E+02  0.31886050452E+02  0.00000000000E+00 0. -1.
         11    1    3    3    0    0 -0.35767450480E+01 -0.90625305182E+01 -0.10500073144E+02  0.14323899637E+02  0.51100000000E-03 0. -1.
        -11    1    3    3    0    0 -0.23081817565E+02  0.10663670262E+02  0.21721777500E+02  0.33441288605E+02  0.51100000000E-03 0.  1.
         12    1    3    3    0    0  0.34802121274E+01  0.56391243730E+01  0.94437948560E+01  0.11536761306E+02  0.00000000000E+00 0. -1.
</event>
<event>
 7    1  0.7457761E-012  0.5930197E+02  0.7816164E-02  0.1266605E+00
        -11   -1    0    0    0    0  0.00000000000E+00  0.00000000000E+00  0.45593999997E+02  0.45594000000E+02  0.51100000000E-03 0.  1.
         11   -1    0    0    0    0 -0.00000000000E+00 -0.00000000000E+00 -0.45593999997E+02  0.45594000000E+02  0.51100000000E-03 0. -1.
    9900012    2    1    2    0    0  0.16801614957E+02  0.14872959722E+02  0.22654357183E+02  0.59301967080E+02  0.50000042041E+02 0.  0.
         12    1    1    2    0    0 -0.16801614957E+02 -0.14872959722E+02 -0.22654357183E+02  0.31886032920E+02  0.00000000000E+00 0. -1.
         11    1    3    3    0    0  0.21197398656E+02  0.20451331461E+02 -0.36699484223E+01  0.29682573844E+02  0.51100000000E-03 0. -1.
        -11    1    3    3    0    0 -0.66491897493E+01 -0.15070550783E+01  0.71139710252E+01  0.98535030999E+01  0.51100000000E-03 0.  1.
         12    1    3    3    0    0  0.22534060502E+01 -0.40713166613E+01  0.19210334580E+02  0.19765890136E+02  0.00000000000E+00 0. -1.
</event>
<event>
 7    1  0.7457761E-012  0.5930194E+02  0.7816164E-02  0.1266605E+00
        -11   -1    0    0    0    0  0.00000000000E+00  0.00000000000E+00  0.45593999997E+02  0.45594000000E+02  0.51100000000E-03 0.  1.
         11   -1    0    0    0    0 -0.00000000000E+00 -0.00000000000E+00 -0.45593999997E+02  0.45594000000E+02  0.51100000000E-03 0. -1.
    9900012    2    1    2    0    0  0.16197531529E+02 -0.27461884759E+02 -0.45318843661E+00  0.59301944710E+02  0.50000001245E+02 0.  0.
         12    1    1    2    0    0 -0.16197531529E+02  0.27461884759E+02  0.45318843661E+00  0.31886055290E+02  0.00000000000E+00 0. -1.
         11    1    3    3    0    0 -0.39274576448E+01 -0.21260931768E+01 -0.58109761976E+01  0.73288908013E+01  0.51100000000E-03 0. -1.
        -11    1    3    3    0    0  0.24759357456E+02 -0.40226668857E+00 -0.37123068475E+01  0.25039345489E+02  0.51100000000E-03 0.  1.
        -12    1    3    3    0    0 -0.46343682822E+01 -0.24933524894E+02  0.90700946085E+01  0.26933708420E+02  0.00000000000E+00 0.  1.
</event>
<event>
 7    1  0.7457761E-012  0.5930188E+02  0.7816164E-02  0.1266605E+00
        -11   -1    0    0    0    0  0.00000000000E+00  0.00000000000E+00  0.45593999997E+02  0.45594000000E+02  0.51100000000E-03 0.  1.
         11   -1    0    0    0    0 -0.00000000000E+00 -0.00000000000E+00 -0.45593999997E+02  0.45594000000E+02  0.51100000000E-03 0. -1.
    9900012    2    1    2    0    0  0.78718339832E+01 -0.30462370624E+02  0.51771616438E+01  0.59301877674E+02  0.49999878987E+02 0.  0.
         12    1    1    2    0    0 -0.78718339832E+01  0.30462370624E+02 -0.51771616438E+01  0.31886122326E+02  0.00000000000E+00 0. -1.
         11    1    3    3    0    0 -0.76278676226E+01 -0.22700204222E+01 -0.16740039285E+02  0.18535540799E+02  0.51100000000E-03 0. -1.
        -11    1    3    3    0    0  0.23397256455E+01 -0.13882971313E+02  0.13751361541E+02  0.19680222383E+02  0.51100000000E-03 0.  1.
         12    1    3    3    0    0  0.13159975960E+02 -0.14309378889E+02  0.81658393873E+01  0.21086114492E+02  0.00000000000E+00 0. -1.
</event>
<event>
 7    1  0.7457761E-012  0.5930195E+02  0.7816164E-02  0.1266605E+00
        -11   -1    0    0    0    0  0.00000000000E+00  0.00000000000E+00  0.45593999997E+02  0.45594000000E+02  0.51100000000E-03 0.  1.
         11   -1    0    0    0    0 -0.00000000000E+00 -0.00000000000E+00 -0.45593999997E+02  0.45594000000E+02  0.51100000000E-03 0. -1.
    9900012    2    1    2    0    0  0.24707258003E+02  0.48711511379E+00  0.20150296933E+02  0.59301947475E+02  0.50000006287E+02 0.  0.
         12    1    1    2    0    0 -0.24707258003E+02 -0.48711511379E+00 -0.20150296933E+02  0.31886052525E+02  0.00000000000E+00 0. -1.
         11    1    3    3    0    0  0.16450588197E+02  0.66168191438E+01 -0.59223308101E+01  0.18694334706E+02  0.51100000000E-03 0. -1.
        -11    1    3    3    0    0 -0.10094471893E+02  0.28387253333E+01  0.11189684182E+02  0.15335115150E+02  0.51100000000E-03 0.  1.
        -12    1    3    3    0    0  0.18351141698E+02 -0.89684293633E+01  0.14882943560E+02  0.25272497619E+02  0.00000000000E+00 0.  1.
</event>
<event>
 7    1  0.7457761E-012  0.5930188E+02  0.7816164E-02  0.1266605E+00
        -11   -1    0    0    0    0  0.00000000000E+00  0.00000000000E+00  0.45593999997E+02  0.45594000000E+02  0.51100000000E-03 0. -1.
         11   -1    0    0    0    0 -0.00000000000E+00 -0.00000000000E+00 -0.45593999997E+02  0.45594000000E+02  0.51100000000E-03 0.  1.
    9900012    2    1    2    0    0  0.12788933727E+02  0.29040129713E+02 -0.31366987570E+01  0.59301877020E+02  0.49999877794E+02 0.  0.
         12    1    1    2    0    0 -0.12788933727E+02 -0.29040129713E+02  0.31366987570E+01  0.31886122980E+02  0.00000000000E+00 0. -1.
         11    1    3    3    0    0  0.17891379493E+02  0.14364067045E+01  0.27168988487E+01  0.18153409157E+02  0.51100000000E-03 0. -1.
        -11    1    3    3    0    0 -0.11941284752E+02  0.71595547474E+01  0.74753278168E+01  0.15802975414E+02  0.51100000000E-03 0.  1.
        -12    1    3    3    0    0  0.68388389858E+01  0.20444168261E+02 -0.13328925423E+02  0.25345492449E+02  0.00000000000E+00 0.  1.
</event>
<event>
 7    1  0.7457761E-012  0.5930191E+02  0.7816164E-02  0.1266605E+00
        -11   -1    0    0    0    0  0.00000000000E+00  0.00000000000E+00  0.45593999997E+02  0.45594000000E+02  0.51100000000E-03 0.  1.
         11   -1    0    0    0    0 -0.00000000000E+00 -0.00000000000E+00 -0.45593999997E+02  0.45594000000E+02  0.51100000000E-03 0. -1.
    9900012    2    1    2    0    0  0.18252418046E+02  0.11087165425E+02  0.23677977655E+02  0.59301911693E+02  0.49999941030E+02 0.  0.
         12    1    1    2    0    0 -0.18252418046E+02 -0.11087165425E+02 -0.23677977655E+02  0.31886088307E+02  0.00000000000E+00 0. -1.
         11    1    3    3    0    0 -0.15516521284E+02  0.55564058409E+01  0.79997137343E+01  0.18320248326E+02  0.51100000000E-03 0. -1.
        -11    1    3    3    0    0  0.23151904323E+02  0.92636709418E+01  0.16164017554E+02  0.29717027726E+02  0.51100000000E-03 0.  1.
         12    1    3    3    0    0  0.10617035007E+02 -0.37329113580E+01 -0.48575363337E+00  0.11264635642E+02  0.00000000000E+00 0. -1.
</event>
<event>
 7    1  0.7457761E-012  0.5930196E+02  0.7816164E-02  0.1266605E+00
        -11   -1    0    0    0    0  0.00000000000E+00  0.00000000000E+00  0.45593999997E+02  0.45594000000E+02  0.51100000000E-03 0. -1.
         11   -1    0    0    0    0 -0.00000000000E+00 -0.00000000000E+00 -0.45593999997E+02  0.45594000000E+02  0.51100000000E-03 0.  1.
    9900012    2    1    2    0    0 -0.18275016432E+01 -0.15153354970E+02 -0.27995639673E+02  0.59301956504E+02  0.50000022754E+02 0.  0.
         12    1    1    2    0    0  0.18275016432E+01  0.15153354970E+02  0.27995639673E+02  0.31886043496E+02  0.00000000000E+00 0. -1.
         11    1    3    3    0    0 -0.18514958146E+02 -0.82165566993E+01 -0.11910059938E+02  0.23498191571E+02  0.51100000000E-03 0. -1.
        -11    1    3    3    0    0  0.11398125457E+02 -0.16965787555E+02 -0.83548896101E+01  0.22080747087E+02  0.51100000000E-03 0.  1.
         12    1    3    3    0    0  0.52893310457E+01  0.10028989284E+02 -0.77306901251E+01  0.13723017845E+02  0.00000000000E+00 0. -1.
</event>
<event>
 7    1  0.7457761E-012  0.5930192E+02  0.7816164E-02  0.1266605E+00
        -11   -1    0    0    0    0  0.00000000000E+00  0.00000000000E+00  0.45593999997E+02  0.45594000000E+02  0.51100000000E-03 0.  1.
         11   -1    0    0    0    0 -0.00000000000E+00 -0.00000000000E+00 -0.45593999997E+02  0.45594000000E+02  0.51100000000E-03 0. -1.
    9900012    2    1    2    0    0  0.23814355478E+02 -0.98854929452E+01  0.18758339688E+02  0.59301924584E+02  0.49999964540E+02 0.  0.
         12    1    1    2    0    0 -0.23814355478E+02  0.98854929452E+01 -0.18758339688E+02  0.31886075416E+02  0.00000000000E+00 0. -1.
         11    1    3    3    0    0  0.17236399255E+02 -0.85694105678E+01  0.14670326420E+02  0.24202205153E+02  0.51100000000E-03 0. -1.
        -11    1    3    3    0    0 -0.47085628630E+01  0.99997798802E+01 -0.91484990513E+01  0.14347863849E+02  0.51100000000E-03 0.  1.
        -12    1    3    3    0    0  0.11286519086E+02 -0.11315862258E+02  0.13236512319E+02  0.20751855581E+02  0.00000000000E+00 0.  1.
</event>
<event>
 7    1  0.7457761E-012  0.5930194E+02  0.7816164E-02  0.1266605E+00
        -11   -1    0    0    0    0  0.00000000000E+00  0.00000000000E+00  0.45593999997E+02  0.45594000000E+02  0.51100000000E-03 0.  1.
         11   -1    0    0    0    0 -0.00000000000E+00 -0.00000000000E+00 -0.45593999997E+02  0.45594000000E+02  0.51100000000E-03 0. -1.
    9900012    2    1    2    0    0  0.46205936138E+00  0.26800702704E+02  0.17269331331E+02  0.59301937701E+02  0.49999988462E+02 0.  0.
         12    1    1    2    0    0 -0.46205936138E+00 -0.26800702704E+02 -0.17269331331E+02  0.31886062299E+02  0.00000000000E+00 0. -1.
         11    1    3    3    0    0 -0.21596729648E+02  0.19633378688E+02  0.11382938833E+02  0.31328255409E+02  0.51100000000E-03 0. -1.
        -11    1    3    3    0    0  0.93906076828E+01  0.92856232645E+01  0.72362631939E+01  0.15058878356E+02  0.51100000000E-03 0.  1.
         12    1    3    3    0    0  0.12668181327E+02 -0.21182992484E+01 -0.13498706959E+01  0.12914803937E+02  0.00000000000E+00 0. -1.
</event>
<event>
 7    1  0.7457761E-012  0.5930196E+02  0.7816164E-02  0.1266605E+00
        -11   -1    0    0    0    0  0.00000000000E+00  0.00000000000E+00  0.45593999997E+02  0.45594000000E+02  0.51100000000E-03 0.  1.
         11   -1    0    0    0    0 -0.00000000000E+00 -0.00000000000E+00 -0.45593999997E+02  0.45594000000E+02  0.51100000000E-03 0. -1.
    9900012    2    1    2    0    0  0.10672264891E+02  0.17955118614E+02  0.24092244857E+02  0.59301956272E+02  0.50000022331E+02 0.  0.
         12    1    1    2    0    0 -0.10672264891E+02 -0.17955118614E+02 -0.24092244857E+02  0.31886043728E+02  0.00000000000E+00 0. -1.
         11    1    3    3    0    0 -0.15125252528E+02  0.13323672326E+02  0.15609278308E+02  0.25493981208E+02  0.51100000000E-03 0. -1.
        -11    1    3    3    0    0  0.21481021602E+02 -0.10249726488E+01 -0.14899405640E+01  0.21557012343E+02  0.51100000000E-03 0.  1.
         12    1    3    3    0    0  0.43164958169E+01  0.56564189377E+01  0.99729071129E+01  0.12250962722E+02  0.00000000000E+00 0. -1.
</event>
<event>
 7    1  0.7457761E-012  0.5930195E+02  0.7816164E-02  0.1266605E+00
        -11   -1    0    0    0    0  0.00000000000E+00  0.00000000000E+00  0.45593999997E+02  0.45594000000E+02  0.51100000000E-03 0.  1.
         11   -1    0    0    0    0 -0.00000000000E+00 -0.00000000000E+00 -0.45593999997E+02  0.45594000000E+02  0.51100000000E-03 0. -1.
    9900012    2    1    2    0    0  0.11570194869E+02 -0.25486520516E+02  0.15273767085E+02  0.59301951354E+02  0.50000013361E+02 0.  0.
         12    1    1    2    0    0 -0.11570194869E+02  0.25486520516E+02 -0.15273767085E+02  0.31886048646E+02  0.00000000000E+00 0. -1.
         11    1    3    3    0    0 -0.99354717984E+01 -0.30535749836E+00  0.26067759988E+01  0.10276289429E+02  0.51100000000E-03 0. -1.
        -11    1    3    3    0    0  0.26823886163E+02 -0.26831436327E+02  0.32415715269E+01  0.38078269794E+02  0.51100000000E-03 0.  1.
        -12    1    3    3    0    0 -0.53182194960E+01  0.16502733095E+01  0.94254195594E+01  0.10947392131E+02  0.00000000000E+00 0.  1.
</event>
<event>
 7    1  0.7457761E-012  0.5930195E+02  0.7816164E-02  0.1266605E+00
        -11   -1    0    0    0    0  0.00000000000E+00  0.00000000000E+00  0.45593999997E+02  0.45594000000E+02  0.51100000000E-03 0.  1.
         11   -1    0    0    0    0 -0.00000000000E+00 -0.00000000000E+00 -0.45593999997E+02  0.45594000000E+02  0.51100000000E-03 0. -1.
    9900012    2    1    2    0    0  0.17504817833E+02 -0.23607607756E+02  0.12368598884E+02  0.59301952429E+02  0.50000015322E+02 0.  0.
         12    1    1    2    0    0 -0.17504817833E+02  0.23607607756E+02 -0.12368598884E+02  0.31886047571E+02  0.00000000000E+00 0. -1.
         11    1    3    3    0    0 -0.23733078611E+01 -0.12730158142E+02 -0.13589500376E+01  0.13020609125E+02  0.51100000000E-03 0.  1.
        -11    1    3    3    0    0  0.23726811957E+02  0.23427188812E+01 -0.36394430325E+01  0.24118364025E+02  0.51100000000E-03 0. -1.
         12    1    3    3    0    0 -0.38486862627E+01 -0.13220168495E+02  0.17366991954E+02  0.22162979279E+02  0.00000000000E+00 0. -1.
</event>
<event>
 7    1  0.7457761E-012  0.5930196E+02  0.7816164E-02  0.1266605E+00
        -11   -1    0    0    0    0  0.00000000000E+00  0.00000000000E+00  0.45593999997E+02  0.45594000000E+02  0.51100000000E-03 0.  1.
         11   -1    0    0    0    0 -0.00000000000E+00 -0.00000000000E+00 -0.45593999997E+02  0.45594000000E+02  0.51100000000E-03 0. -1.
    9900012    2    1    2    0    0  0.13655329164E+02 -0.15293974655E+02  0.24420197309E+02  0.59301957412E+02  0.50000024410E+02 0.  0.
         12    1    1    2    0    0 -0.13655329164E+02  0.15293974655E+02 -0.24420197309E+02  0.31886042588E+02  0.00000000000E+00 0. -1.
         11    1    3    3    0    0  0.13312173265E+01  0.66933941043E+01  0.17041658461E+02  0.18357336070E+02  0.51100000000E-03 0. -1.
        -11    1    3    3    0    0  0.20856844163E+02 -0.20034378224E+02  0.11681969006E+02  0.31190586070E+02  0.51100000000E-03 0.  1.
        -12    1    3    3    0    0 -0.85327323259E+01 -0.19529905348E+01 -0.43034301583E+01  0.97540352728E+01  0.00000000000E+00 0.  1.
</event>
<event>
 7    1  0.7457761E-012  0.5930197E+02  0.7816164E-02  0.1266605E+00
        -11   -1    0    0    0    0  0.00000000000E+00  0.00000000000E+00  0.45593999997E+02  0.45594000000E+02  0.51100000000E-03 0. -1.
         11   -1    0    0    0    0 -0.00000000000E+00 -0.00000000000E+00 -0.45593999997E+02  0.45594000000E+02  0.51100000000E-03 0.  1.
    9900012    2    1    2    0    0 -0.17467090553E+02  0.22613178885E+02 -0.14151463109E+02  0.59301968265E+02  0.50000044203E+02 0.  0.
         12    1    1    2    0    0  0.17467090553E+02 -0.22613178885E+02  0.14151463109E+02  0.31886031735E+02  0.00000000000E+00 0. -1.
         11    1    3    3    0    0 -0.15118446875E+01  0.16580446898E+01  0.56139168583E+01  0.60457298406E+01  0.51100000000E-03 0. -1.
        -11    1    3    3    0    0 -0.73202193232E+01  0.33447531436E+02 -0.12875255858E+02  0.36579983376E+02  0.51100000000E-03 0.  1.
        -12    1    3    3    0    0 -0.86350265422E+01 -0.12492397241E+02 -0.68901241093E+01  0.16676255048E+02  0.00000000000E+00 0.  1.
</event>
<event>
 7    1  0.7457761E-012  0.5930193E+02  0.7816164E-02  0.1266605E+00
        -11   -1    0    0    0    0  0.00000000000E+00  0.00000000000E+00  0.45593999997E+02  0.45594000000E+02  0.51100000000E-03 0.  1.
         11   -1    0    0    0    0 -0.00000000000E+00 -0.00000000000E+00 -0.45593999997E+02  0.45594000000E+02  0.51100000000E-03 0. -1.
    9900012    2    1    2    0    0 -0.20579000854E+01 -0.30965982211E+01  0.31668554771E+02  0.59301933535E+02  0.49999980864E+02 0.  0.
         12    1    1    2    0    0  0.20579000854E+01  0.30965982211E+01 -0.31668554771E+02  0.31886066465E+02  0.00000000000E+00 0. -1.
         11    1    3    3    0    0 -0.69728441767E+01 -0.94787031893E+01  0.33919742219E+02  0.35902858975E+02  0.51100000000E-03 0.  1.
        -11    1    3    3    0    0  0.72169842811E+01 -0.59938421422E+00 -0.10240427115E+02  0.12542347121E+02  0.51100000000E-03 0. -1.
        -12    1    3    3    0    0 -0.23020401897E+01  0.69814891825E+01  0.79892396669E+01  0.10856727439E+02  0.00000000000E+00 0.  1.
</event>
<event>
 7    1  0.7457761E-012  0.5930196E+02  0.7816164E-02  0.1266605E+00
        -11   -1    0    0    0    0  0.00000000000E+00  0.00000000000E+00  0.45593999997E+02  0.45594000000E+02  0.51100000000E-03 0. -1.
         11   -1    0    0    0    0 -0.00000000000E+00 -0.00000000000E+00 -0.45593999997E+02  0.45594000000E+02  0.51100000000E-03 0.  1.
    9900012    2    1    2    0    0 -0.17675957432E+01 -0.22636839470E+02 -0.22386797709E+02  0.59301959048E+02  0.50000027394E+02 0.  0.
         12    1    1    2    0    0  0.17675957432E+01  0.22636839470E+02  0.22386797709E+02  0.31886040952E+02  0.00000000000E+00 0. -1.
         11    1    3    3    0    0 -0.21498072448E+02 -0.69470686053E+01 -0.14088829832E+01  0.22636559648E+02  0.51100000000E-03 0. -1.
        -11    1    3    3    0    0  0.10186053847E+02 -0.83056882032E+01 -0.20790693941E+02  0.24596607577E+02  0.51100000000E-03 0.  1.
         12    1    3    3    0    0  0.95444228577E+01 -0.73840826616E+01 -0.18722078507E+00  0.12068791823E+02  0.00000000000E+00 0. -1.
</event>
<event>
 7    1  0.7457761E-012  0.5930195E+02  0.7816164E-02  0.1266605E+00
        -11   -1    0    0    0    0  0.00000000000E+00  0.00000000000E+00  0.45593999997E+02  0.45594000000E+02  0.51100000000E-03 0.  1.
         11   -1    0    0    0    0 -0.00000000000E+00 -0.00000000000E+00 -0.45593999997E+02  0.45594000000E+02  0.51100000000E-03 0. -1.
    9900012    2    1    2    0    0  0.13733316172E+02 -0.27151161627E+02 -0.95357479844E+01  0.59301952261E+02  0.50000015016E+02 0.  0.
         12    1    1    2    0    0 -0.13733316172E+02  0.27151161627E+02  0.95357479844E+01  0.31886047739E+02  0.00000000000E+00 0. -1.
         11    1    3    3    0    0  0.16338727526E+01  0.22250611177E+01 -0.95114832554E+01  0.99039765311E+01  0.51100000000E-03 0. -1.
        -11    1    3    3    0    0  0.24064605287E+02 -0.24413364308E+02  0.65052649637E+01  0.34891776352E+02  0.51100000000E-03 0.  1.
        -12    1    3    3    0    0 -0.11965161868E+02 -0.49628584363E+01 -0.65295296926E+01  0.14506199378E+02  0.00000000000E+00 0.  1.
</event>
<event>
 7    1  0.7457761E-012  0.5930203E+02  0.7816164E-02  0.1266604E+00
        -11   -1    0    0    0    0  0.00000000000E+00  0.00000000000E+00  0.45593999997E+02  0.45594000000E+02  0.51100000000E-03 0. -1.
         11   -1    0    0    0    0 -0.00000000000E+00 -0.00000000000E+00 -0.45593999997E+02  0.45594000000E+02  0.51100000000E-03 0.  1.
    9900012    2    1    2    0    0 -0.37491738154E+00  0.31444628622E+02 -0.52735320931E+01  0.59302025451E+02  0.50000148496E+02 0.  0.
         12    1    1    2    0    0  0.37491738154E+00 -0.31444628622E+02  0.52735320931E+01  0.31885974549E+02  0.00000000000E+00 0. -1.
         11    1    3    3    0    0 -0.31742022493E+01 -0.23714608039E+00  0.16108545589E+02  0.16420019472E+02  0.51100000000E-03 0. -1.
        -11    1    3    3    0    0  0.38845004007E+01  0.18024979736E+02 -0.22554174338E+02  0.29132113177E+02  0.51100000000E-03 0.  1.
         12    1    3    3    0    0 -0.10852155329E+01  0.13656794966E+02  0.11720966555E+01  0.13749892802E+02  0.00000000000E+00 0. -1.
</event>
<event>
 7    1  0.7457761E-012  0.5930194E+02  0.7816164E-02  0.1266605E+00
        -11   -1    0    0    0    0  0.00000000000E+00  0.00000000000E+00  0.45593999997E+02  0.45594000000E+02  0.51100000000E-03 0. -1.
         11   -1    0    0    0    0 -0.00000000000E+00 -0.00000000000E+00 -0.45593999997E+02  0.45594000000E+02  0.51100000000E-03 0.  1.
    9900012    2    1    2    0    0 -0.18278594161E+02  0.77649082670E+01 -0.24946338442E+02  0.59301943384E+02  0.49999998826E+02 0.  0.
         12    1    1    2    0    0  0.18278594161E+02 -0.77649082670E+01  0.24946338442E+02  0.31886056616E+02  0.00000000000E+00 0. -1.
         11    1    3    3    0    0  0.10359360338E+02 -0.60441905167E+00 -0.25315565098E+00  0.10380065368E+02  0.51100000000E-03 0. -1.
        -11    1    3    3    0    0 -0.17239872008E+02  0.11641471678E+02  0.78717300117E+00  0.20817221026E+02  0.51100000000E-03 0.  1.
        -12    1    3    3    0    0 -0.11398082492E+02 -0.32721443592E+01 -0.25480355792E+02  0.28104656989E+02  0.00000000000E+00 0.  1.
</event>
<event>
 7    1  0.7457761E-012  0.5930196E+02  0.7816164E-02  0.1266605E+00
        -11   -1    0    0    0    0  0.00000000000E+00  0.00000000000E+00  0.45593999997E+02  0.45594000000E+02  0.51100000000E-03 0. -1.
         11   -1    0    0    0    0 -0.00000000000E+00 -0.00000000000E+00 -0.45593999997E+02  0.45594000000E+02  0.51100000000E-03 0.  1.
    9900012    2    1    2    0    0  0.22937755674E+02  0.16146196854E+02 -0.15161761607E+02  0.59301963507E+02  0.50000035526E+02 0.  0.
         12    1    1    2    0    0 -0.22937755674E+02 -0.16146196854E+02  0.15161761607E+02  0.31886036493E+02  0.00000000000E+00 0. -1.
         11    1    3    3    0    0  0.25224994837E+02 -0.55017347218E+01 -0.12038153275E+02  0.28486603589E+02  0.51100000000E-03 0. -1.
        -11    1    3    3    0    0 -0.11960512393E+02  0.11317058445E+02 -0.24433774657E+01  0.16646313774E+02  0.51100000000E-03 0.  1.
         12    1    3    3    0    0  0.96732732297E+01  0.10330873130E+02 -0.68023086661E+00  0.14169046144E+02  0.00000000000E+00 0. -1.
</event>
<event>
 7    1  0.7457761E-012  0.5930193E+02  0.7816164E-02  0.1266605E+00
        -11   -1    0    0    0    0  0.00000000000E+00  0.00000000000E+00  0.45593999997E+02  0.45594000000E+02  0.51100000000E-03 0. -1.
         11   -1    0    0    0    0 -0.00000000000E+00 -0.00000000000E+00 -0.45593999997E+02  0.45594000000E+02  0.51100000000E-03 0.  1.
    9900012    2    1    2    0    0 -0.17763949686E+02 -0.24005164850E+02  0.11176555521E+02  0.59301933431E+02  0.49999980674E+02 0.  0.
         12    1    1    2    0    0  0.17763949686E+02  0.24005164850E+02 -0.11176555521E+02  0.31886066569E+02  0.00000000000E+00 0. -1.
         11    1    3    3    0    0  0.10254633680E+02 -0.13820325220E+02  0.34362812775E+01  0.17548986591E+02  0.51100000000E-03 0. -1.
        -11    1    3    3    0    0 -0.21847361113E+02 -0.80109896171E+01 -0.80802897351E+01  0.24632787595E+02  0.51100000000E-03 0.  1.
         12    1    3    3    0    0 -0.61712222542E+01 -0.21738500132E+01  0.15820563978E+02  0.17120159245E+02  0.00000000000E+00 0. -1.
</event>
<event>
 7    1  0.7457761E-012  0.5930196E+02  0.7816164E-02  0.1266605E+00
        -11   -1    0    0    0    0  0.00000000000E+00  0.00000000000E+00  0.45593999997E+02  0.45594000000E+02  0.51100000000E-03 0.  1.
         11   -1    0    0    0    0 -0.00000000000E+00 -0.00000000000E+00 -0.45593999997E+02  0.45594000000E+02  0.51100000000E-03 0. -1.
    9900012    2    1    2    0    0  0.10203420844E+02  0.72430225889E+01  0.29328281022E+02  0.59301964799E+02  0.50000037882E+02 0.  0.
         12    1    1    2    0    0 -0.10203420844E+02 -0.72430225889E+01 -0.29328281022E+02  0.31886035201E+02  0.00000000000E+00 0. -1.
         11    1    3    3    0    0 -0.34840180786E+01 -0.10442426764E+02 -0.43137817012E+01  0.11823340117E+02  0.51100000000E-03 0. -1.
        -11    1    3    3    0    0 -0.20128999896E+01  0.14407187574E+02  0.64591336390E+01  0.15916633683E+02  0.51100000000E-03 0.  1.
         12    1    3    3    0    0  0.15700338912E+02  0.32782617786E+01  0.27182929084E+02  0.31561990999E+02  0.00000000000E+00 0. -1.
</event>
<event>
 7    1  0.7457761E-012  0.5930173E+02  0.7816164E-02  0.1266605E+00
        -11   -1    0    0    0    0  0.00000000000E+00  0.00000000000E+00  0.45593999997E+02  0.45594000000E+02  0.51100000000E-03 0.  1.
         11   -1    0    0    0    0 -0.00000000000E+00 -0.00000000000E+00 -0.45593999997E+02  0.45594000000E+02  0.51100000000E-03 0. -1.
    9900012    2    1    2    0    0 -0.14557824379E+02  0.15087392736E+02  0.24024452243E+02  0.59301733744E+02  0.49999616491E+02 0.  0.
         12    1    1    2    0    0  0.14557824379E+02 -0.15087392736E+02 -0.24024452243E+02  0.31886266256E+02  0.00000000000E+00 0. -1.
         11    1    3    3    0    0 -0.92318115354E+01  0.13585159396E+02  0.36691423099E+01  0.16829899155E+02  0.51100000000E-03 0. -1.
        -11    1    3    3    0    0  0.76022100138E+01 -0.25746512673E+01  0.26426545412E+02  0.27618557691E+02  0.51100000000E-03 0.  1.
        -12    1    3    3    0    0 -0.12928222857E+02  0.40768846075E+01 -0.60712354793E+01  0.14853276897E+02  0.00000000000E+00 0.  1.
</event>
<event>
 7    1  0.7457761E-012  0.5930195E+02  0.7816164E-02  0.1266605E+00
        -11   -1    0    0    0    0  0.00000000000E+00  0.00000000000E+00  0.45593999997E+02  0.45594000000E+02  0.51100000000E-03 0.  1.
         11   -1    0    0    0    0 -0.00000000000E+00 -0.00000000000E+00 -0.45593999997E+02  0.45594000000E+02  0.51100000000E-03 0. -1.
    9900012    2    1    2    0    0 -0.29824049766E+02  0.98759168249E+01 -0.54509081361E+01  0.59301951686E+02  0.50000013966E+02 0.  0.
         12    1    1    2    0    0  0.29824049766E+02 -0.98759168249E+01  0.54509081361E+01  0.31886048314E+02  0.00000000000E+00 0. -1.
         11    1    3    3    0    0 -0.10310355745E+02  0.52069453919E+01 -0.15840430364E+01  0.11658683824E+02  0.51100000000E-03 0.  1.
        -11    1    3    3    0    0  0.67986416266E+01  0.16966945106E+02 -0.34189790885E+01  0.18595380407E+02  0.51100000000E-03 0. -1.
        -12    1    3    3    0    0 -0.26312335648E+02 -0.12297973673E+02 -0.44788601111E+00  0.29047887455E+02  0.00000000000E+00 0.  1.
</event>
<event>
 7    1  0.7457761E-012  0.5930195E+02  0.7816164E-02  0.1266605E+00
        -11   -1    0    0    0    0  0.00000000000E+00  0.00000000000E+00  0.45593999997E+02  0.45594000000E+02  0.51100000000E-03 0.  1.
         11   -1    0    0    0    0 -0.00000000000E+00 -0.00000000000E+00 -0.45593999997E+02  0.45594000000E+02  0.51100000000E-03 0. -1.
    9900012    2    1    2    0    0 -0.12243270312E+02 -0.57073264637E+00  0.29436322501E+02  0.59301945273E+02  0.50000002271E+02 0.  0.
         12    1    1    2    0    0  0.12243270312E+02  0.57073264637E+00 -0.29436322501E+02  0.31886054727E+02  0.00000000000E+00 0. -1.
         11    1    3    3    0    0 -0.26497651624E+00 -0.16667280985E+02 -0.26086353262E+01  0.16872268564E+02  0.51100000000E-03 0. -1.
        -11    1    3    3    0    0  0.32460521285E+01  0.98832452399E+01  0.72578405436E+01  0.12684306860E+02  0.51100000000E-03 0.  1.
         12    1    3    3    0    0 -0.15224345924E+02  0.62133030985E+01  0.24787117284E+02  0.29745369849E+02  0.00000000000E+00 0. -1.
</event>
<event>
 7    1  0.7457761E-012  0.5930197E+02  0.7816164E-02  0.1266605E+00
        -11   -1    0    0    0    0  0.00000000000E+00  0.00000000000E+00  0.45593999997E+02  0.45594000000E+02  0.51100000000E-03 0. -1.
         11   -1    0    0    0    0 -0.00000000000E+00 -0.00000000000E+00 -0.45593999997E+02  0.45594000000E+02  0.51100000000E-03 0.  1.
    9900012    2    1    2    0    0 -0.19958168070E+02 -0.21105668420E+02 -0.13150722550E+02  0.59301965193E+02  0.50000038600E+02 0.  0.
         12    1    1    2    0    0  0.19958168070E+02  0.21105668420E+02  0.13150722550E+02  0.31886034807E+02  0.00000000000E+00 0. -1.
         11    1    3    3    0    0 -0.21133782448E+02  0.77121480106E+01  0.96258323490E+00  0.22517561019E+02  0.51100000000E-03 0. -1.
        -11    1    3    3    0    0 -0.45690351174E+01 -0.81384815401E+01 -0.12022895471E+02  0.15220413248E+02  0.51100000000E-03 0.  1.
         12    1    3    3    0    0  0.57446494959E+01 -0.20679334891E+02 -0.20904103137E+01  0.21563990925E+02  0.00000000000E+00 0. -1.
</event>
<event>
 7    1  0.7457761E-012  0.5930195E+02  0.7816164E-02  0.1266605E+00
        -11   -1    0    0    0    0  0.00000000000E+00  0.00000000000E+00  0.45593999997E+02  0.45594000000E+02  0.51100000000E-03 0.  1.
         11   -1    0    0    0    0 -0.00000000000E+00 -0.00000000000E+00 -0.45593999997E+02  0.45594000000E+02  0.51100000000E-03 0. -1.
    9900012    2    1    2    0    0  0.71364473138E+01 -0.17308577001E+02  0.25810938453E+02  0.59301948788E+02  0.50000008682E+02 0.  0.
         12    1    1    2    0    0 -0.71364473138E+01  0.17308577001E+02 -0.25810938453E+02  0.31886051212E+02  0.00000000000E+00 0. -1.
         11    1    3    3    0    0  0.23470307753E+02 -0.48091950804E+00  0.68629191244E+01  0.24457847182E+02  0.51100000000E-03 0. -1.
        -11    1    3    3    0    0 -0.12592360656E+02 -0.17605582741E+02  0.77156683961E+01  0.22979461038E+02  0.51100000000E-03 0.  1.
        -12    1    3    3    0    0 -0.37414997831E+01  0.77792524846E+00  0.11232350933E+02  0.11864640568E+02  0.00000000000E+00 0.  1.
</event>
<event>
 7    1  0.7457761E-012  0.5930194E+02  0.7816164E-02  0.1266605E+00
        -11   -1    0    0    0    0  0.00000000000E+00  0.00000000000E+00  0.45593999997E+02  0.45594000000E+02  0.51100000000E-03 0. -1.
         11   -1    0    0    0    0 -0.00000000000E+00 -0.00000000000E+00 -0.45593999997E+02  0.45594000000E+02  0.51100000000E-03 0.  1.
    9900012    2    1    2    0    0 -0.24916345642E+02 -0.11829436442E+01 -0.19861961000E+02  0.59301935166E+02  0.49999983839E+02 0.  0.
         12    1    1    2    0    0  0.24916345642E+02  0.11829436442E+01  0.19861961000E+02  0.31886064834E+02  0.00000000000E+00 0. -1.
         11    1    3    3    0    0 -0.62671451581E+01  0.14923947006E+02 -0.16948794349E+02  0.23436359205E+02  0.51100000000E-03 0.  1.
        -11    1    3    3    0    0 -0.22270073269E+01  0.15773806602E+01  0.86750335426E+01  0.90941683846E+01  0.51100000000E-03 0. -1.
         12    1    3    3    0    0 -0.16422193157E+02 -0.17684271310E+02 -0.11588200194E+02  0.26771407576E+02  0.00000000000E+00 0. -1.
</event>
<event>
 7    1  0.7457761E-012  0.5930192E+02  0.7816164E-02  0.1266605E+00
        -11   -1    0    0    0    0  0.00000000000E+00  0.00000000000E+00  0.45593999997E+02  0.45594000000E+02  0.51100000000E-03 0. -1.
         11   -1    0    0    0    0 -0.00000000000E+00 -0.00000000000E+00 -0.45593999997E+02  0.45594000000E+02  0.51100000000E-03 0.  1.
    9900012    2    1    2    0    0  0.29804227681E+01  0.14026679006E+02 -0.28479669281E+02  0.59301918300E+02  0.49999953079E+02 0.  0.
         12    1    1    2    0    0 -0.29804227681E+01 -0.14026679006E+02  0.28479669281E+02  0.31886081700E+02  0.00000000000E+00 0. -1.
         11    1    3    3    0    0  0.13068696048E+01  0.28942971188E+02 -0.28741731764E+02  0.40810423110E+02  0.51100000000E-03 0. -1.
        -11    1    3    3    0    0  0.20410928463E+01 -0.13867262912E+02  0.40125967738E+01  0.14579711033E+02  0.51100000000E-03 0.  1.
        -12    1    3    3    0    0 -0.36753968294E+00 -0.10490292700E+01 -0.37505342910E+01  0.39117841576E+01  0.00000000000E+00 0.  1.
</event>
<event>
 7    1  0.7457761E-012  0.5930194E+02  0.7816164E-02  0.1266605E+00
        -11   -1    0    0    0    0  0.00000000000E+00  0.00000000000E+00  0.45593999997E+02  0.45594000000E+02  0.51100000000E-03 0. -1.
         11   -1    0    0    0    0 -0.00000000000E+00 -0.00000000000E+00 -0.45593999997E+02  0.45594000000E+02  0.51100000000E-03 0.  1.
    9900012    2    1    2    0    0 -0.37152259163E+01  0.25157170766E+02 -0.19236289799E+02  0.59301937374E+02  0.49999987865E+02 0.  0.
         12    1    1    2    0    0  0.37152259163E+01 -0.25157170766E+02  0.19236289799E+02  0.31886062626E+02  0.00000000000E+00 0. -1.
         11    1    3    3    0    0 -0.21293188934E-01 -0.52141151228E+01 -0.30079895478E+01  0.60195889640E+01  0.51100000000E-03 0. -1.
        -11    1    3    3    0    0 -0.13528979392E+02  0.34344594575E+02 -0.40538511061E+01  0.37135133889E+02  0.51100000000E-03 0.  1.
        -12    1    3    3    0    0  0.98350466643E+01 -0.39733086863E+01 -0.12174449145E+02  0.16147214521E+02  0.00000000000E+00 0.  1.
</event>
<event>
 7    1  0.7457761E-012  0.5930200E+02  0.7816164E-02  0.1266605E+00
        -11   -1    0    0    0    0  0.00000000000E+00  0.00000000000E+00  0.45593999997E+02  0.45594000000E+02  0.51100000000E-03 0.  1.
         11   -1    0    0    0    0 -0.00000000000E+00 -0.00000000000E+00 -0.45593999997E+02  0.45594000000E+02  0.51100000000E-03 0. -1.
    9900012    2    1    2    0    0 -0.15599218111E+01  0.13941255848E+02  0.28634336430E+02  0.59301996904E+02  0.50000096433E+02 0.  0.
         12    1    1    2    0    0  0.15599218111E+01 -0.13941255848E+02 -0.28634336430E+02  0.31886003096E+02  0.00000000000E+00 0. -1.
         11    1    3    3    0    0  0.65374840652E+01  0.13128928684E+02 -0.33006568812E+01  0.15033356325E+02  0.51100000000E-03 0. -1.
        -11    1    3    3    0    0 -0.80795630259E+01  0.13836640299E+02  0.24492121716E+02  0.29267660990E+02  0.51100000000E-03 0.  1.
        -12    1    3    3    0    0 -0.17842850330E-01 -0.13024313135E+02  0.74428715955E+01  0.15000979588E+02  0.00000000000E+00 0.  1.
</event>
<event>
 7    1  0.7457761E-012  0.5930195E+02  0.7816164E-02  0.1266605E+00
        -11   -1    0    0    0    0  0.00000000000E+00  0.00000000000E+00  0.45593999997E+02  0.45594000000E+02  0.51100000000E-03 0.  1.
         11   -1    0    0    0    0 -0.00000000000E+00 -0.00000000000E+00 -0.45593999997E+02  0.45594000000E+02  0.51100000000E-03 0. -1.
    9900012    2    1    2    0    0  0.22167705045E+02  0.12382897664E+02  0.19286705331E+02  0.59301948127E+02  0.50000007477E+02 0.  0.
         12    1    1    2    0    0 -0.22167705045E+02 -0.12382897664E+02 -0.19286705331E+02  0.31886051873E+02  0.00000000000E+00 0. -1.
         11    1    3    3    0    0 -0.42387832274E+01  0.13356970860E+01 -0.13795993159E+02  0.14494164256E+02  0.51100000000E-03 0. -1.
        -11    1    3    3    0    0  0.18217047746E+02  0.44647425423E+01  0.26295373330E+02  0.32299247876E+02  0.51100000000E-03 0.  1.
         12    1    3    3    0    0  0.81894405261E+01  0.65824580360E+01  0.67873251600E+01  0.12508535996E+02  0.00000000000E+00 0. -1.
</event>
<event>
 7    1  0.7457761E-012  0.5930193E+02  0.7816164E-02  0.1266605E+00
        -11   -1    0    0    0    0  0.00000000000E+00  0.00000000000E+00  0.45593999997E+02  0.45594000000E+02  0.51100000000E-03 0.  1.
         11   -1    0    0    0    0 -0.00000000000E+00 -0.00000000000E+00 -0.45593999997E+02  0.45594000000E+02  0.51100000000E-03 0. -1.
    9900012    2    1    2    0    0  0.57269638139E+01  0.23129368648E+01  0.31282162638E+02  0.59301929518E+02  0.49999973539E+02 0.  0.
         12    1    1    2    0    0 -0.57269638139E+01 -0.23129368648E+01 -0.31282162638E+02  0.31886070482E+02  0.00000000000E+00 0. -1.
         11    1    3    3    0    0 -0.10207895548E+02  0.14990194026E+01  0.39489182011E+01  0.11047268708E+02  0.51100000000E-03 0. -1.
        -11    1    3    3    0    0  0.21374398718E+02  0.13599512022E+02  0.13755620296E+02  0.28827569058E+02  0.51100000000E-03 0.  1.
        -12    1    3    3    0    0 -0.54395393564E+01 -0.12785594560E+02  0.13577624141E+02  0.19427091753E+02  0.00000000000E+00 0.  1.
</event>
<event>
 7    1  0.7457761E-012  0.5930194E+02  0.7816164E-02  0.1266605E+00
        -11   -1    0    0    0    0  0.00000000000E+00  0.00000000000E+00  0.45593999997E+02  0.45594000000E+02  0.51100000000E-03 0.  1.
         11   -1    0    0    0    0 -0.00000000000E+00 -0.00000000000E+00 -0.45593999997E+02  0.45594000000E+02  0.51100000000E-03 0. -1.
    9900012    2    1    2    0    0 -0.12685715355E+02  0.27041401694E+02  0.11160456279E+02  0.59301944050E+02  0.50000000041E+02 0.  0.
         12    1    1    2    0    0  0.12685715355E+02 -0.27041401694E+02 -0.11160456279E+02  0.31886055950E+02  0.00000000000E+00 0. -1.
         11    1    3    3    0    0 -0.20915177575E+02  0.28898344685E+02 -0.41345547598E+01  0.35911746293E+02  0.51100000000E-03 0. -1.
        -11    1    3    3    0    0  0.66955836001E+01  0.63584734650E+01  0.92967113186E+01  0.13103047972E+02  0.51100000000E-03 0.  1.
        -12    1    3    3    0    0  0.15338786192E+01 -0.82154164559E+01  0.59982997204E+01  0.10287149785E+02  0.00000000000E+00 0.  1.
</event>
<event>
 7    1  0.7457761E-012  0.5930169E+02  0.7816164E-02  0.1266606E+00
        -11   -1    0    0    0    0  0.00000000000E+00  0.00000000000E+00  0.45593999997E+02  0.45594000000E+02  0.51100000000E-03 0.  1.
         11   -1    0    0    0    0 -0.00000000000E+00 -0.00000000000E+00 -0.45593999997E+02  0.45594000000E+02  0.51100000000E-03 0. -1.
    9900012    2    1    2    0    0  0.17887497831E+02 -0.15094765054E+01  0.26353281177E+02  0.59301693742E+02  0.49999543537E+02 0.  0.
         12    1    1    2    0    0 -0.17887497831E+02  0.15094765054E+01 -0.26353281177E+02  0.31886306258E+02  0.00000000000E+00 0. -1.
         11    1    3    3    0    0  0.31210218732E+02 -0.86756439150E+01  0.20944579567E+02  0.38574861817E+02  0.51100000000E-03 0. -1.
        -11    1    3    3    0    0 -0.14581114703E+02  0.74566680472E+01  0.13099772738E+01  0.16429450541E+02  0.51100000000E-03 0.  1.
        -12    1    3    3    0    0  0.12583938014E+01 -0.29050063755E+00  0.40987243365E+01  0.42973813848E+01  0.00000000000E+00 0.  1.
</event>
<event>
 7    1  0.7457761E-012  0.5930194E+02  0.7816164E-02  0.1266605E+00
        -11   -1    0    0    0    0  0.00000000000E+00  0.00000000000E+00  0.45593999997E+02  0.45594000000E+02  0.51100000000E-03 0.  1.
         11   -1    0    0    0    0 -0.00000000000E+00 -0.00000000000E+00 -0.45593999997E+02  0.45594000000E+02  0.51100000000E-03 0. -1.
    9900012    2    1    2    0    0  0.10322728541E+02  0.21266091061E+02  0.21398964497E+02  0.59301936664E+02  0.49999986570E+02 0.  0.
         12    1    1    2    0    0 -0.10322728541E+02 -0.21266091061E+02 -0.21398964497E+02  0.31886063336E+02  0.00000000000E+00 0. -1.
         11    1    3    3    0    0 -0.16234169123E+02 -0.21817283747E+01  0.11411382656E+01  0.16419816766E+02  0.51100000000E-03 0. -1.
        -11    1    3    3    0    0  0.16305814510E+02  0.19858214072E+02  0.89655367226E+01  0.27214134232E+02  0.51100000000E-03 0.  1.
         12    1    3    3    0    0  0.10251083154E+02  0.35896053628E+01  0.11292289509E+02  0.15667985666E+02  0.00000000000E+00 0. -1.
</event>
<event>
 7    1  0.7457761E-012  0.5930196E+02  0.7816164E-02  0.1266605E+00
        -11   -1    0    0    0    0  0.00000000000E+00  0.00000000000E+00  0.45593999997E+02  0.45594000000E+02  0.51100000000E-03 0.  1.
         11   -1    0    0    0    0 -0.00000000000E+00 -0.00000000000E+00 -0.45593999997E+02  0.45594000000E+02  0.51100000000E-03 0. -1.
    9900012    2    1    2    0    0  0.65871197547E+01  0.57458504858E+01  0.30664553854E+02  0.59301955913E+02  0.50000021675E+02 0.  0.
         12    1    1    2    0    0 -0.65871197547E+01 -0.57458504858E+01 -0.30664553854E+02  0.31886044087E+02  0.00000000000E+00 0. -1.
         11    1    3    3    0    0  0.22432789638E+02  0.79196927363E+01  0.24368376997E+02  0.34055386970E+02  0.51100000000E-03 0. -1.
        -11    1    3    3    0    0 -0.10095086010E+02 -0.86783439089E+01 -0.17281117122E+01  0.13424261056E+02  0.51100000000E-03 0.  1.
        -12    1    3    3    0    0 -0.57505838726E+01  0.65045016584E+01  0.80242885693E+01  0.11822307886E+02  0.00000000000E+00 0.  1.
</event>
<event>
 7    1  0.7457761E-012  0.5930193E+02  0.7816164E-02  0.1266605E+00
        -11   -1    0    0    0    0  0.00000000000E+00  0.00000000000E+00  0.45593999997E+02  0.45594000000E+02  0.51100000000E-03 0. -1.
         11   -1    0    0    0    0 -0.00000000000E+00 -0.00000000000E+00 -0.45593999997E+02  0.45594000000E+02  0.51100000000E-03 0.  1.
    9900012    2    1    2    0    0 -0.10512155668E+02 -0.26571342829E+02  0.14148494100E+02  0.59301928404E+02  0.49999971506E+02 0.  0.
         12    1    1    2    0    0  0.10512155668E+02  0.26571342829E+02 -0.14148494100E+02  0.31886071596E+02  0.00000000000E+00 0. -1.
         11    1    3    3    0    0 -0.65029544227E+01 -0.14280979382E+02  0.11642599341E+02  0.19539316980E+02  0.51100000000E-03 0. -1.
        -11    1    3    3    0    0 -0.36306601894E+01  0.10780015892E+02 -0.84986866582E+01  0.14199229247E+02  0.51100000000E-03 0.  1.
        -12    1    3    3    0    0 -0.37854105615E+00 -0.23070379339E+02  0.11004581416E+02  0.25563382177E+02  0.00000000000E+00 0.  1.
</event>
<event>
 7    1  0.7457761E-012  0.5930198E+02  0.7816164E-02  0.1266605E+00
        -11   -1    0    0    0    0  0.00000000000E+00  0.00000000000E+00  0.45593999997E+02  0.45594000000E+02  0.51100000000E-03 0.  1.
         11   -1    0    0    0    0 -0.00000000000E+00 -0.00000000000E+00 -0.45593999997E+02  0.45594000000E+02  0.51100000000E-03 0. -1.
    9900012    2    1    2    0    0 -0.85188968787E+01  0.30682683191E+02  0.16492175175E+01  0.59301975314E+02  0.50000057059E+02 0.  0.
         12    1    1    2    0    0  0.85188968787E+01 -0.30682683191E+02 -0.16492175175E+01  0.31886024686E+02  0.00000000000E+00 0. -1.
         11    1    3    3    0    0 -0.89520759282E+01 -0.20027782646E+01 -0.27631049368E+01  0.95804766768E+01  0.51100000000E-03 0. -1.
        -11    1    3    3    0    0 -0.89183930300E+01  0.25009827741E+02  0.17576191621E+02  0.31842608719E+02  0.51100000000E-03 0.  1.
        -12    1    3    3    0    0  0.93515720796E+01  0.76756337146E+01 -0.13163869167E+02  0.17878889918E+02  0.00000000000E+00 0.  1.
</event>
<event>
 7    1  0.7457761E-012  0.5930194E+02  0.7816164E-02  0.1266605E+00
        -11   -1    0    0    0    0  0.00000000000E+00  0.00000000000E+00  0.45593999997E+02  0.45594000000E+02  0.51100000000E-03 0. -1.
         11   -1    0    0    0    0 -0.00000000000E+00 -0.00000000000E+00 -0.45593999997E+02  0.45594000000E+02  0.51100000000E-03 0.  1.
    9900012    2    1    2    0    0 -0.23642756729E+02  0.20404575693E+02 -0.64338070471E+01  0.59301944614E+02  0.50000001069E+02 0.  0.
         12    1    1    2    0    0  0.23642756729E+02 -0.20404575693E+02  0.64338070471E+01  0.31886055386E+02  0.00000000000E+00 0. -1.
         11    1    3    3    0    0 -0.11206361633E+01  0.46171158595E+01  0.15376730790E+02  0.16094018589E+02  0.51100000000E-03 0. -1.
        -11    1    3    3    0    0 -0.10918976127E+02  0.21016306794E+02 -0.95512831604E+01  0.25536957556E+02  0.51100000000E-03 0.  1.
         12    1    3    3    0    0 -0.11603144439E+02 -0.52288469606E+01 -0.12259254677E+02  0.17670968469E+02  0.00000000000E+00 0. -1.
</event>
<event>
 7    1  0.7457761E-012  0.5930197E+02  0.7816164E-02  0.1266605E+00
        -11   -1    0    0    0    0  0.00000000000E+00  0.00000000000E+00  0.45593999997E+02  0.45594000000E+02  0.51100000000E-03 0.  1.
         11   -1    0    0    0    0 -0.00000000000E+00 -0.00000000000E+00 -0.45593999997E+02  0.45594000000E+02  0.51100000000E-03 0. -1.
    9900012    2    1    2    0    0  0.12670387250E+02  0.62942736640E+00  0.29253782887E+02  0.59301973200E+02  0.50000053204E+02 0.  0.
         12    1    1    2    0    0 -0.12670387250E+02 -0.62942736640E+00 -0.29253782887E+02  0.31886026800E+02  0.00000000000E+00 0. -1.
         11    1    3    3    0    0 -0.74006532330E+01  0.86544347806E+01  0.20458968363E+01  0.11569555038E+02  0.51100000000E-03 0. -1.
        -11    1    3    3    0    0  0.17574526620E+02 -0.16527509719E+02  0.61658774443E+01  0.24900614618E+02  0.51100000000E-03 0.  1.
         12    1    3    3    0    0  0.24965138631E+01  0.85025023053E+01  0.21042008606E+02  0.22831803545E+02  0.00000000000E+00 0. -1.
</event>
<event>
 7    1  0.7457761E-012  0.5930190E+02  0.7816164E-02  0.1266605E+00
        -11   -1    0    0    0    0  0.00000000000E+00  0.00000000000E+00  0.45593999997E+02  0.45594000000E+02  0.51100000000E-03 0.  1.
         11   -1    0    0    0    0 -0.00000000000E+00 -0.00000000000E+00 -0.45593999997E+02  0.45594000000E+02  0.51100000000E-03 0. -1.
    9900012    2    1    2    0    0  0.27915568081E+02  0.74391525016E+01 -0.13494574345E+02  0.59301898514E+02  0.49999916994E+02 0.  0.
         12    1    1    2    0    0 -0.27915568081E+02 -0.74391525016E+01  0.13494574345E+02  0.31886101486E+02  0.00000000000E+00 0. -1.
         11    1    3    3    0    0  0.21415462072E+02  0.15463696941E+02 -0.42631832543E+01  0.26756731313E+02  0.51100000000E-03 0. -1.
        -11    1    3    3    0    0 -0.56254672220E+01 -0.44314794619E+01 -0.16479789783E+02  0.17968510324E+02  0.51100000000E-03 0.  1.
         12    1    3    3    0    0  0.12125573231E+02 -0.35930649775E+01  0.72483986924E+01  0.14576656877E+02  0.00000000000E+00 0. -1.
</event>
<event>
 7    1  0.7457761E-012  0.5930194E+02  0.7816164E-02  0.1266605E+00
        -11   -1    0    0    0    0  0.00000000000E+00  0.00000000000E+00  0.45593999997E+02  0.45594000000E+02  0.51100000000E-03 0. -1.
         11   -1    0    0    0    0 -0.00000000000E+00 -0.00000000000E+00 -0.45593999997E+02  0.45594000000E+02  0.51100000000E-03 0.  1.
    9900012    2    1    2    0    0 -0.23268714132E+02 -0.21530655796E+02 -0.34232591041E+01  0.59301938794E+02  0.49999990455E+02 0.  0.
         12    1    1    2    0    0  0.23268714132E+02  0.21530655796E+02  0.34232591041E+01  0.31886061206E+02  0.00000000000E+00 0. -1.
         11    1    3    3    0    0 -0.15057140912E+02  0.66007289168E+01  0.39207344047E+01  0.16901457725E+02  0.51100000000E-03 0. -1.
        -11    1    3    3    0    0 -0.12320413318E+02 -0.24962309483E+02 -0.16147482577E+02  0.32181526889E+02  0.51100000000E-03 0.  1.
        -12    1    3    3    0    0  0.41088400984E+01 -0.31690752297E+01  0.88034890685E+01  0.10218954181E+02  0.00000000000E+00 0.  1.
</event>
<event>
 7    1  0.7457761E-012  0.5930197E+02  0.7816164E-02  0.1266605E+00
        -11   -1    0    0    0    0  0.00000000000E+00  0.00000000000E+00  0.45593999997E+02  0.45594000000E+02  0.51100000000E-03 0.  1.
         11   -1    0    0    0    0 -0.00000000000E+00 -0.00000000000E+00 -0.45593999997E+02  0.45594000000E+02  0.51100000000E-03 0. -1.
    9900012    2    1    2    0    0 -0.73703230047E-01 -0.17950991219E+02  0.26352898514E+02  0.59301972057E+02  0.50000051119E+02 0.  0.
         12    1    1    2    0    0  0.73703230047E-01  0.17950991219E+02 -0.26352898514E+02  0.31886027943E+02  0.00000000000E+00 0. -1.
         11    1    3    3    0    0  0.21728301660E+02 -0.91911842806E+01  0.33203922183E+01  0.23824818283E+02  0.51100000000E-03 0. -1.
        -11    1    3    3    0    0 -0.14348064768E+02  0.12323752297E+01  0.10693414835E+02  0.17936968316E+02  0.51100000000E-03 0.  1.
        -12    1    3    3    0    0 -0.74539401221E+01 -0.99921821678E+01  0.12339091461E+02  0.17540185458E+02  0.00000000000E+00 0.  1.
</event>
<event>
 7    1  0.7457761E-012  0.5930192E+02  0.7816164E-02  0.1266605E+00
        -11   -1    0    0    0    0  0.00000000000E+00  0.00000000000E+00  0.45593999997E+02  0.45594000000E+02  0.51100000000E-03 0.  1.
         11   -1    0    0    0    0 -0.00000000000E+00 -0.00000000000E+00 -0.45593999997E+02  0.45594000000E+02  0.51100000000E-03 0. -1.
    9900012    2    1    2    0    0 -0.30725959731E+02 -0.63732541624E+01  0.56585255298E+01  0.59301923396E+02  0.49999962373E+02 0.  0.
         12    1    1    2    0    0  0.30725959731E+02  0.63732541624E+01 -0.56585255298E+01  0.31886076604E+02  0.00000000000E+00 0. -1.
         11    1    3    3    0    0 -0.23442967972E+02  0.11571274279E+02 -0.89951504151E+01  0.27647420621E+02  0.51100000000E-03 0. -1.
        -11    1    3    3    0    0 -0.13305479667E+01 -0.20966249356E+02  0.88038662096E+01  0.22778543203E+02  0.51100000000E-03 0.  1.
         12    1    3    3    0    0 -0.59524437929E+01  0.30217209146E+01  0.58498097354E+01  0.88759595726E+01  0.00000000000E+00 0. -1.
</event>
<event>
 7    1  0.7457761E-012  0.5930195E+02  0.7816164E-02  0.1266605E+00
        -11   -1    0    0    0    0  0.00000000000E+00  0.00000000000E+00  0.45593999997E+02  0.45594000000E+02  0.51100000000E-03 0.  1.
         11   -1    0    0    0    0 -0.00000000000E+00 -0.00000000000E+00 -0.45593999997E+02  0.45594000000E+02  0.51100000000E-03 0. -1.
    9900012    2    1    2    0    0 -0.15712322366E+02  0.37990903276E+01  0.27484720964E+02  0.59301952143E+02  0.50000014800E+02 0.  0.
         12    1    1    2    0    0  0.15712322366E+02 -0.37990903276E+01 -0.27484720964E+02  0.31886047857E+02  0.00000000000E+00 0. -1.
         11    1    3    3    0    0 -0.19508493841E+02  0.37838977142E+00  0.14965143846E+02  0.24590242808E+02  0.51100000000E-03 0. -1.
        -11    1    3    3    0    0  0.49090405989E+01 -0.13923711156E+02  0.78226421061E+01  0.16708145970E+02  0.51100000000E-03 0.  1.
        -12    1    3    3    0    0 -0.11128691246E+01  0.17344411712E+02  0.46969350125E+01  0.18003563365E+02  0.00000000000E+00 0.  1.
</event>
<event>
 7    1  0.7457761E-012  0.5930202E+02  0.7816164E-02  0.1266605E+00
        -11   -1    0    0    0    0  0.00000000000E+00  0.00000000000E+00  0.45593999997E+02  0.45594000000E+02  0.51100000000E-03 0.  1.
         11   -1    0    0    0    0 -0.00000000000E+00 -0.00000000000E+00 -0.45593999997E+02  0.45594000000E+02  0.51100000000E-03 0. -1.
    9900012    2    1    2    0    0  0.16951669122E+02  0.21276633726E+02  0.16633147933E+02  0.59302018145E+02  0.50000135171E+02 0.  0.
         12    1    1    2    0    0 -0.16951669122E+02 -0.21276633726E+02 -0.16633147933E+02  0.31885981855E+02  0.00000000000E+00 0. -1.
         11    1    3    3    0    0 -0.79626373783E+01 -0.58592837294E+00  0.24759431381E+01  0.83592583858E+01  0.51100000000E-03 0. -1.
        -11    1    3    3    0    0  0.26067321589E+02  0.30515591601E+02  0.12680629616E+02  0.42089249855E+02  0.51100000000E-03 0.  1.
        -12    1    3    3    0    0 -0.11530150891E+01 -0.86530295024E+01  0.14765751790E+01  0.88535099042E+01  0.00000000000E+00 0.  1.
</event>
<event>
 7    1  0.7457761E-012  0.5930202E+02  0.7816164E-02  0.1266604E+00
        -11   -1    0    0    0    0  0.00000000000E+00  0.00000000000E+00  0.45593999997E+02  0.45594000000E+02  0.51100000000E-03 0.  1.
         11   -1    0    0    0    0 -0.00000000000E+00 -0.00000000000E+00 -0.45593999997E+02  0.45594000000E+02  0.51100000000E-03 0. -1.
    9900012    2    1    2    0    0 -0.19416789473E+02  0.17435521003E+01  0.25232199099E+02  0.59302022538E+02  0.50000143184E+02 0.  0.
         12    1    1    2    0    0  0.19416789473E+02 -0.17435521003E+01 -0.25232199099E+02  0.31885977462E+02  0.00000000000E+00 0. -1.
         11    1    3    3    0    0 -0.27219382190E+01 -0.11763421802E+02 -0.10478499689E+02  0.15987057145E+02  0.51100000000E-03 0. -1.
        -11    1    3    3    0    0 -0.16757265941E+02  0.91408722804E+01  0.23079839870E+02  0.29950634660E+02  0.51100000000E-03 0.  1.
        -12    1    3    3    0    0  0.62414687076E-01  0.43661016220E+01  0.12630858917E+02  0.13364330734E+02  0.00000000000E+00 0.  1.
</event>
<event>
 7    1  0.7457761E-012  0.5930195E+02  0.7816164E-02  0.1266605E+00
        -11   -1    0    0    0    0  0.00000000000E+00  0.00000000000E+00  0.45593999997E+02  0.45594000000E+02  0.51100000000E-03 0. -1.
         11   -1    0    0    0    0 -0.00000000000E+00 -0.00000000000E+00 -0.45593999997E+02  0.45594000000E+02  0.51100000000E-03 0.  1.
    9900012    2    1    2    0    0  0.22427688893E+02 -0.22664837742E+02  0.15559830304E+00  0.59301948037E+02  0.50000007312E+02 0.  0.
         12    1    1    2    0    0 -0.22427688893E+02  0.22664837742E+02 -0.15559830304E+00  0.31886051963E+02  0.00000000000E+00 0. -1.
         11    1    3    3    0    0  0.40834199871E+01  0.91299217662E+01  0.46428108326E+01  0.11026580745E+02  0.51100000000E-03 0. -1.
        -11    1    3    3    0    0  0.20777975012E+02 -0.13202544392E+02 -0.12820683763E+02  0.27756104850E+02  0.51100000000E-03 0.  1.
        -12    1    3    3    0    0 -0.24337061061E+01 -0.18592215116E+02  0.83334712334E+01  0.20519262441E+02  0.00000000000E+00 0.  1.
</event>
<event>
 7    1  0.7457761E-012  0.5930195E+02  0.7816164E-02  0.1266605E+00
        -11   -1    0    0    0    0  0.00000000000E+00  0.00000000000E+00  0.45593999997E+02  0.45594000000E+02  0.51100000000E-03 0.  1.
         11   -1    0    0    0    0 -0.00000000000E+00 -0.00000000000E+00 -0.45593999997E+02  0.45594000000E+02  0.51100000000E-03 0. -1.
    9900012    2    1    2    0    0 -0.33537709781E+01 -0.29424341434E+02  0.11818643993E+02  0.59301952982E+02  0.50000016331E+02 0.  0.
         12    1    1    2    0    0  0.33537709781E+01  0.29424341434E+02 -0.11818643993E+02  0.31886047018E+02  0.00000000000E+00 0. -1.
         11    1    3    3    0    0  0.99572391406E+01  0.61506948293E+01  0.13078922532E+02  0.17550950773E+02  0.51100000000E-03 0. -1.
        -11    1    3    3    0    0 -0.57103879140E+01 -0.28312859365E+02  0.52921226177E+01  0.29363805911E+02  0.51100000000E-03 0.  1.
         12    1    3    3    0    0 -0.76006222047E+01 -0.72621768983E+01 -0.65524011565E+01  0.12387196298E+02  0.00000000000E+00 0. -1.
</event>
<event>
 7    1  0.7457761E-012  0.5930194E+02  0.7816164E-02  0.1266605E+00
        -11   -1    0    0    0    0  0.00000000000E+00  0.00000000000E+00  0.45593999997E+02  0.45594000000E+02  0.51100000000E-03 0.  1.
         11   -1    0    0    0    0 -0.00000000000E+00 -0.00000000000E+00 -0.45593999997E+02  0.45594000000E+02  0.51100000000E-03 0. -1.
    9900012    2    1    2    0    0  0.10136470597E+02 -0.35079188197E+01  0.30027773317E+02  0.59301941903E+02  0.49999996124E+02 0.  0.
         12    1    1    2    0    0 -0.10136470597E+02  0.35079188197E+01 -0.30027773317E+02  0.31886058097E+02  0.00000000000E+00 0. -1.
         11    1    3    3    0    0  0.48764072079E+01 -0.33481667406E+01  0.41209600988E+02  0.41631968265E+02  0.51100000000E-03 0.  1.
        -11    1    3    3    0    0 -0.30654027821E+01 -0.19595793794E+01 -0.76073257887E+01  0.84325590112E+01  0.51100000000E-03 0. -1.
        -12    1    3    3    0    0  0.83254661710E+01  0.17998273003E+01 -0.35745018821E+01  0.92374146265E+01  0.00000000000E+00 0.  1.
</event>
<event>
 7    1  0.7457761E-012  0.5930185E+02  0.7816164E-02  0.1266605E+00
        -11   -1    0    0    0    0  0.00000000000E+00  0.00000000000E+00  0.45593999997E+02  0.45594000000E+02  0.51100000000E-03 0. -1.
         11   -1    0    0    0    0 -0.00000000000E+00 -0.00000000000E+00 -0.45593999997E+02  0.45594000000E+02  0.51100000000E-03 0.  1.
    9900012    2    1    2    0    0  0.56331006299E+01  0.39977279150E+01 -0.31128968334E+02  0.59301853780E+02  0.49999835410E+02 0.  0.
         12    1    1    2    0    0 -0.56331006299E+01 -0.39977279150E+01  0.31128968334E+02  0.31886146220E+02  0.00000000000E+00 0. -1.
         11    1    3    3    0    0 -0.12854287367E+02  0.98579254617E+01  0.11385650166E+01  0.16239080291E+02  0.51100000000E-03 0. -1.
        -11    1    3    3    0    0  0.18569425091E+02 -0.78876369450E+00 -0.33062703810E+02  0.37928723679E+02  0.51100000000E-03 0.  1.
         12    1    3    3    0    0 -0.82037093706E-01 -0.50714338522E+01  0.79517045947E+00  0.51340498110E+01  0.00000000000E+00 0. -1.
</event>
<event>
 7    1  0.7457761E-012  0.5930217E+02  0.7816164E-02  0.1266604E+00
        -11   -1    0    0    0    0  0.00000000000E+00  0.00000000000E+00  0.45593999997E+02  0.45594000000E+02  0.51100000000E-03 0.  1.
         11   -1    0    0    0    0 -0.00000000000E+00 -0.00000000000E+00 -0.45593999997E+02  0.45594000000E+02  0.51100000000E-03 0. -1.
    9900012    2    1    2    0    0  0.71714832373E+01  0.21753526782E+02  0.22182427218E+02  0.59302169658E+02  0.50000411494E+02 0.  0.
         12    1    1    2    0    0 -0.71714832373E+01 -0.21753526782E+02 -0.22182427218E+02  0.31885830342E+02  0.00000000000E+00 0. -1.
         11    1    3    3    0    0 -0.12606177296E+01  0.10831546135E+02 -0.81640991613E+01  0.13622190136E+02  0.51100000000E-03 0. -1.
        -11    1    3    3    0    0 -0.49063116073E+01 -0.66734258132E-01  0.27778210735E+02  0.28208249484E+02  0.51100000000E-03 0.  1.
         12    1    3    3    0    0  0.13338412574E+02  0.10988714905E+02  0.25683156448E+01  0.17471730038E+02  0.00000000000E+00 0. -1.
</event>
<event>
 7    1  0.7457761E-012  0.5930194E+02  0.7816164E-02  0.1266605E+00
        -11   -1    0    0    0    0  0.00000000000E+00  0.00000000000E+00  0.45593999997E+02  0.45594000000E+02  0.51100000000E-03 0.  1.
         11   -1    0    0    0    0 -0.00000000000E+00 -0.00000000000E+00 -0.45593999997E+02  0.45594000000E+02  0.51100000000E-03 0. -1.
    9900012    2    1    2    0    0  0.10968592481E+02  0.26921477944E+02 -0.13101331181E+02  0.59301939183E+02  0.49999991164E+02 0.  0.
         12    1    1    2    0    0 -0.10968592481E+02 -0.26921477944E+02  0.13101331181E+02  0.31886060817E+02  0.00000000000E+00 0. -1.
         11    1    3    3    0    0  0.52901119097E+01  0.37189166309E+02 -0.20872770791E+01  0.37621484562E+02  0.51100000000E-03 0.  1.
        -11    1    3    3    0    0  0.10158425618E+02 -0.58922073273E+01 -0.43174664803E+01  0.12512083571E+02  0.51100000000E-03 0. -1.
         12    1    3    3    0    0 -0.44799450468E+01 -0.43754810376E+01 -0.66965876212E+01  0.91683710495E+01  0.00000000000E+00 0. -1.
</event>
<event>
 7    1  0.7457761E-012  0.5930193E+02  0.7816164E-02  0.1266605E+00
        -11   -1    0    0    0    0  0.00000000000E+00  0.00000000000E+00  0.45593999997E+02  0.45594000000E+02  0.51100000000E-03 0.  1.
         11   -1    0    0    0    0 -0.00000000000E+00 -0.00000000000E+00 -0.45593999997E+02  0.45594000000E+02  0.51100000000E-03 0. -1.
    9900012    2    1    2    0    0  0.83742737779E+01 -0.25186954480E+02  0.17669480189E+02  0.59301926748E+02  0.49999968486E+02 0.  0.
         12    1    1    2    0    0 -0.83742737779E+01  0.25186954480E+02 -0.17669480189E+02  0.31886073252E+02  0.00000000000E+00 0. -1.
         11    1    3    3    0    0  0.13055554136E+02  0.60843339891E+01 -0.72329914233E+01  0.16117778354E+02  0.51100000000E-03 0. -1.
        -11    1    3    3    0    0 -0.45758205289E+00 -0.23838121576E+02  0.96950030368E+01  0.25738269284E+02  0.51100000000E-03 0.  1.
         12    1    3    3    0    0 -0.42236983052E+01 -0.74331668934E+01  0.15207468575E+02  0.17445879110E+02  0.00000000000E+00 0. -1.
</event>
<event>
 7    1  0.7457761E-012  0.5930194E+02  0.7816164E-02  0.1266605E+00
        -11   -1    0    0    0    0  0.00000000000E+00  0.00000000000E+00  0.45593999997E+02  0.45594000000E+02  0.51100000000E-03 0. -1.
         11   -1    0    0    0    0 -0.00000000000E+00 -0.00000000000E+00 -0.45593999997E+02  0.45594000000E+02  0.51100000000E-03 0.  1.
    9900012    2    1    2    0    0  0.18779328466E+02  0.24037542868E+02  0.92872974774E+01  0.59301944440E+02  0.50000000752E+02 0.  0.
         12    1    1    2    0    0 -0.18779328466E+02 -0.24037542868E+02 -0.92872974774E+01  0.31886055560E+02  0.00000000000E+00 0. -1.
         11    1    3    3    0    0  0.26927338726E+02  0.28305540731E+02  0.28538557022E+01  0.39171797248E+02  0.51100000000E-03 0. -1.
        -11    1    3    3    0    0 -0.45462285523E+01  0.26440104925E+01 -0.43498431279E+01  0.68249630792E+01  0.51100000000E-03 0.  1.
         12    1    3    3    0    0 -0.36017817086E+01 -0.69120083560E+01  0.10783284903E+02  0.13305184113E+02  0.00000000000E+00 0. -1.
</event>
<event>
 7    1  0.7457761E-012  0.5930194E+02  0.7816164E-02  0.1266605E+00
        -11   -1    0    0    0    0  0.00000000000E+00  0.00000000000E+00  0.45593999997E+02  0.45594000000E+02  0.51100000000E-03 0.  1.
         11   -1    0    0    0    0 -0.00000000000E+00 -0.00000000000E+00 -0.45593999997E+02  0.45594000000E+02  0.51100000000E-03 0. -1.
    9900012    2    1    2    0    0 -0.19087587461E+01 -0.35058758248E+01  0.31635207815E+02  0.59301938802E+02  0.49999990469E+02 0.  0.
         12    1    1    2    0    0  0.19087587461E+01  0.35058758248E+01 -0.31635207815E+02  0.31886061198E+02  0.00000000000E+00 0. -1.
         11    1    3    3    0    0  0.13592867572E+01  0.43438134593E+01 -0.11511889739E+02  0.12379013753E+02  0.51100000000E-03 0. -1.
        -11    1    3    3    0    0  0.20938347070E+01 -0.10966423452E+02  0.34642789345E+02  0.36397382337E+02  0.51100000000E-03 0.  1.
         12    1    3    3    0    0 -0.53618802104E+01  0.31167341677E+01  0.85043082092E+01  0.10525542712E+02  0.00000000000E+00 0. -1.
</event>
<event>
 7    1  0.7457761E-012  0.5930191E+02  0.7816164E-02  0.1266605E+00
        -11   -1    0    0    0    0  0.00000000000E+00  0.00000000000E+00  0.45593999997E+02  0.45594000000E+02  0.51100000000E-03 0. -1.
         11   -1    0    0    0    0 -0.00000000000E+00 -0.00000000000E+00 -0.45593999997E+02  0.45594000000E+02  0.51100000000E-03 0.  1.
    9900012    2    1    2    0    0  0.19568475586E+02  0.14177228154E+02 -0.20803938538E+02  0.59301907520E+02  0.49999933420E+02 0.  0.
         12    1    1    2    0    0 -0.19568475586E+02 -0.14177228154E+02  0.20803938538E+02  0.31886092480E+02  0.00000000000E+00 0. -1.
         11    1    3    3    0    0  0.20018554161E+01  0.29626398791E+02 -0.98332558640E+01  0.31279767448E+02  0.51100000000E-03 0. -1.
        -11    1    3    3    0    0  0.47699264678E+01 -0.24995436734E+01  0.19173662585E+01  0.57163109357E+01  0.51100000000E-03 0.  1.
         12    1    3    3    0    0  0.12796693703E+02 -0.12949626963E+02 -0.12888048933E+02  0.22305829137E+02  0.00000000000E+00 0. -1.
</event>
<event>
 7    1  0.7457761E-012  0.5930192E+02  0.7816164E-02  0.1266605E+00
        -11   -1    0    0    0    0  0.00000000000E+00  0.00000000000E+00  0.45593999997E+02  0.45594000000E+02  0.51100000000E-03 0.  1.
         11   -1    0    0    0    0 -0.00000000000E+00 -0.00000000000E+00 -0.45593999997E+02  0.45594000000E+02  0.51100000000E-03 0. -1.
    9900012    2    1    2    0    0 -0.49860962066E+00  0.97987178872E+01  0.30339056243E+02  0.59301924395E+02  0.49999964194E+02 0.  0.
         12    1    1    2    0    0  0.49860962066E+00 -0.97987178872E+01 -0.30339056243E+02  0.31886075605E+02  0.00000000000E+00 0. -1.
         11    1    3    3    0    0 -0.18387702034E+01 -0.93382492177E+01  0.90730873207E+01  0.13149330329E+02  0.51100000000E-03 0. -1.
        -11    1    3    3    0    0 -0.70279604705E+01  0.16244311579E+02  0.29277689233E+02  0.34211883522E+02  0.51100000000E-03 0.  1.
        -12    1    3    3    0    0  0.83681210533E+01  0.28926555255E+01 -0.80117203103E+01  0.11940710543E+02  0.00000000000E+00 0.  1.
</event>
<event>
 7    1  0.7457761E-012  0.5930193E+02  0.7816164E-02  0.1266605E+00
        -11   -1    0    0    0    0  0.00000000000E+00  0.00000000000E+00  0.45593999997E+02  0.45594000000E+02  0.51100000000E-03 0. -1.
         11   -1    0    0    0    0 -0.00000000000E+00 -0.00000000000E+00 -0.45593999997E+02  0.45594000000E+02  0.51100000000E-03 0.  1.
    9900012    2    1    2    0    0  0.93500173374E+01 -0.29315574101E+02 -0.83603598142E+01  0.59301932113E+02  0.49999978271E+02 0.  0.
         12    1    1    2    0    0 -0.93500173374E+01  0.29315574101E+02  0.83603598142E+01  0.31886067887E+02  0.00000000000E+00 0. -1.
         11    1    3    3    0    0  0.12779194470E+02 -0.35931676772E+02 -0.64509684021E+01  0.38678265221E+02  0.51100000000E-03 0. -1.
        -11    1    3    3    0    0 -0.84039741862E+00  0.87651189153E-01 -0.99282754160E+01  0.99641659735E+01  0.51100000000E-03 0.  1.
         12    1    3    3    0    0 -0.25887797136E+01  0.65284514821E+01  0.80188840039E+01  0.10659500918E+02  0.00000000000E+00 0. -1.
</event>
<event>
 7    1  0.7457761E-012  0.5930196E+02  0.7816164E-02  0.1266605E+00
        -11   -1    0    0    0    0  0.00000000000E+00  0.00000000000E+00  0.45593999997E+02  0.45594000000E+02  0.51100000000E-03 0.  1.
         11   -1    0    0    0    0 -0.00000000000E+00 -0.00000000000E+00 -0.45593999997E+02  0.45594000000E+02  0.51100000000E-03 0. -1.
    9900012    2    1    2    0    0 -0.26625095066E+01 -0.17384581595E+02  0.26597125321E+02  0.59301957451E+02  0.50000024480E+02 0.  0.
         12    1    1    2    0    0  0.26625095066E+01  0.17384581595E+02 -0.26597125321E+02  0.31886042549E+02  0.00000000000E+00 0. -1.
         11    1    3    3    0    0  0.44748302358E+01  0.14243089843E+02  0.12920243110E+02  0.19743920487E+02  0.51100000000E-03 0.  1.
        -11    1    3    3    0    0 -0.11495785517E+02 -0.12115667969E+02  0.32695734754E+01  0.17018595887E+02  0.51100000000E-03 0. -1.
         12    1    3    3    0    0  0.43584457750E+01 -0.19512003469E+02  0.10407308735E+02  0.22539441076E+02  0.00000000000E+00 0. -1.
</event>
<event>
 7    1  0.7457761E-012  0.5930196E+02  0.7816164E-02  0.1266605E+00
        -11   -1    0    0    0    0  0.00000000000E+00  0.00000000000E+00  0.45593999997E+02  0.45594000000E+02  0.51100000000E-03 0.  1.
         11   -1    0    0    0    0 -0.00000000000E+00 -0.00000000000E+00 -0.45593999997E+02  0.45594000000E+02  0.51100000000E-03 0. -1.
    9900012    2    1    2    0    0 -0.13184006528E+01  0.31423116094E+02 -0.52506244600E+01  0.59301961323E+02  0.50000031542E+02 0.  0.
         12    1    1    2    0    0  0.13184006528E+01 -0.31423116094E+02  0.52506244600E+01  0.31886038677E+02  0.00000000000E+00 0. -1.
         11    1    3    3    0    0  0.74209335117E+01  0.21850725376E+01 -0.20680574999E+02  0.22080103685E+02  0.51100000000E-03 0. -1.
        -11    1    3    3    0    0  0.15024041177E+00  0.19715572825E+02  0.13860645471E+02  0.24100702834E+02  0.51100000000E-03 0.  1.
        -12    1    3    3    0    0 -0.88895745763E+01  0.95224707314E+01  0.15693050687E+01  0.13121154803E+02  0.00000000000E+00 0.  1.
</event>
<event>
 7    1  0.7457761E-012  0.5930196E+02  0.7816164E-02  0.1266605E+00
        -11   -1    0    0    0    0  0.00000000000E+00  0.00000000000E+00  0.45593999997E+02  0.45594000000E+02  0.51100000000E-03 0.  1.
         11   -1    0    0    0    0 -0.00000000000E+00 -0.00000000000E+00 -0.45593999997E+02  0.45594000000E+02  0.51100000000E-03 0. -1.
    9900012    2    1    2    0    0 -0.44914004272E+01  0.28626427308E+02  0.13306924303E+02  0.59301964614E+02  0.50000037544E+02 0.  0.
         12    1    1    2    0    0  0.44914004272E+01 -0.28626427308E+02 -0.13306924303E+02  0.31886035386E+02  0.00000000000E+00 0. -1.
         11    1    3    3    0    0 -0.14034864208E+02  0.19941777457E+02  0.73707367940E+01  0.25475079247E+02  0.51100000000E-03 0. -1.
        -11    1    3    3    0    0  0.14929314797E+02  0.98659853079E+01  0.14911453775E+02  0.23293208460E+02  0.51100000000E-03 0.  1.
        -12    1    3    3    0    0 -0.53858510163E+01 -0.11813354567E+01 -0.89752662662E+01  0.10533676907E+02  0.00000000000E+00 0.  1.
</event>
<event>
 7    1  0.7457761E-012  0.5930217E+02  0.7816164E-02  0.1266604E+00
        -11   -1    0    0    0    0  0.00000000000E+00  0.00000000000E+00  0.45593999997E+02  0.45594000000E+02  0.51100000000E-03 0.  1.
         11   -1    0    0    0    0 -0.00000000000E+00 -0.00000000000E+00 -0.45593999997E+02  0.45594000000E+02  0.51100000000E-03 0. -1.
    9900012    2    1    2    0    0  0.10174323048E+02  0.35033249064E+01  0.30015258067E+02  0.59302174752E+02  0.50000420784E+02 0.  0.
         12    1    1    2    0    0 -0.10174323048E+02 -0.35033249064E+01 -0.30015258067E+02  0.31885825248E+02  0.00000000000E+00 0. -1.
         11    1    3    3    0    0 -0.31235714887E+01  0.54770819574E+01 -0.94491551918E+01  0.11359650510E+02  0.51100000000E-03 0. -1.
        -11    1    3    3    0    0  0.19411939425E+02 -0.32131334037E+01  0.22620993592E+02  0.29980943445E+02  0.51100000000E-03 0.  1.
         12    1    3    3    0    0 -0.61140448881E+01  0.12393763527E+01  0.16843419667E+02  0.17961580797E+02  0.00000000000E+00 0. -1.
</event>
<event>
 7    1  0.7457761E-012  0.5930195E+02  0.7816164E-02  0.1266605E+00
        -11   -1    0    0    0    0  0.00000000000E+00  0.00000000000E+00  0.45593999997E+02  0.45594000000E+02  0.51100000000E-03 0. -1.
         11   -1    0    0    0    0 -0.00000000000E+00 -0.00000000000E+00 -0.45593999997E+02  0.45594000000E+02  0.51100000000E-03 0.  1.
    9900012    2    1    2    0    0 -0.17651567431E+02  0.26442005858E+02  0.24418294814E+01  0.59301952302E+02  0.50000015091E+02 0.  0.
         12    1    1    2    0    0  0.17651567431E+02 -0.26442005858E+02 -0.24418294814E+01  0.31886047698E+02  0.00000000000E+00 0. -1.
         11    1    3    3    0    0 -0.47267896061E+01  0.28588981213E+02 -0.42666412524E+01  0.29289530802E+02  0.51100000000E-03 0. -1.
        -11    1    3    3    0    0 -0.94917688807E+00 -0.10000220163E+02 -0.52688148242E+01  0.11343092611E+02  0.51100000000E-03 0.  1.
         12    1    3    3    0    0 -0.11975600936E+02  0.78532448089E+01  0.11977285558E+02  0.18669328889E+02  0.00000000000E+00 0. -1.
</event>
<event>
 7    1  0.7457761E-012  0.5930196E+02  0.7816164E-02  0.1266605E+00
        -11   -1    0    0    0    0  0.00000000000E+00  0.00000000000E+00  0.45593999997E+02  0.45594000000E+02  0.51100000000E-03 0.  1.
         11   -1    0    0    0    0 -0.00000000000E+00 -0.00000000000E+00 -0.45593999997E+02  0.45594000000E+02  0.51100000000E-03 0. -1.
    9900012    2    1    2    0    0 -0.16473900316E+02 -0.27125083465E+02  0.30919481590E+01  0.59301957787E+02  0.50000025093E+02 0.  0.
         12    1    1    2    0    0  0.16473900316E+02  0.27125083465E+02 -0.30919481590E+01  0.31886042213E+02  0.00000000000E+00 0. -1.
         11    1    3    3    0    0  0.14882918628E+02 -0.20201867705E+01  0.94184948066E+01  0.17728239229E+02  0.51100000000E-03 0. -1.
        -11    1    3    3    0    0 -0.14428821198E+02 -0.12254334596E+02 -0.73226083342E+01  0.20297295156E+02  0.51100000000E-03 0.  1.
         12    1    3    3    0    0 -0.16927997745E+02 -0.12850562098E+02  0.99606168660E+00  0.21276423402E+02  0.00000000000E+00 0. -1.
</event>
<event>
 7    1  0.7457761E-012  0.5930194E+02  0.7816164E-02  0.1266605E+00
        -11   -1    0    0    0    0  0.00000000000E+00  0.00000000000E+00  0.45593999997E+02  0.45594000000E+02  0.51100000000E-03 0.  1.
         11   -1    0    0    0    0 -0.00000000000E+00 -0.00000000000E+00 -0.45593999997E+02  0.45594000000E+02  0.51100000000E-03 0. -1.
    9900012    2    1    2    0    0 -0.12060442968E+02 -0.16498201879E+02  0.24476024131E+02  0.59301941807E+02  0.49999995949E+02 0.  0.
         12    1    1    2    0    0  0.12060442968E+02  0.16498201879E+02 -0.24476024131E+02  0.31886058193E+02  0.00000000000E+00 0. -1.
         11    1    3    3    0    0  0.79121779250E+01  0.38326351742E+01  0.26376465758E+02  0.27803050157E+02  0.51100000000E-03 0. -1.
        -11    1    3    3    0    0 -0.97481201423E+01 -0.33642892419E+01  0.36293304002E+01  0.10932352346E+02  0.51100000000E-03 0.  1.
         12    1    3    3    0    0 -0.10224500751E+02 -0.16966547812E+02 -0.55297720267E+01  0.20566539303E+02  0.00000000000E+00 0. -1.
</event>
<event>
 7    1  0.7457761E-012  0.5930196E+02  0.7816164E-02  0.1266605E+00
        -11   -1    0    0    0    0  0.00000000000E+00  0.00000000000E+00  0.45593999997E+02  0.45594000000E+02  0.51100000000E-03 0.  1.
         11   -1    0    0    0    0 -0.00000000000E+00 -0.00000000000E+00 -0.45593999997E+02  0.45594000000E+02  0.51100000000E-03 0. -1.
    9900012    2    1    2    0    0 -0.39403742966E+01 -0.80876627859E+01  0.30590562262E+02  0.59301963269E+02  0.50000035091E+02 0.  0.
         12    1    1    2    0    0  0.39403742966E+01  0.80876627859E+01 -0.30590562262E+02  0.31886036731E+02  0.00000000000E+00 0. -1.
         11    1    3    3    0    0  0.35730779746E+01 -0.26600592986E+02  0.12076161204E+02  0.29431141723E+02  0.51100000000E-03 0. -1.
        -11    1    3    3    0    0  0.11127370703E+01  0.12099713868E+02  0.66126011505E+01  0.13833573426E+02  0.51100000000E-03 0.  1.
        -12    1    3    3    0    0 -0.86261893415E+01  0.64132163311E+01  0.11901799907E+02  0.16037248121E+02  0.00000000000E+00 0.  1.
</event>
<event>
 7    1  0.7457761E-012  0.5930195E+02  0.7816164E-02  0.1266605E+00
        -11   -1    0    0    0    0  0.00000000000E+00  0.00000000000E+00  0.45593999997E+02  0.45594000000E+02  0.51100000000E-03 0.  1.
         11   -1    0    0    0    0 -0.00000000000E+00 -0.00000000000E+00 -0.45593999997E+02  0.45594000000E+02  0.51100000000E-03 0. -1.
    9900012    2    1    2    0    0 -0.17732482308E+02  0.20890810922E+01  0.26418078271E+02  0.59301952140E+02  0.50000014794E+02 0.  0.
         12    1    1    2    0    0  0.17732482308E+02 -0.20890810922E+01 -0.26418078271E+02  0.31886047860E+02  0.00000000000E+00 0. -1.
         11    1    3    3    0    0  0.15148790169E+01  0.76550265355E+01  0.56462338850E+01  0.96319389035E+01  0.51100000000E-03 0. -1.
        -11    1    3    3    0    0 -0.14904446609E+02 -0.19134795661E+01 -0.10213590319E+02  0.18169242149E+02  0.51100000000E-03 0.  1.
        -12    1    3    3    0    0 -0.43429147152E+01 -0.36524658772E+01  0.30985434706E+02  0.31500771088E+02  0.00000000000E+00 0.  1.
</event>
<event>
 7    1  0.7457761E-012  0.5930194E+02  0.7816164E-02  0.1266605E+00
        -11   -1    0    0    0    0  0.00000000000E+00  0.00000000000E+00  0.45593999997E+02  0.45594000000E+02  0.51100000000E-03 0. -1.
         11   -1    0    0    0    0 -0.00000000000E+00 -0.00000000000E+00 -0.45593999997E+02  0.45594000000E+02  0.51100000000E-03 0.  1.
    9900012    2    1    2    0    0  0.48884635009E+01  0.31463356003E+02  0.16974270688E+01  0.59301935567E+02  0.49999984570E+02 0.  0.
         12    1    1    2    0    0 -0.48884635009E+01 -0.31463356003E+02 -0.16974270688E+01  0.31886064433E+02  0.00000000000E+00 0. -1.
         11    1    3    3    0    0 -0.56087698754E+01 -0.12415217856E+02  0.20769966710E+01  0.13780778257E+02  0.51100000000E-03 0. -1.
        -11    1    3    3    0    0  0.79612508045E+01  0.38910355512E+02  0.11639418338E+01  0.39733512823E+02  0.51100000000E-03 0.  1.
         12    1    3    3    0    0  0.25359825719E+01  0.49682183473E+01 -0.15435114361E+01  0.57876444867E+01  0.00000000000E+00 0. -1.
</event>
<event>
 7    1  0.7457761E-012  0.5930196E+02  0.7816164E-02  0.1266605E+00
        -11   -1    0    0    0    0  0.00000000000E+00  0.00000000000E+00  0.45593999997E+02  0.45594000000E+02  0.51100000000E-03 0.  1.
         11   -1    0    0    0    0 -0.00000000000E+00 -0.00000000000E+00 -0.45593999997E+02  0.45594000000E+02  0.51100000000E-03 0. -1.
    9900012    2    1    2    0    0  0.13675933630E+02 -0.96948578398E+00  0.28787996877E+02  0.59301955599E+02  0.50000021104E+02 0.  0.
         12    1    1    2    0    0 -0.13675933630E+02  0.96948578398E+00 -0.28787996877E+02  0.31886044401E+02  0.00000000000E+00 0. -1.
         11    1    3    3    0    0 -0.13040467017E+01 -0.16099962614E+02 -0.36270471420E+01  0.16554902754E+02  0.51100000000E-03 0. -1.
        -11    1    3    3    0    0  0.80149755566E+01  0.14189268056E+02  0.96894292886E+01  0.18959435681E+02  0.51100000000E-03 0.  1.
         12    1    3    3    0    0  0.69650047754E+01  0.94120877313E+00  0.22725614730E+02  0.23787617164E+02  0.00000000000E+00 0. -1.
</event>
<event>
 7    1  0.7457761E-012  0.5930197E+02  0.7816164E-02  0.1266605E+00
        -11   -1    0    0    0    0  0.00000000000E+00  0.00000000000E+00  0.45593999997E+02  0.45594000000E+02  0.51100000000E-03 0.  1.
         11   -1    0    0    0    0 -0.00000000000E+00 -0.00000000000E+00 -0.45593999997E+02  0.45594000000E+02  0.51100000000E-03 0. -1.
    9900012    2    1    2    0    0 -0.17433157421E+02 -0.18945099655E+02  0.18811879617E+02  0.59301974953E+02  0.50000056399E+02 0.  0.
         12    1    1    2    0    0  0.17433157421E+02  0.18945099655E+02 -0.18811879617E+02  0.31886025047E+02  0.00000000000E+00 0. -1.
         11    1    3    3    0    0  0.43524903689E+01 -0.16665378970E+02 -0.12125758015E+02  0.21064497059E+02  0.51100000000E-03 0. -1.
        -11    1    3    3    0    0 -0.10081096700E+02 -0.35686287240E+01  0.14984418162E+02  0.18409139294E+02  0.51100000000E-03 0.  1.
         12    1    3    3    0    0 -0.11704551089E+02  0.12889080391E+01  0.15953219471E+02  0.19828338600E+02  0.00000000000E+00 0. -1.
</event>
<event>
 7    1  0.7457761E-012  0.5930197E+02  0.7816164E-02  0.1266605E+00
        -11   -1    0    0    0    0  0.00000000000E+00  0.00000000000E+00  0.45593999997E+02  0.45594000000E+02  0.51100000000E-03 0. -1.
         11   -1    0    0    0    0 -0.00000000000E+00 -0.00000000000E+00 -0.45593999997E+02  0.45594000000E+02  0.51100000000E-03 0.  1.
    9900012    2    1    2    0    0 -0.18097457506E+02  0.65716611707E+00 -0.26244413362E+02  0.59301967506E+02  0.50000042818E+02 0.  0.
         12    1    1    2    0    0  0.18097457506E+02 -0.65716611707E+00  0.26244413362E+02  0.31886032494E+02  0.00000000000E+00 0. -1.
         11    1    3    3    0    0 -0.77183843040E+01 -0.10408807084E+02  0.23656648336E+00  0.12960427660E+02  0.51100000000E-03 0. -1.
        -11    1    3    3    0    0 -0.60503184318E+01  0.19597373364E+02 -0.26732252704E+01  0.20683556984E+02  0.51100000000E-03 0.  1.
        -12    1    3    3    0    0 -0.43287547700E+01 -0.85314001636E+01 -0.23807754575E+02  0.25657982862E+02  0.00000000000E+00 0.  1.
</event>
<event>
 7    1  0.7457761E-012  0.5930189E+02  0.7816164E-02  0.1266605E+00
        -11   -1    0    0    0    0  0.00000000000E+00  0.00000000000E+00  0.45593999997E+02  0.45594000000E+02  0.51100000000E-03 0.  1.
         11   -1    0    0    0    0 -0.00000000000E+00 -0.00000000000E+00 -0.45593999997E+02  0.45594000000E+02  0.51100000000E-03 0. -1.
    9900012    2    1    2    0    0 -0.12353884762E+02  0.12279263813E+01  0.29370012987E+02  0.59301891194E+02  0.49999903644E+02 0.  0.
         12    1    1    2    0    0  0.12353884762E+02 -0.12279263813E+01 -0.29370012987E+02  0.31886108806E+02  0.00000000000E+00 0. -1.
         11    1    3    3    0    0 -0.12352399852E+02 -0.14435494088E+02 -0.30452551303E+01  0.19241591689E+02  0.51100000000E-03 0. -1.
        -11    1    3    3    0    0  0.55889565164E+01  0.11316906805E+02  0.87495620582E+01  0.15357853074E+02  0.51100000000E-03 0.  1.
         12    1    3    3    0    0 -0.55904414268E+01  0.43465136634E+01  0.23665706059E+02  0.24702446431E+02  0.00000000000E+00 0. -1.
</event>
<event>
 7    1  0.7457761E-012  0.5930194E+02  0.7816164E-02  0.1266605E+00
        -11   -1    0    0    0    0  0.00000000000E+00  0.00000000000E+00  0.45593999997E+02  0.45594000000E+02  0.51100000000E-03 0. -1.
         11   -1    0    0    0    0 -0.00000000000E+00 -0.00000000000E+00 -0.45593999997E+02  0.45594000000E+02  0.51100000000E-03 0.  1.
    9900012    2    1    2    0    0  0.18064132437E+01 -0.36186210163E+00 -0.31832794558E+02  0.59301939059E+02  0.49999990938E+02 0.  0.
         12    1    1    2    0    0 -0.18064132437E+01  0.36186210163E+00  0.31832794558E+02  0.31886060941E+02  0.00000000000E+00 0. -1.
         11    1    3    3    0    0  0.54660151215E+01 -0.35244728058E+01  0.11756902485E+02  0.13435921486E+02  0.51100000000E-03 0. -1.
        -11    1    3    3    0    0  0.28798565782E+01  0.54903449847E+01 -0.11824741949E+02  0.13351478734E+02  0.51100000000E-03 0.  1.
         12    1    3    3    0    0 -0.65394584560E+01 -0.23277342805E+01 -0.31764955094E+02  0.32514538838E+02  0.00000000000E+00 0. -1.
</event>
<event>
 7    1  0.7457761E-012  0.5930197E+02  0.7816164E-02  0.1266605E+00
        -11   -1    0    0    0    0  0.00000000000E+00  0.00000000000E+00  0.45593999997E+02  0.45594000000E+02  0.51100000000E-03 0. -1.
         11   -1    0    0    0    0 -0.00000000000E+00 -0.00000000000E+00 -0.45593999997E+02  0.45594000000E+02  0.51100000000E-03 0.  1.
    9900012    2    1    2    0    0  0.17442735660E+02 -0.97327828749E+01 -0.24854436979E+02  0.59301966579E+02  0.50000041128E+02 0.  0.
         12    1    1    2    0    0 -0.17442735660E+02  0.97327828749E+01  0.24854436979E+02  0.31886033421E+02  0.00000000000E+00 0. -1.
         11    1    3    3    0    0 -0.93323724726E+01  0.70323787939E+01 -0.15536278922E+02  0.19440254383E+02  0.51100000000E-03 0. -1.
        -11    1    3    3    0    0  0.37952853381E+01 -0.15263689669E+02 -0.37642205610E+01  0.16172624085E+02  0.51100000000E-03 0.  1.
         12    1    3    3    0    0  0.22979822794E+02 -0.15014720003E+01 -0.55539374965E+01  0.23689088111E+02  0.00000000000E+00 0. -1.
</event>
<event>
 7    1  0.7457761E-012  0.5930195E+02  0.7816164E-02  0.1266605E+00
        -11   -1    0    0    0    0  0.00000000000E+00  0.00000000000E+00  0.45593999997E+02  0.45594000000E+02  0.51100000000E-03 0. -1.
         11   -1    0    0    0    0 -0.00000000000E+00 -0.00000000000E+00 -0.45593999997E+02  0.45594000000E+02  0.51100000000E-03 0.  1.
    9900012    2    1    2    0    0 -0.29924723322E+02  0.23472489236E+01 -0.10757380817E+02  0.59301954691E+02  0.50000019447E+02 0.  0.
         12    1    1    2    0    0  0.29924723322E+02 -0.23472489236E+01  0.10757380817E+02  0.31886045309E+02  0.00000000000E+00 0. -1.
         11    1    3    3    0    0 -0.13503090111E+02 -0.14721891457E+01  0.29543319777E+01  0.13900678441E+02  0.51100000000E-03 0. -1.
        -11    1    3    3    0    0 -0.18570350965E+01 -0.43959732095E+01 -0.24853497873E+02  0.25307499217E+02  0.51100000000E-03 0.  1.
        -12    1    3    3    0    0 -0.14564598115E+02  0.82154112789E+01  0.11141785079E+02  0.20093777033E+02  0.00000000000E+00 0.  1.
</event>
<event>
 7    1  0.7457761E-012  0.5930187E+02  0.7816164E-02  0.1266605E+00
        -11   -1    0    0    0    0  0.00000000000E+00  0.00000000000E+00  0.45593999997E+02  0.45594000000E+02  0.51100000000E-03 0.  1.
         11   -1    0    0    0    0 -0.00000000000E+00 -0.00000000000E+00 -0.45593999997E+02  0.45594000000E+02  0.51100000000E-03 0. -1.
    9900012    2    1    2    0    0  0.10942165490E+02  0.21666838473E+02  0.20677098662E+02  0.59301870036E+02  0.49999865057E+02 0.  0.
         12    1    1    2    0    0 -0.10942165490E+02 -0.21666838473E+02 -0.20677098662E+02  0.31886129964E+02  0.00000000000E+00 0. -1.
         11    1    3    3    0    0  0.90569807125E+01 -0.34481790113E+01 -0.40892613322E+01  0.10518597655E+02  0.51100000000E-03 0. -1.
        -11    1    3    3    0    0  0.32094266195E+01  0.20089754253E+02  0.33164440289E+02  0.38907309662E+02  0.51100000000E-03 0.  1.
         12    1    3    3    0    0 -0.13242418423E+01  0.50252632312E+01 -0.83980802948E+01  0.98759627195E+01  0.00000000000E+00 0. -1.
</event>
<event>
 7    1  0.7457761E-012  0.5930196E+02  0.7816164E-02  0.1266605E+00
        -11   -1    0    0    0    0  0.00000000000E+00  0.00000000000E+00  0.45593999997E+02  0.45594000000E+02  0.51100000000E-03 0.  1.
         11   -1    0    0    0    0 -0.00000000000E+00 -0.00000000000E+00 -0.45593999997E+02  0.45594000000E+02  0.51100000000E-03 0. -1.
    9900012    2    1    2    0    0 -0.27360145809E+02 -0.12765436686E+02 -0.10256002370E+02  0.59301960154E+02  0.50000029410E+02 0.  0.
         12    1    1    2    0    0  0.27360145809E+02  0.12765436686E+02  0.10256002370E+02  0.31886039846E+02  0.00000000000E+00 0. -1.
         11    1    3    3    0    0  0.97308886097E+01 -0.21499280039E+01  0.84424729207E+00  0.10001256786E+02  0.51100000000E-03 0. -1.
        -11    1    3    3    0    0 -0.22061816932E+02 -0.17899340791E+02  0.13928858064E+01  0.28443809489E+02  0.51100000000E-03 0.  1.
        -12    1    3    3    0    0 -0.15029217486E+02  0.72838321088E+01 -0.12493135468E+02  0.20856893879E+02  0.00000000000E+00 0.  1.
</event>
<event>
 7    1  0.7457761E-012  0.5930190E+02  0.7816164E-02  0.1266605E+00
        -11   -1    0    0    0    0  0.00000000000E+00  0.00000000000E+00  0.45593999997E+02  0.45594000000E+02  0.51100000000E-03 0. -1.
         11   -1    0    0    0    0 -0.00000000000E+00 -0.00000000000E+00 -0.45593999997E+02  0.45594000000E+02  0.51100000000E-03 0.  1.
    9900012    2    1    2    0    0 -0.15482736948E+02  0.25691865661E+02 -0.10813700675E+02  0.59301902296E+02  0.49999923891E+02 0.  0.
         12    1    1    2    0    0  0.15482736948E+02 -0.25691865661E+02  0.10813700675E+02  0.31886097704E+02  0.00000000000E+00 0. -1.
         11    1    3    3    0    0 -0.21037013773E+01 -0.72805783943E+01  0.41826269244E+01  0.86560238846E+01  0.51100000000E-03 0. -1.
        -11    1    3    3    0    0 -0.13257593426E+02  0.29988672375E+02  0.25121376658E+01  0.32884572221E+02  0.51100000000E-03 0.  1.
        -12    1    3    3    0    0 -0.12144214488E+00  0.29837716795E+01 -0.17508465265E+02  0.17761306190E+02  0.00000000000E+00 0.  1.
</event>
<event>
 7    1  0.7457761E-012  0.5930192E+02  0.7816164E-02  0.1266605E+00
        -11   -1    0    0    0    0  0.00000000000E+00  0.00000000000E+00  0.45593999997E+02  0.45594000000E+02  0.51100000000E-03 0.  1.
         11   -1    0    0    0    0 -0.00000000000E+00 -0.00000000000E+00 -0.45593999997E+02  0.45594000000E+02  0.51100000000E-03 0. -1.
    9900012    2    1    2    0    0  0.17747066340E+02 -0.55127189945E+01 -0.25910882678E+02  0.59301917212E+02  0.49999951095E+02 0.  0.
         12    1    1    2    0    0 -0.17747066340E+02  0.55127189945E+01  0.25910882678E+02  0.31886082788E+02  0.00000000000E+00 0. -1.
         11    1    3    3    0    0 -0.16642641601E+01 -0.31381629655E+01  0.21069395111E+01  0.41300165081E+01  0.51100000000E-03 0. -1.
        -11    1    3    3    0    0  0.99658427555E+01  0.20439607342E+02 -0.15189237797E+02  0.27346087750E+02  0.51100000000E-03 0.  1.
        -12    1    3    3    0    0  0.94454877450E+01 -0.22814163371E+02 -0.12828584392E+02  0.27825812954E+02  0.00000000000E+00 0.  1.
</event>
<event>
 7    1  0.7457761E-012  0.5930191E+02  0.7816164E-02  0.1266605E+00
        -11   -1    0    0    0    0  0.00000000000E+00  0.00000000000E+00  0.45593999997E+02  0.45594000000E+02  0.51100000000E-03 0.  1.
         11   -1    0    0    0    0 -0.00000000000E+00 -0.00000000000E+00 -0.45593999997E+02  0.45594000000E+02  0.51100000000E-03 0. -1.
    9900012    2    1    2    0    0 -0.96820694345E+01  0.26198321781E+02  0.15382723750E+02  0.59301910201E+02  0.49999938309E+02 0.  0.
         12    1    1    2    0    0  0.96820694345E+01 -0.26198321781E+02 -0.15382723750E+02  0.31886089799E+02  0.00000000000E+00 0. -1.
         11    1    3    3    0    0 -0.17572044158E+02  0.18264807033E+02  0.24172144637E+02  0.35023884542E+02  0.51100000000E-03 0.  1.
        -11    1    3    3    0    0  0.90798161931E+01  0.74136521358E+01 -0.14372160995E+02  0.18546274882E+02  0.51100000000E-03 0. -1.
         12    1    3    3    0    0 -0.11898414702E+01  0.51986261249E+00  0.55827401077E+01  0.57317507770E+01  0.00000000000E+00 0. -1.
</event>
<event>
 7    1  0.7457761E-012  0.5930194E+02  0.7816164E-02  0.1266605E+00
        -11   -1    0    0    0    0  0.00000000000E+00  0.00000000000E+00  0.45593999997E+02  0.45594000000E+02  0.51100000000E-03 0.  1.
         11   -1    0    0    0    0 -0.00000000000E+00 -0.00000000000E+00 -0.45593999997E+02  0.45594000000E+02  0.51100000000E-03 0. -1.
    9900012    2    1    2    0    0  0.19717898800E+02 -0.57484916424E+01  0.24390167297E+02  0.59301937998E+02  0.49999989003E+02 0.  0.
         12    1    1    2    0    0 -0.19717898800E+02  0.57484916424E+01 -0.24390167297E+02  0.31886062002E+02  0.00000000000E+00 0. -1.
         11    1    3    3    0    0 -0.25303340384E+00 -0.16538078998E+01 -0.31329867376E+01  0.35517196725E+01  0.51100000000E-03 0. -1.
        -11    1    3    3    0    0 -0.17228178261E+01  0.17476830212E+02  0.69707742383E+01  0.18894427465E+02  0.51100000000E-03 0.  1.
        -12    1    3    3    0    0  0.21693750030E+02 -0.21571513954E+02  0.20552379796E+02  0.36855790860E+02  0.00000000000E+00 0.  1.
</event>
<event>
 7    1  0.7457761E-012  0.5930194E+02  0.7816164E-02  0.1266605E+00
        -11   -1    0    0    0    0  0.00000000000E+00  0.00000000000E+00  0.45593999997E+02  0.45594000000E+02  0.51100000000E-03 0.  1.
         11   -1    0    0    0    0 -0.00000000000E+00 -0.00000000000E+00 -0.45593999997E+02  0.45594000000E+02  0.51100000000E-03 0. -1.
    9900012    2    1    2    0    0  0.61448427453E+01 -0.11242935267E+02  0.29198593621E+02  0.59301944189E+02  0.50000000294E+02 0.  0.
         12    1    1    2    0    0 -0.61448427453E+01  0.11242935267E+02 -0.29198593621E+02  0.31886055811E+02  0.00000000000E+00 0. -1.
         11    1    3    3    0    0  0.19556738430E+02  0.99178522728E+00 -0.24278771006E+01  0.19731807911E+02  0.51100000000E-03 0. -1.
        -11    1    3    3    0    0 -0.38718723060E+01 -0.13594602709E+02  0.18243894554E+02  0.23079088083E+02  0.51100000000E-03 0.  1.
         12    1    3    3    0    0 -0.95400233788E+01  0.13598822143E+01  0.13382576167E+02  0.16491048195E+02  0.00000000000E+00 0. -1.
</event>
<event>
 7    1  0.7457761E-012  0.5930195E+02  0.7816164E-02  0.1266605E+00
        -11   -1    0    0    0    0  0.00000000000E+00  0.00000000000E+00  0.45593999997E+02  0.45594000000E+02  0.51100000000E-03 0. -1.
         11   -1    0    0    0    0 -0.00000000000E+00 -0.00000000000E+00 -0.45593999997E+02  0.45594000000E+02  0.51100000000E-03 0.  1.
    9900012    2    1    2    0    0  0.24659434381E+02  0.97507603561E+01 -0.17707490712E+02  0.59301948836E+02  0.50000008769E+02 0.  0.
         12    1    1    2    0    0 -0.24659434381E+02 -0.97507603561E+01  0.17707490712E+02  0.31886051164E+02  0.00000000000E+00 0. -1.
         11    1    3    3    0    0  0.20014476867E+02  0.23835502642E+01 -0.16896871916E+01  0.20226607209E+02  0.51100000000E-03 0. -1.
        -11    1    3    3    0    0 -0.29686359281E+01  0.17453571414E+02  0.11687351458E+01  0.17742770259E+02  0.51100000000E-03 0.  1.
        -12    1    3    3    0    0  0.76135934420E+01 -0.10086361322E+02 -0.17186538666E+02  0.21332571367E+02  0.00000000000E+00 0.  1.
</event>
<event>
 7    1  0.7457761E-012  0.5930183E+02  0.7816164E-02  0.1266605E+00
        -11   -1    0    0    0    0  0.00000000000E+00  0.00000000000E+00  0.45593999997E+02  0.45594000000E+02  0.51100000000E-03 0. -1.
         11   -1    0    0    0    0 -0.00000000000E+00 -0.00000000000E+00 -0.45593999997E+02  0.45594000000E+02  0.51100000000E-03 0.  1.
    9900012    2    1    2    0    0 -0.21926855956E+02 -0.21896000535E+02  0.75170675426E+01  0.59301825002E+02  0.49999782926E+02 0.  0.
         12    1    1    2    0    0  0.21926855956E+02  0.21896000535E+02 -0.75170675426E+01  0.31886174998E+02  0.00000000000E+00 0. -1.
         11    1    3    3    0    0 -0.17817260054E+02  0.15635638674E+01 -0.42779140327E+01  0.18390215782E+02  0.51100000000E-03 0. -1.
        -11    1    3    3    0    0  0.20938979210E+01 -0.19175246073E+01  0.17541121995E+02  0.17769419525E+02  0.51100000000E-03 0.  1.
        -12    1    3    3    0    0 -0.62034938229E+01 -0.21542039796E+02 -0.57461404200E+01  0.23142189695E+02  0.00000000000E+00 0.  1.
</event>
<event>
 7    1  0.7457761E-012  0.5930194E+02  0.7816164E-02  0.1266605E+00
        -11   -1    0    0    0    0  0.00000000000E+00  0.00000000000E+00  0.45593999997E+02  0.45594000000E+02  0.51100000000E-03 0.  1.
         11   -1    0    0    0    0 -0.00000000000E+00 -0.00000000000E+00 -0.45593999997E+02  0.45594000000E+02  0.51100000000E-03 0. -1.
    9900012    2    1    2    0    0  0.24392295718E+02  0.37074128522E+01  0.20198801512E+02  0.59301943753E+02  0.49999999500E+02 0.  0.
         12    1    1    2    0    0 -0.24392295718E+02 -0.37074128522E+01 -0.20198801512E+02  0.31886056247E+02  0.00000000000E+00 0. -1.
         11    1    3    3    0    0  0.97959732469E+01 -0.18584665806E+01  0.64259644821E+00  0.99913923125E+01  0.51100000000E-03 0. -1.
        -11    1    3    3    0    0 -0.12419296815E+02  0.32001557683E+01  0.18059777310E+02  0.22150293160E+02  0.51100000000E-03 0.  1.
        -12    1    3    3    0    0  0.27015619286E+02  0.23657236645E+01  0.14964277533E+01  0.27160258281E+02  0.00000000000E+00 0.  1.
</event>
<event>
 7    1  0.7457761E-012  0.5930188E+02  0.7816164E-02  0.1266605E+00
        -11   -1    0    0    0    0  0.00000000000E+00  0.00000000000E+00  0.45593999997E+02  0.45594000000E+02  0.51100000000E-03 0. -1.
         11   -1    0    0    0    0 -0.00000000000E+00 -0.00000000000E+00 -0.45593999997E+02  0.45594000000E+02  0.51100000000E-03 0.  1.
    9900012    2    1    2    0    0  0.28779823549E+02  0.13401378847E+02  0.29748544894E+01  0.59301875153E+02  0.49999874389E+02 0.  0.
         12    1    1    2    0    0 -0.28779823549E+02 -0.13401378847E+02 -0.29748544894E+01  0.31886124847E+02  0.00000000000E+00 0. -1.
         11    1    3    3    0    0  0.10398417242E+02  0.87655714386E+01  0.10441152527E+02  0.17145844690E+02  0.51100000000E-03 0. -1.
        -11    1    3    3    0    0  0.13931775746E+02 -0.15499149796E+02 -0.45343270363E+01  0.21327872415E+02  0.51100000000E-03 0.  1.
        -12    1    3    3    0    0  0.44496305617E+01  0.20134957204E+02 -0.29319710010E+01  0.20828158048E+02  0.00000000000E+00 0.  1.
</event>
<event>
 7    1  0.7457761E-012  0.5930195E+02  0.7816164E-02  0.1266605E+00
        -11   -1    0    0    0    0  0.00000000000E+00  0.00000000000E+00  0.45593999997E+02  0.45594000000E+02  0.51100000000E-03 0. -1.
         11   -1    0    0    0    0 -0.00000000000E+00 -0.00000000000E+00 -0.45593999997E+02  0.45594000000E+02  0.51100000000E-03 0.  1.
    9900012    2    1    2    0    0  0.64439521313E+01  0.30188101196E+02 -0.79921471548E+01  0.59301946794E+02  0.50000005045E+02 0.  0.
         12    1    1    2    0    0 -0.64439521313E+01 -0.30188101196E+02  0.79921471548E+01  0.31886053206E+02  0.00000000000E+00 0. -1.
         11    1    3    3    0    0  0.17836448660E+02  0.14214317934E+02 -0.11106245173E+02  0.25367980157E+02  0.51100000000E-03 0. -1.
        -11    1    3    3    0    0 -0.17395541775E+02  0.13349292050E+02 -0.59776399869E+01  0.22727530705E+02  0.51100000000E-03 0.  1.
         12    1    3    3    0    0  0.60030452461E+01  0.26244912114E+01  0.90917380053E+01  0.11206435932E+02  0.00000000000E+00 0. -1.
</event>
<event>
 7    1  0.7457761E-012  0.5930194E+02  0.7816164E-02  0.1266605E+00
        -11   -1    0    0    0    0  0.00000000000E+00  0.00000000000E+00  0.45593999997E+02  0.45594000000E+02  0.51100000000E-03 0. -1.
         11   -1    0    0    0    0 -0.00000000000E+00 -0.00000000000E+00 -0.45593999997E+02  0.45594000000E+02  0.51100000000E-03 0.  1.
    9900012    2    1    2    0    0 -0.61459167603E+01 -0.31277427106E+02  0.81925199474E+00  0.59301938577E+02  0.49999990060E+02 0.  0.
         12    1    1    2    0    0  0.61459167603E+01  0.31277427106E+02 -0.81925199474E+00  0.31886061423E+02  0.00000000000E+00 0. -1.
         11    1    3    3    0    0  0.38818908789E-01 -0.30650803738E+02 -0.50480696499E+00  0.30654985027E+02  0.51100000000E-03 0.  1.
        -11    1    3    3    0    0  0.61323506966E+01  0.48744333888E+01  0.99284300763E+01  0.12646720918E+02  0.51100000000E-03 0. -1.
        -12    1    3    3    0    0 -0.12317086366E+02 -0.55010567577E+01 -0.86043711165E+01  0.16000232633E+02  0.00000000000E+00 0.  1.
</event>
<event>
 7    1  0.7457761E-012  0.5930189E+02  0.7816164E-02  0.1266605E+00
        -11   -1    0    0    0    0  0.00000000000E+00  0.00000000000E+00  0.45593999997E+02  0.45594000000E+02  0.51100000000E-03 0.  1.
         11   -1    0    0    0    0 -0.00000000000E+00 -0.00000000000E+00 -0.45593999997E+02  0.45594000000E+02  0.51100000000E-03 0. -1.
    9900012    2    1    2    0    0  0.26074742648E+02 -0.14693510045E+02  0.10996921158E+02  0.59301894617E+02  0.49999909886E+02 0.  0.
         12    1    1    2    0    0 -0.26074742648E+02  0.14693510045E+02 -0.10996921158E+02  0.31886105383E+02  0.00000000000E+00 0. -1.
         11    1    3    3    0    0  0.10398262139E+02  0.17374115135E+01 -0.10182215753E+02  0.14656738115E+02  0.51100000000E-03 0. -1.
        -11    1    3    3    0    0  0.18054797685E+02 -0.23080419538E+02  0.91541862467E+01  0.30699847094E+02  0.51100000000E-03 0.  1.
        -12    1    3    3    0    0 -0.23783171769E+01  0.66494979803E+01  0.12024950664E+02  0.13945309407E+02  0.00000000000E+00 0.  1.
</event>
<event>
 7    1  0.7457761E-012  0.5930190E+02  0.7816164E-02  0.1266605E+00
        -11   -1    0    0    0    0  0.00000000000E+00  0.00000000000E+00  0.45593999997E+02  0.45594000000E+02  0.51100000000E-03 0.  1.
         11   -1    0    0    0    0 -0.00000000000E+00 -0.00000000000E+00 -0.45593999997E+02  0.45594000000E+02  0.51100000000E-03 0. -1.
    9900012    2    1    2    0    0  0.17945692344E+02  0.10793086253E+02  0.24045468480E+02  0.59301903673E+02  0.49999926402E+02 0.  0.
         12    1    1    2    0    0 -0.17945692344E+02 -0.10793086253E+02 -0.24045468480E+02  0.31886096327E+02  0.00000000000E+00 0. -1.
         11    1    3    3    0    0  0.13409369436E+02  0.17233906233E+02 -0.66886480987E+01  0.22837616478E+02  0.51100000000E-03 0. -1.
        -11    1    3    3    0    0 -0.14755501370E+01 -0.85541260672E+01  0.51385461183E+01  0.10087367221E+02  0.51100000000E-03 0.  1.
         12    1    3    3    0    0  0.60118730450E+01  0.21133060876E+01  0.25595570460E+02  0.26376919974E+02  0.00000000000E+00 0. -1.
</event>
<event>
 7    1  0.7457761E-012  0.5930197E+02  0.7816164E-02  0.1266605E+00
        -11   -1    0    0    0    0  0.00000000000E+00  0.00000000000E+00  0.45593999997E+02  0.45594000000E+02  0.51100000000E-03 0. -1.
         11   -1    0    0    0    0 -0.00000000000E+00 -0.00000000000E+00 -0.45593999997E+02  0.45594000000E+02  0.51100000000E-03 0.  1.
    9900012    2    1    2    0    0  0.26263470230E+02  0.22447904580E+01 -0.17941846218E+02  0.59301971737E+02  0.50000050534E+02 0.  0.
         12    1    1    2    0    0 -0.26263470230E+02 -0.22447904580E+01  0.17941846218E+02  0.31886028263E+02  0.00000000000E+00 0. -1.
         11    1    3    3    0    0  0.35455433249E+02 -0.32673285899E+01 -0.51594778872E+01  0.35977540151E+02  0.51100000000E-03 0. -1.
        -11    1    3    3    0    0 -0.56504055798E+01  0.35435568247E+01  0.27928723507E+01  0.72307685908E+01  0.51100000000E-03 0.  1.
         12    1    3    3    0    0 -0.35415574392E+01  0.19685622232E+01 -0.15575240681E+02  0.16093662995E+02  0.00000000000E+00 0. -1.
</event>
<event>
 7    1  0.7457761E-012  0.5930192E+02  0.7816164E-02  0.1266605E+00
        -11   -1    0    0    0    0  0.00000000000E+00  0.00000000000E+00  0.45593999997E+02  0.45594000000E+02  0.51100000000E-03 0.  1.
         11   -1    0    0    0    0 -0.00000000000E+00 -0.00000000000E+00 -0.45593999997E+02  0.45594000000E+02  0.51100000000E-03 0. -1.
    9900012    2    1    2    0    0 -0.13094911177E+02  0.13639056386E+02  0.25675305064E+02  0.59301923917E+02  0.49999963322E+02 0.  0.
         12    1    1    2    0    0  0.13094911177E+02 -0.13639056386E+02 -0.25675305064E+02  0.31886076083E+02  0.00000000000E+00 0. -1.
         11    1    3    3    0    0  0.91655605772E+01 -0.11278947164E+02  0.16840907770E+01  0.14630731760E+02  0.51100000000E-03 0. -1.
        -11    1    3    3    0    0 -0.67132551787E+01 -0.12836556980E+01  0.70132404059E+01  0.97929111248E+01  0.51100000000E-03 0.  1.
         12    1    3    3    0    0 -0.15547216575E+02  0.26201659249E+02  0.16977973881E+02  0.34878281032E+02  0.00000000000E+00 0. -1.
</event>
<event>
 7    1  0.7457761E-012  0.5930200E+02  0.7816164E-02  0.1266605E+00
        -11   -1    0    0    0    0  0.00000000000E+00  0.00000000000E+00  0.45593999997E+02  0.45594000000E+02  0.51100000000E-03 0. -1.
         11   -1    0    0    0    0 -0.00000000000E+00 -0.00000000000E+00 -0.45593999997E+02  0.45594000000E+02  0.51100000000E-03 0.  1.
    9900012    2    1    2    0    0  0.21251266396E+02 -0.58283682220E+00 -0.23764695330E+02  0.59302003601E+02  0.50000108648E+02 0.  0.
         12    1    1    2    0    0 -0.21251266396E+02  0.58283682220E+00  0.23764695330E+02  0.31885996399E+02  0.00000000000E+00 0. -1.
         11    1    3    3    0    0  0.97821193789E+01  0.18347793238E+02 -0.98469793861E+01  0.23006398665E+02  0.51100000000E-03 0.  1.
        -11    1    3    3    0    0 -0.54320487904E+01 -0.41825202312E+01  0.36840098011E+01  0.77828374017E+01  0.51100000000E-03 0. -1.
        -12    1    3    3    0    0  0.16901195807E+02 -0.14748109829E+02 -0.17601725745E+02  0.28512767534E+02  0.00000000000E+00 0.  1.
</event>
<event>
 7    1  0.7457761E-012  0.5930196E+02  0.7816164E-02  0.1266605E+00
        -11   -1    0    0    0    0  0.00000000000E+00  0.00000000000E+00  0.45593999997E+02  0.45594000000E+02  0.51100000000E-03 0.  1.
         11   -1    0    0    0    0 -0.00000000000E+00 -0.00000000000E+00 -0.45593999997E+02  0.45594000000E+02  0.51100000000E-03 0. -1.
    9900012    2    1    2    0    0 -0.25839281783E+01  0.24392184629E+02  0.20373123182E+02  0.59301960672E+02  0.50000030356E+02 0.  0.
         12    1    1    2    0    0  0.25839281783E+01 -0.24392184629E+02 -0.20373123182E+02  0.31886039328E+02  0.00000000000E+00 0. -1.
         11    1    3    3    0    0 -0.65149867552E+01  0.29549508468E+00  0.26483450566E+02  0.27274631508E+02  0.51100000000E-03 0.  1.
        -11    1    3    3    0    0  0.99696901133E+01  0.20832434932E+02 -0.87158558171E+01  0.24685040187E+02  0.51100000000E-03 0. -1.
         12    1    3    3    0    0 -0.60386315365E+01  0.32642546121E+01  0.26055284338E+01  0.73422889772E+01  0.00000000000E+00 0. -1.
</event>
<event>
 7    1  0.7457761E-012  0.5930194E+02  0.7816164E-02  0.1266605E+00
        -11   -1    0    0    0    0  0.00000000000E+00  0.00000000000E+00  0.45593999997E+02  0.45594000000E+02  0.51100000000E-03 0.  1.
         11   -1    0    0    0    0 -0.00000000000E+00 -0.00000000000E+00 -0.45593999997E+02  0.45594000000E+02  0.51100000000E-03 0. -1.
    9900012    2    1    2    0    0 -0.14402465415E+02 -0.13288650306E+02  0.25153557282E+02  0.59301942217E+02  0.49999996698E+02 0.  0.
         12    1    1    2    0    0  0.14402465415E+02  0.13288650306E+02 -0.25153557282E+02  0.31886057783E+02  0.00000000000E+00 0. -1.
         11    1    3    3    0    0  0.76893125244E+01 -0.12669800976E+02  0.18973264671E+01  0.14941527093E+02  0.51100000000E-03 0. -1.
        -11    1    3    3    0    0 -0.16023323817E+02  0.10657724218E+02  0.24878057322E+02  0.31452372375E+02  0.51100000000E-03 0.  1.
        -12    1    3    3    0    0 -0.60684541224E+01 -0.11276573547E+02 -0.16218265071E+01  0.12908042749E+02  0.00000000000E+00 0.  1.
</event>
<event>
 7    1  0.7457761E-012  0.5930195E+02  0.7816164E-02  0.1266605E+00
        -11   -1    0    0    0    0  0.00000000000E+00  0.00000000000E+00  0.45593999997E+02  0.45594000000E+02  0.51100000000E-03 0. -1.
         11   -1    0    0    0    0 -0.00000000000E+00 -0.00000000000E+00 -0.45593999997E+02  0.45594000000E+02  0.51100000000E-03 0.  1.
    9900012    2    1    2    0    0 -0.70409425449E+01  0.28382160518E+02 -0.12712140355E+02  0.59301946309E+02  0.50000004160E+02 0.  0.
         12    1    1    2    0    0  0.70409425449E+01 -0.28382160518E+02  0.12712140355E+02  0.31886053691E+02  0.00000000000E+00 0. -1.
         11    1    3    3    0    0 -0.11828654966E+02  0.26903249207E+02  0.56603312968E+01  0.29928936614E+02  0.51100000000E-03 0.  1.
        -11    1    3    3    0    0  0.30849851877E+01 -0.12722041482E+01 -0.23267384928E+02  0.23505464017E+02  0.51100000000E-03 0. -1.
         12    1    3    3    0    0  0.17027272333E+01  0.27511154591E+01  0.48949132761E+01  0.58675456778E+01  0.00000000000E+00 0. -1.
</event>
<event>
 7    1  0.7457761E-012  0.5930180E+02  0.7816164E-02  0.1266605E+00
        -11   -1    0    0    0    0  0.00000000000E+00  0.00000000000E+00  0.45593999997E+02  0.45594000000E+02  0.51100000000E-03 0. -1.
         11   -1    0    0    0    0 -0.00000000000E+00 -0.00000000000E+00 -0.45593999997E+02  0.45594000000E+02  0.51100000000E-03 0.  1.
    9900012    2    1    2    0    0  0.22603638359E+02 -0.22296957802E+02 -0.29412622492E+01  0.59301798943E+02  0.49999735399E+02 0.  0.
         12    1    1    2    0    0 -0.22603638359E+02  0.22296957802E+02  0.29412622492E+01  0.31886201057E+02  0.00000000000E+00 0. -1.
         11    1    3    3    0    0  0.53101249305E+01 -0.17580773699E+02  0.62003371229E+01  0.19383632563E+02  0.51100000000E-03 0.  1.
        -11    1    3    3    0    0  0.80231426219E+00 -0.33956016863E+01 -0.19887058598E+02  0.20190812735E+02  0.51100000000E-03 0. -1.
        -12    1    3    3    0    0  0.16491199166E+02 -0.13205824164E+01  0.10745459226E+02  0.19727353644E+02  0.00000000000E+00 0.  1.
</event>
<event>
 7    1  0.7457761E-012  0.5930194E+02  0.7816164E-02  0.1266605E+00
        -11   -1    0    0    0    0  0.00000000000E+00  0.00000000000E+00  0.45593999997E+02  0.45594000000E+02  0.51100000000E-03 0.  1.
         11   -1    0    0    0    0 -0.00000000000E+00 -0.00000000000E+00 -0.45593999997E+02  0.45594000000E+02  0.51100000000E-03 0. -1.
    9900012    2    1    2    0    0  0.70763575499E+01  0.28448338435E+01  0.30960505017E+02  0.59301940559E+02  0.49999993674E+02 0.  0.
         12    1    1    2    0    0 -0.70763575499E+01 -0.28448338435E+01 -0.30960505017E+02  0.31886059441E+02  0.00000000000E+00 0. -1.
         11    1    3    3    0    0  0.79311710029E+01  0.12801249291E+02 -0.57535289342E+01  0.16120749125E+02  0.51100000000E-03 0. -1.
        -11    1    3    3    0    0 -0.59487052697E+01  0.42192797862E+01  0.15854338369E+02  0.17451345555E+02  0.51100000000E-03 0.  1.
         12    1    3    3    0    0  0.50938918166E+01 -0.14175695234E+02  0.20859695582E+02  0.25729845879E+02  0.00000000000E+00 0. -1.
</event>
<event>
 7    1  0.7457761E-012  0.5930196E+02  0.7816164E-02  0.1266605E+00
        -11   -1    0    0    0    0  0.00000000000E+00  0.00000000000E+00  0.45593999997E+02  0.45594000000E+02  0.51100000000E-03 0. -1.
         11   -1    0    0    0    0 -0.00000000000E+00 -0.00000000000E+00 -0.45593999997E+02  0.45594000000E+02  0.51100000000E-03 0.  1.
    9900012    2    1    2    0    0 -0.10633727806E+02 -0.10795983255E+02 -0.28055128964E+02  0.59301957871E+02  0.50000025247E+02 0.  0.
         12    1    1    2    0    0  0.10633727806E+02  0.10795983255E+02  0.28055128964E+02  0.31886042129E+02  0.00000000000E+00 0. -1.
         11    1    3    3    0    0 -0.17115815089E+01  0.13415232045E+02  0.69552365289E+01  0.15207671666E+02  0.51100000000E-03 0. -1.
        -11    1    3    3    0    0 -0.34194209752E+01 -0.14304985108E+02 -0.24839277377E+02  0.28867191405E+02  0.51100000000E-03 0.  1.
         12    1    3    3    0    0 -0.55027253222E+01 -0.99062301911E+01 -0.10171088116E+02  0.15227094799E+02  0.00000000000E+00 0. -1.
</event>
<event>
 7    1  0.7457761E-012  0.5930194E+02  0.7816164E-02  0.1266605E+00
        -11   -1    0    0    0    0  0.00000000000E+00  0.00000000000E+00  0.45593999997E+02  0.45594000000E+02  0.51100000000E-03 0.  1.
         11   -1    0    0    0    0 -0.00000000000E+00 -0.00000000000E+00 -0.45593999997E+02  0.45594000000E+02  0.51100000000E-03 0. -1.
    9900012    2    1    2    0    0 -0.22574732328E+02  0.10043055121E+02 -0.20155376439E+02  0.59301941993E+02  0.49999996289E+02 0.  0.
         12    1    1    2    0    0  0.22574732328E+02 -0.10043055121E+02  0.20155376439E+02  0.31886058007E+02  0.00000000000E+00 0. -1.
         11    1    3    3    0    0 -0.64962700179E+01 -0.84408765773E+01 -0.14100160763E+01  0.10744210866E+02  0.51100000000E-03 0. -1.
        -11    1    3    3    0    0  0.16247348635E+00  0.12681826359E+02 -0.26704702821E+02  0.29563427921E+02  0.51100000000E-03 0.  1.
        -12    1    3    3    0    0 -0.16240935796E+02  0.58021053395E+01  0.79593424586E+01  0.18994303206E+02  0.00000000000E+00 0.  1.
</event>
<event>
 7    1  0.7457761E-012  0.5930197E+02  0.7816164E-02  0.1266605E+00
        -11   -1    0    0    0    0  0.00000000000E+00  0.00000000000E+00  0.45593999997E+02  0.45594000000E+02  0.51100000000E-03 0.  1.
         11   -1    0    0    0    0 -0.00000000000E+00 -0.00000000000E+00 -0.45593999997E+02  0.45594000000E+02  0.51100000000E-03 0. -1.
    9900012    2    1    2    0    0  0.30058351539E+02 -0.48978534786E+01 -0.94459207248E+01  0.59301970390E+02  0.50000048079E+02 0.  0.
         12    1    1    2    0    0 -0.30058351539E+02  0.48978534786E+01  0.94459207248E+01  0.31886029610E+02  0.00000000000E+00 0. -1.
         11    1    3    3    0    0 -0.49149525261E+01 -0.10003952787E+02 -0.46104447561E+01  0.12062007743E+02  0.51100000000E-03 0. -1.
        -11    1    3    3    0    0  0.25367642076E+02  0.16328326336E+02 -0.96972771512E+01  0.31688620825E+02  0.51100000000E-03 0.  1.
        -12    1    3    3    0    0  0.96056619894E+01 -0.11222227027E+02  0.48618011825E+01  0.15551341821E+02  0.00000000000E+00 0.  1.
</event>
<event>
 7    1  0.7457761E-012  0.5930191E+02  0.7816164E-02  0.1266605E+00
        -11   -1    0    0    0    0  0.00000000000E+00  0.00000000000E+00  0.45593999997E+02  0.45594000000E+02  0.51100000000E-03 0.  1.
         11   -1    0    0    0    0 -0.00000000000E+00 -0.00000000000E+00 -0.45593999997E+02  0.45594000000E+02  0.51100000000E-03 0. -1.
    9900012    2    1    2    0    0  0.27012339879E+02  0.11175356357E+02 -0.12734498200E+02  0.59301913068E+02  0.49999943538E+02 0.  0.
         12    1    1    2    0    0 -0.27012339879E+02 -0.11175356357E+02  0.12734498200E+02  0.31886086932E+02  0.00000000000E+00 0. -1.
         11    1    3    3    0    0  0.26981362197E+02 -0.96494455114E+01  0.45691915647E+00  0.28658584753E+02  0.51100000000E-03 0.  1.
        -11    1    3    3    0    0  0.15293728534E+00  0.23288221341E+02 -0.14896005701E+02  0.27645173704E+02  0.51100000000E-03 0. -1.
         12    1    3    3    0    0 -0.12195960396E+00 -0.24634194726E+01  0.17045883451E+01  0.29981546107E+01  0.00000000000E+00 0. -1.
</event>
<event>
 7    1  0.7457761E-012  0.5930184E+02  0.7816164E-02  0.1266605E+00
        -11   -1    0    0    0    0  0.00000000000E+00  0.00000000000E+00  0.45593999997E+02  0.45594000000E+02  0.51100000000E-03 0.  1.
         11   -1    0    0    0    0 -0.00000000000E+00 -0.00000000000E+00 -0.45593999997E+02  0.45594000000E+02  0.51100000000E-03 0. -1.
    9900012    2    1    2    0    0 -0.59244060377E+01 -0.87434179887E+01  0.30086230884E+02  0.59301839463E+02  0.49999809298E+02 0.  0.
         12    1    1    2    0    0  0.59244060377E+01  0.87434179887E+01 -0.30086230884E+02  0.31886160537E+02  0.00000000000E+00 0. -1.
         11    1    3    3    0    0 -0.22635291396E+02 -0.36338499461E+01  0.26321746754E+02  0.34905524412E+02  0.51100000000E-03 0. -1.
        -11    1    3    3    0    0  0.82526170595E+01 -0.10329162018E+02 -0.12201500830E+01  0.13277275429E+02  0.51100000000E-03 0.  1.
         12    1    3    3    0    0  0.84582682988E+01  0.52195939755E+01  0.49846342127E+01  0.11119039622E+02  0.00000000000E+00 0. -1.
</event>
<event>
 7    1  0.7457761E-012  0.5930196E+02  0.7816164E-02  0.1266605E+00
        -11   -1    0    0    0    0  0.00000000000E+00  0.00000000000E+00  0.45593999997E+02  0.45594000000E+02  0.51100000000E-03 0.  1.
         11   -1    0    0    0    0 -0.00000000000E+00 -0.00000000000E+00 -0.45593999997E+02  0.45594000000E+02  0.51100000000E-03 0. -1.
    9900012    2    1    2    0    0 -0.27825875325E+02 -0.15390079618E+02  0.23633686225E+01  0.59301962311E+02  0.50000033345E+02 0.  0.
         12    1    1    2    0    0  0.27825875325E+02  0.15390079618E+02 -0.23633686225E+01  0.31886037689E+02  0.00000000000E+00 0. -1.
         11    1    3    3    0    0 -0.91831228924E+01 -0.14621161372E+02 -0.17382707300E+02  0.24500339166E+02  0.51100000000E-03 0. -1.
        -11    1    3    3    0    0 -0.10320355175E+02  0.89413214436E+01  0.34452713891E+01  0.14082856788E+02  0.51100000000E-03 0.  1.
         12    1    3    3    0    0 -0.83223972578E+01 -0.97102396898E+01  0.16300804533E+02  0.20718766358E+02  0.00000000000E+00 0. -1.
</event>
<event>
 7    1  0.7457761E-012  0.5930193E+02  0.7816164E-02  0.1266605E+00
        -11   -1    0    0    0    0  0.00000000000E+00  0.00000000000E+00  0.45593999997E+02  0.45594000000E+02  0.51100000000E-03 0. -1.
         11   -1    0    0    0    0 -0.00000000000E+00 -0.00000000000E+00 -0.45593999997E+02  0.45594000000E+02  0.51100000000E-03 0.  1.
    9900012    2    1    2    0    0  0.16505476029E+02 -0.19823269835E+02 -0.18743755876E+02  0.59301934858E+02  0.49999983276E+02 0.  0.
         12    1    1    2    0    0 -0.16505476029E+02  0.19823269835E+02  0.18743755876E+02  0.31886065142E+02  0.00000000000E+00 0. -1.
         11    1    3    3    0    0  0.13471343892E+02 -0.10548967261E+02  0.14704816703E+02  0.22560794557E+02  0.51100000000E-03 0. -1.
        -11    1    3    3    0    0 -0.32249960380E+01  0.22461213774E+00 -0.12408625885E+02  0.12822833021E+02  0.51100000000E-03 0.  1.
         12    1    3    3    0    0  0.62591281758E+01 -0.94989147123E+01 -0.21039946694E+02  0.23918307279E+02  0.00000000000E+00 0. -1.
</event>
<event>
 7    1  0.7457761E-012  0.5930198E+02  0.7816164E-02  0.1266605E+00
        -11   -1    0    0    0    0  0.00000000000E+00  0.00000000000E+00  0.45593999997E+02  0.45594000000E+02  0.51100000000E-03 0.  1.
         11   -1    0    0    0    0 -0.00000000000E+00 -0.00000000000E+00 -0.45593999997E+02  0.45594000000E+02  0.51100000000E-03 0. -1.
    9900012    2    1    2    0    0 -0.22705650052E+01 -0.82873039361E+01  0.30706406544E+02  0.59301979948E+02  0.50000065509E+02 0.  0.
         12    1    1    2    0    0  0.22705650052E+01  0.82873039361E+01 -0.30706406544E+02  0.31886020052E+02  0.00000000000E+00 0. -1.
         11    1    3    3    0    0 -0.21258712335E+01  0.45162194313E+01 -0.10137436174E+02  0.11299698177E+02  0.51100000000E-03 0. -1.
        -11    1    3    3    0    0 -0.96423544283E+01 -0.11140379080E+02  0.30434520952E+02  0.33813356988E+02  0.51100000000E-03 0.  1.
        -12    1    3    3    0    0  0.94976606566E+01 -0.16631442879E+01  0.10409321766E+02  0.14188924783E+02  0.00000000000E+00 0.  1.
</event>
<event>
 7    1  0.7457761E-012  0.5930182E+02  0.7816164E-02  0.1266605E+00
        -11   -1    0    0    0    0  0.00000000000E+00  0.00000000000E+00  0.45593999997E+02  0.45594000000E+02  0.51100000000E-03 0.  1.
         11   -1    0    0    0    0 -0.00000000000E+00 -0.00000000000E+00 -0.45593999997E+02  0.45594000000E+02  0.51100000000E-03 0. -1.
    9900012    2    1    2    0    0 -0.24668783587E+02 -0.19913711309E+02 -0.34093752982E+01  0.59301817700E+02  0.49999769608E+02 0.  0.
         12    1    1    2    0    0  0.24668783587E+02  0.19913711309E+02  0.34093752982E+01  0.31886182300E+02  0.00000000000E+00 0. -1.
         11    1    3    3    0    0 -0.33810656926E+02 -0.96988520763E+01 -0.92411382126E+01  0.36367937652E+02  0.51100000000E-03 0. -1.
        -11    1    3    3    0    0  0.75171606883E+01  0.34230892670E+01  0.36374320766E+01  0.90253064943E+01  0.51100000000E-03 0.  1.
        -12    1    3    3    0    0  0.16247126501E+01 -0.13637948499E+02  0.21943308378E+01  0.13908573553E+02  0.00000000000E+00 0.  1.
</event>
<event>
 7    1  0.7457761E-012  0.5930189E+02  0.7816164E-02  0.1266605E+00
        -11   -1    0    0    0    0  0.00000000000E+00  0.00000000000E+00  0.45593999997E+02  0.45594000000E+02  0.51100000000E-03 0.  1.
         11   -1    0    0    0    0 -0.00000000000E+00 -0.00000000000E+00 -0.45593999997E+02  0.45594000000E+02  0.51100000000E-03 0. -1.
    9900012    2    1    2    0    0 -0.26483034494E+02 -0.66400065698E+01  0.16470671592E+02  0.59301892901E+02  0.49999906757E+02 0.  0.
         12    1    1    2    0    0  0.26483034494E+02  0.66400065698E+01 -0.16470671592E+02  0.31886107099E+02  0.00000000000E+00 0. -1.
         11    1    3    3    0    0 -0.12998761388E+02 -0.16994209072E+02 -0.87175092803E+01  0.23103374384E+02  0.51100000000E-03 0. -1.
        -11    1    3    3    0    0 -0.10880141693E+02  0.14667398265E+02  0.11423760285E+02  0.21540945997E+02  0.51100000000E-03 0.  1.
         12    1    3    3    0    0 -0.26041314129E+01 -0.43131957629E+01  0.13764420586E+02  0.14657572520E+02  0.00000000000E+00 0. -1.
</event>
<event>
 7    1  0.7457761E-012  0.5930194E+02  0.7816164E-02  0.1266605E+00
        -11   -1    0    0    0    0  0.00000000000E+00  0.00000000000E+00  0.45593999997E+02  0.45594000000E+02  0.51100000000E-03 0.  1.
         11   -1    0    0    0    0 -0.00000000000E+00 -0.00000000000E+00 -0.45593999997E+02  0.45594000000E+02  0.51100000000E-03 0. -1.
    9900012    2    1    2    0    0  0.68329029057E+01  0.26498607121E+02  0.16366312966E+02  0.59301938130E+02  0.49999989243E+02 0.  0.
         12    1    1    2    0    0 -0.68329029057E+01 -0.26498607121E+02 -0.16366312966E+02  0.31886061870E+02  0.00000000000E+00 0. -1.
         11    1    3    3    0    0  0.95648363611E+01  0.12184249426E+02  0.29471303972E+02  0.33294140427E+02  0.51100000000E-03 0. -1.
        -11    1    3    3    0    0 -0.65364085442E+01  0.16124695971E+01  0.81721368866E+00  0.67817795108E+01  0.51100000000E-03 0.  1.
         12    1    3    3    0    0  0.38044750888E+01  0.12701888098E+02 -0.13922204695E+02  0.19226018192E+02  0.00000000000E+00 0. -1.
</event>
<event>
 7    1  0.7457761E-012  0.5930194E+02  0.7816164E-02  0.1266605E+00
        -11   -1    0    0    0    0  0.00000000000E+00  0.00000000000E+00  0.45593999997E+02  0.45594000000E+02  0.51100000000E-03 0. -1.
         11   -1    0    0    0    0 -0.00000000000E+00 -0.00000000000E+00 -0.45593999997E+02  0.45594000000E+02  0.51100000000E-03 0.  1.
    9900012    2    1    2    0    0 -0.17856429271E+02 -0.12157737489E+02 -0.23453316541E+02  0.59301941857E+02  0.49999996040E+02 0.  0.
         12    1    1    2    0    0  0.17856429271E+02  0.12157737489E+02  0.23453316541E+02  0.31886058143E+02  0.00000000000E+00 0. -1.
         11    1    3    3    0    0 -0.94135503246E+01 -0.18720961871E+02  0.90120249664E+01  0.22810215636E+02  0.51100000000E-03 0. -1.
        -11    1    3    3    0    0 -0.89216934729E+01  0.13006127502E+01 -0.10225243060E+02  0.13632454066E+02  0.51100000000E-03 0.  1.
         12    1    3    3    0    0  0.47881452639E+00  0.52626116317E+01 -0.22240098447E+02  0.22859272155E+02  0.00000000000E+00 0. -1.
</event>
<event>
 7    1  0.7457761E-012  0.5930193E+02  0.7816164E-02  0.1266605E+00
        -11   -1    0    0    0    0  0.00000000000E+00  0.00000000000E+00  0.45593999997E+02  0.45594000000E+02  0.51100000000E-03 0.  1.
         11   -1    0    0    0    0 -0.00000000000E+00 -0.00000000000E+00 -0.45593999997E+02  0.45594000000E+02  0.51100000000E-03 0. -1.
    9900012    2    1    2    0    0 -0.10875743723E+01  0.30084552821E+02  0.10509920453E+02  0.59301928363E+02  0.49999971432E+02 0.  0.
         12    1    1    2    0    0  0.10875743723E+01 -0.30084552821E+02 -0.10509920453E+02  0.31886071637E+02  0.00000000000E+00 0. -1.
         11    1    3    3    0    0  0.57046259813E+01  0.22644086741E+02  0.83562246930E+01  0.24801691743E+02  0.51100000000E-03 0. -1.
        -11    1    3    3    0    0  0.57593113597E+01 -0.54492000605E+01  0.11699839367E+02  0.14133283062E+02  0.51100000000E-03 0.  1.
         12    1    3    3    0    0 -0.12551511713E+02  0.12889666141E+02 -0.95461436065E+01  0.20366953559E+02  0.00000000000E+00 0. -1.
</event>
<event>
 7    1  0.7457761E-012  0.5930193E+02  0.7816164E-02  0.1266605E+00
        -11   -1    0    0    0    0  0.00000000000E+00  0.00000000000E+00  0.45593999997E+02  0.45594000000E+02  0.51100000000E-03 0.  1.
         11   -1    0    0    0    0 -0.00000000000E+00 -0.00000000000E+00 -0.45593999997E+02  0.45594000000E+02  0.51100000000E-03 0. -1.
    9900012    2    1    2    0    0 -0.28555638653E+02  0.80325823245E+01 -0.11695053698E+02  0.59301934726E+02  0.49999983035E+02 0.  0.
         12    1    1    2    0    0  0.28555638653E+02 -0.80325823245E+01  0.11695053698E+02  0.31886065274E+02  0.00000000000E+00 0. -1.
         11    1    3    3    0    0  0.99559000342E+01  0.59618003131E+01 -0.55181090721E+01  0.12849612308E+02  0.51100000000E-03 0. -1.
        -11    1    3    3    0    0 -0.29946783006E+02 -0.60323098639E+00  0.67621381030E+01  0.30706680251E+02  0.51100000000E-03 0.  1.
        -12    1    3    3    0    0 -0.85647556809E+01  0.26740129978E+01 -0.12939082729E+02  0.15745642167E+02  0.00000000000E+00 0.  1.
</event>
<event>
 7    1  0.7457761E-012  0.5930195E+02  0.7816164E-02  0.1266605E+00
        -11   -1    0    0    0    0  0.00000000000E+00  0.00000000000E+00  0.45593999997E+02  0.45594000000E+02  0.51100000000E-03 0. -1.
         11   -1    0    0    0    0 -0.00000000000E+00 -0.00000000000E+00 -0.45593999997E+02  0.45594000000E+02  0.51100000000E-03 0.  1.
    9900012    2    1    2    0    0 -0.19338900625E+02 -0.23041223440E+02 -0.10574938718E+02  0.59301946875E+02  0.50000005193E+02 0.  0.
         12    1    1    2    0    0  0.19338900625E+02  0.23041223440E+02  0.10574938718E+02  0.31886053125E+02  0.00000000000E+00 0. -1.
         11    1    3    3    0    0  0.17954070706E+01  0.12469158638E+02 -0.38705893802E-01  0.12597813386E+02  0.51100000000E-03 0.  1.
        -11    1    3    3    0    0 -0.15482809806E+01 -0.85038160355E+01  0.49098080587E+01  0.99407382319E+01  0.51100000000E-03 0. -1.
         12    1    3    3    0    0 -0.19586026715E+02 -0.27006566043E+02 -0.15446040882E+02  0.36763395257E+02  0.00000000000E+00 0. -1.
</event>
<event>
 7    1  0.7457761E-012  0.5930192E+02  0.7816164E-02  0.1266605E+00
        -11   -1    0    0    0    0  0.00000000000E+00  0.00000000000E+00  0.45593999997E+02  0.45594000000E+02  0.51100000000E-03 0.  1.
         11   -1    0    0    0    0 -0.00000000000E+00 -0.00000000000E+00 -0.45593999997E+02  0.45594000000E+02  0.51100000000E-03 0. -1.
    9900012    2    1    2    0    0  0.20259791997E+01 -0.25301871657E+02  0.19298511756E+02  0.59301923775E+02  0.49999963064E+02 0.  0.
         12    1    1    2    0    0 -0.20259791997E+01  0.25301871657E+02 -0.19298511756E+02  0.31886076225E+02  0.00000000000E+00 0. -1.
         11    1    3    3    0    0  0.31917189260E+01  0.66551383570E+01 -0.39553284049E+01  0.83739213816E+01  0.51100000000E-03 0. -1.
        -11    1    3    3    0    0  0.53538984057E+01 -0.35561026529E+02  0.12969364432E+02  0.38228984423E+02  0.51100000000E-03 0.  1.
        -12    1    3    3    0    0 -0.65196381319E+01  0.36040165158E+01  0.10284475728E+02  0.12699017971E+02  0.00000000000E+00 0.  1.
</event>
<event>
 7    1  0.7457761E-012  0.5930195E+02  0.7816164E-02  0.1266605E+00
        -11   -1    0    0    0    0  0.00000000000E+00  0.00000000000E+00  0.45593999997E+02  0.45594000000E+02  0.51100000000E-03 0.  1.
         11   -1    0    0    0    0 -0.00000000000E+00 -0.00000000000E+00 -0.45593999997E+02  0.45594000000E+02  0.51100000000E-03 0. -1.
    9900012    2    1    2    0    0 -0.72474733430E+01 -0.27129478396E+02  0.15105825316E+02  0.59301946209E+02  0.50000003977E+02 0.  0.
         12    1    1    2    0    0  0.72474733430E+01  0.27129478396E+02 -0.15105825316E+02  0.31886053791E+02  0.00000000000E+00 0. -1.
         11    1    3    3    0    0 -0.60487918801E+01  0.46682185443E+01  0.10668513671E+01  0.77148117078E+01  0.51100000000E-03 0. -1.
        -11    1    3    3    0    0 -0.12871538993E+02 -0.34234803385E+02  0.56524444813E+01  0.37008761229E+02  0.51100000000E-03 0.  1.
        -12    1    3    3    0    0  0.11672857530E+02  0.24371064443E+01  0.83865294675E+01  0.14578373272E+02  0.00000000000E+00 0.  1.
</event>
<event>
 7    1  0.7457761E-012  0.5930193E+02  0.7816164E-02  0.1266605E+00
        -11   -1    0    0    0    0  0.00000000000E+00  0.00000000000E+00  0.45593999997E+02  0.45594000000E+02  0.51100000000E-03 0.  1.
         11   -1    0    0    0    0 -0.00000000000E+00 -0.00000000000E+00 -0.45593999997E+02  0.45594000000E+02  0.51100000000E-03 0. -1.
    9900012    2    1    2    0    0  0.93451956092E+01 -0.13480203306E+02  0.27343604430E+02  0.59301933053E+02  0.49999979984E+02 0.  0.
         12    1    1    2    0    0 -0.93451956092E+01  0.13480203306E+02 -0.27343604430E+02  0.31886066947E+02  0.00000000000E+00 0. -1.
         11    1    3    3    0    0  0.14012754928E+02 -0.10758676605E+02  0.36790596365E+02  0.40812429530E+02  0.51100000000E-03 0. -1.
        -11    1    3    3    0    0  0.32888920317E+01  0.41059453981E+01 -0.19933621966E+01  0.56257525289E+01  0.51100000000E-03 0.  1.
         12    1    3    3    0    0 -0.79564513503E+01 -0.68274720987E+01 -0.74536297389E+01  0.12863750994E+02  0.00000000000E+00 0. -1.
</event>
<event>
 7    1  0.7457761E-012  0.5930193E+02  0.7816164E-02  0.1266605E+00
        -11   -1    0    0    0    0  0.00000000000E+00  0.00000000000E+00  0.45593999997E+02  0.45594000000E+02  0.51100000000E-03 0.  1.
         11   -1    0    0    0    0 -0.00000000000E+00 -0.00000000000E+00 -0.45593999997E+02  0.45594000000E+02  0.51100000000E-03 0. -1.
    9900012    2    1    2    0    0  0.11520097594E+02 -0.10332274998E+02  0.27879253676E+02  0.59301931870E+02  0.49999977828E+02 0.  0.
         12    1    1    2    0    0 -0.11520097594E+02  0.10332274998E+02 -0.27879253676E+02  0.31886068130E+02  0.00000000000E+00 0. -1.
         11    1    3    3    0    0  0.17155310539E+01 -0.24887268795E+02  0.89534418720E+01  0.26504401832E+02  0.51100000000E-03 0. -1.
        -11    1    3    3    0    0 -0.66260084022E-01  0.56625539753E+01  0.18669433031E+02  0.19509398706E+02  0.51100000000E-03 0.  1.
         12    1    3    3    0    0  0.98708266243E+01  0.88924398215E+01  0.25637877336E+00  0.13288131332E+02  0.00000000000E+00 0. -1.
</event>
<event>
 7    1  0.7457761E-012  0.5930200E+02  0.7816164E-02  0.1266605E+00
        -11   -1    0    0    0    0  0.00000000000E+00  0.00000000000E+00  0.45593999997E+02  0.45594000000E+02  0.51100000000E-03 0.  1.
         11   -1    0    0    0    0 -0.00000000000E+00 -0.00000000000E+00 -0.45593999997E+02  0.45594000000E+02  0.51100000000E-03 0. -1.
    9900012    2    1    2    0    0 -0.16362528938E+02  0.14125353206E+02  0.23440538606E+02  0.59302002970E+02  0.50000107497E+02 0.  0.
         12    1    1    2    0    0  0.16362528938E+02 -0.14125353206E+02 -0.23440538606E+02  0.31885997030E+02  0.00000000000E+00 0. -1.
         11    1    3    3    0    0 -0.45356920183E+01 -0.78092538438E+01  0.27457460398E+02  0.28904481996E+02  0.51100000000E-03 0. -1.
        -11    1    3    3    0    0 -0.23910303828E+01  0.17086388416E+02  0.32265571424E+01  0.17551990390E+02  0.51100000000E-03 0.  1.
         12    1    3    3    0    0 -0.94358065366E+01  0.48482186329E+01 -0.72434789344E+01  0.12845530584E+02  0.00000000000E+00 0. -1.
</event>
<event>
 7    1  0.7457761E-012  0.5930196E+02  0.7816164E-02  0.1266605E+00
        -11   -1    0    0    0    0  0.00000000000E+00  0.00000000000E+00  0.45593999997E+02  0.45594000000E+02  0.51100000000E-03 0. -1.
         11   -1    0    0    0    0 -0.00000000000E+00 -0.00000000000E+00 -0.45593999997E+02  0.45594000000E+02  0.51100000000E-03 0.  1.
    9900012    2    1    2    0    0 -0.25064746201E+02 -0.19154099287E+02  0.46474428003E+01  0.59301956875E+02  0.50000023430E+02 0.  0.
         12    1    1    2    0    0  0.25064746201E+02  0.19154099287E+02 -0.46474428003E+01  0.31886043125E+02  0.00000000000E+00 0. -1.
         11    1    3    3    0    0  0.19657339077E+00 -0.22382466982E+02  0.15233987659E+02  0.27075595091E+02  0.51100000000E-03 0. -1.
        -11    1    3    3    0    0 -0.25168415003E+02  0.31736241526E+00 -0.46255512001E+01  0.25591904126E+02  0.51100000000E-03 0.  1.
         12    1    3    3    0    0 -0.92904588701E-01  0.29110052796E+01 -0.59609936591E+01  0.66344576571E+01  0.00000000000E+00 0. -1.
</event>
<event>
 7    1  0.7457761E-012  0.5930200E+02  0.7816164E-02  0.1266605E+00
        -11   -1    0    0    0    0  0.00000000000E+00  0.00000000000E+00  0.45593999997E+02  0.45594000000E+02  0.51100000000E-03 0. -1.
         11   -1    0    0    0    0 -0.00000000000E+00 -0.00000000000E+00 -0.45593999997E+02  0.45594000000E+02  0.51100000000E-03 0.  1.
    9900012    2    1    2    0    0 -0.94766228613E+01  0.27582276403E+02 -0.12889098457E+02  0.59301996621E+02  0.50000095918E+02 0.  0.
         12    1    1    2    0    0  0.94766228613E+01 -0.27582276403E+02  0.12889098457E+02  0.31886003379E+02  0.00000000000E+00 0. -1.
         11    1    3    3    0    0 -0.11002674127E+02  0.19254870920E-01  0.10668303984E+02  0.15325531600E+02  0.51100000000E-03 0. -1.
        -11    1    3    3    0    0 -0.15371319986E+01  0.64215564842E+01 -0.21528234989E+02  0.22518083055E+02  0.51100000000E-03 0.  1.
         12    1    3    3    0    0  0.30631832638E+01  0.21141465048E+02 -0.20291674517E+01  0.21458381967E+02  0.00000000000E+00 0. -1.
</event>
<event>
 7    1  0.7457761E-012  0.5930193E+02  0.7816164E-02  0.1266605E+00
        -11   -1    0    0    0    0  0.00000000000E+00  0.00000000000E+00  0.45593999997E+02  0.45594000000E+02  0.51100000000E-03 0.  1.
         11   -1    0    0    0    0 -0.00000000000E+00 -0.00000000000E+00 -0.45593999997E+02  0.45594000000E+02  0.51100000000E-03 0. -1.
    9900012    2    1    2    0    0  0.71878774381E+01 -0.11061370612E+02  0.29029325535E+02  0.59301933405E+02  0.49999980626E+02 0.  0.
         12    1    1    2    0    0 -0.71878774381E+01  0.11061370612E+02 -0.29029325535E+02  0.31886066595E+02  0.00000000000E+00 0. -1.
         11    1    3    3    0    0 -0.16201176864E+02 -0.15110950677E+02  0.91740235728E+01  0.23978775426E+02  0.51100000000E-03 0. -1.
        -11    1    3    3    0    0  0.87819167305E+01  0.82196835558E+01  0.15303953592E+02  0.19465257641E+02  0.51100000000E-03 0.  1.
         12    1    3    3    0    0  0.14607137571E+02 -0.41701034908E+01  0.45513483708E+01  0.15857900338E+02  0.00000000000E+00 0. -1.
</event>
<event>
 7    1  0.7457761E-012  0.5930197E+02  0.7816164E-02  0.1266605E+00
        -11   -1    0    0    0    0  0.00000000000E+00  0.00000000000E+00  0.45593999997E+02  0.45594000000E+02  0.51100000000E-03 0.  1.
         11   -1    0    0    0    0 -0.00000000000E+00 -0.00000000000E+00 -0.45593999997E+02  0.45594000000E+02  0.51100000000E-03 0. -1.
    9900012    2    1    2    0    0  0.55656341048E+01 -0.34974958019E+01  0.31201120290E+02  0.59301973793E+02  0.50000054285E+02 0.  0.
         12    1    1    2    0    0 -0.55656341048E+01  0.34974958019E+01 -0.31201120290E+02  0.31886026207E+02  0.00000000000E+00 0. -1.
         11    1    3    3    0    0 -0.19273450313E+02  0.74525277046E+01  0.73059183805E+01  0.21917629885E+02  0.51100000000E-03 0. -1.
        -11    1    3    3    0    0  0.16401008558E+02 -0.11036020432E+02  0.13240713423E+02  0.23792925858E+02  0.51100000000E-03 0.  1.
        -12    1    3    3    0    0  0.84380758600E+01  0.85996925581E-01  0.10654488487E+02  0.13591418050E+02  0.00000000000E+00 0.  1.
</event>
<event>
 7    1  0.7457761E-012  0.5930195E+02  0.7816164E-02  0.1266605E+00
        -11   -1    0    0    0    0  0.00000000000E+00  0.00000000000E+00  0.45593999997E+02  0.45594000000E+02  0.51100000000E-03 0. -1.
         11   -1    0    0    0    0 -0.00000000000E+00 -0.00000000000E+00 -0.45593999997E+02  0.45594000000E+02  0.51100000000E-03 0.  1.
    9900012    2    1    2    0    0 -0.23906070066E+02  0.71818602613E+01 -0.19840384227E+02  0.59301950557E+02  0.50000011907E+02 0.  0.
         12    1    1    2    0    0  0.23906070066E+02 -0.71818602613E+01  0.19840384227E+02  0.31886049443E+02  0.00000000000E+00 0. -1.
         11    1    3    3    0    0 -0.12201858648E+02  0.52142512000E+01  0.75708781134E+01  0.15277171391E+02  0.51100000000E-03 0. -1.
        -11    1    3    3    0    0  0.96587058976E+01  0.37196006591E+01 -0.17675081179E+02  0.20482541923E+02  0.51100000000E-03 0.  1.
        -12    1    3    3    0    0 -0.21362917315E+02 -0.17519915978E+01 -0.97361811619E+01  0.23542237242E+02  0.00000000000E+00 0.  1.
</event>
<event>
 7    1  0.7457761E-012  0.5930194E+02  0.7816164E-02  0.1266605E+00
        -11   -1    0    0    0    0  0.00000000000E+00  0.00000000000E+00  0.45593999997E+02  0.45594000000E+02  0.51100000000E-03 0.  1.
         11   -1    0    0    0    0 -0.00000000000E+00 -0.00000000000E+00 -0.45593999997E+02  0.45594000000E+02  0.51100000000E-03 0. -1.
    9900012    2    1    2    0    0 -0.20569217804E+02  0.20676926219E+02 -0.12887692176E+02  0.59301943352E+02  0.49999998767E+02 0.  0.
         12    1    1    2    0    0  0.20569217804E+02 -0.20676926219E+02  0.12887692176E+02  0.31886056648E+02  0.00000000000E+00 0. -1.
         11    1    3    3    0    0 -0.82837194578E+00  0.22202726242E+02  0.60512825174E+01  0.23027489507E+02  0.51100000000E-03 0. -1.
        -11    1    3    3    0    0 -0.10723660998E+02  0.79363761759E+00 -0.23546838761E+02  0.25885910874E+02  0.51100000000E-03 0.  1.
        -12    1    3    3    0    0 -0.90171848610E+01 -0.23194376404E+01  0.46078640679E+01  0.10388542971E+02  0.00000000000E+00 0.  1.
</event>
<event>
 7    1  0.7457761E-012  0.5930196E+02  0.7816164E-02  0.1266605E+00
        -11   -1    0    0    0    0  0.00000000000E+00  0.00000000000E+00  0.45593999997E+02  0.45594000000E+02  0.51100000000E-03 0.  1.
         11   -1    0    0    0    0 -0.00000000000E+00 -0.00000000000E+00 -0.45593999997E+02  0.45594000000E+02  0.51100000000E-03 0. -1.
    9900012    2    1    2    0    0 -0.11048291863E+02  0.15288535394E+02  0.25708275010E+02  0.59301961181E+02  0.50000031284E+02 0.  0.
         12    1    1    2    0    0  0.11048291863E+02 -0.15288535394E+02 -0.25708275010E+02  0.31886038819E+02  0.00000000000E+00 0. -1.
         11    1    3    3    0    0 -0.27390237934E+01  0.19894500836E+02  0.13549262925E+01  0.20127822544E+02  0.51100000000E-03 0. -1.
        -11    1    3    3    0    0 -0.18498633476E+02 -0.45736963343E+01  0.98545392246E+01  0.21452973738E+02  0.51100000000E-03 0.  1.
        -12    1    3    3    0    0  0.10189365406E+02 -0.32269107110E-01  0.14498809493E+02  0.17721164899E+02  0.00000000000E+00 0.  1.
</event>
<event>
 7    1  0.7457761E-012  0.5930196E+02  0.7816164E-02  0.1266605E+00
        -11   -1    0    0    0    0  0.00000000000E+00  0.00000000000E+00  0.45593999997E+02  0.45594000000E+02  0.51100000000E-03 0. -1.
         11   -1    0    0    0    0 -0.00000000000E+00 -0.00000000000E+00 -0.45593999997E+02  0.45594000000E+02  0.51100000000E-03 0.  1.
    9900012    2    1    2    0    0  0.94267927379E+00  0.30389595541E+02 -0.96074676670E+01  0.59301959224E+02  0.50000027715E+02 0.  0.
         12    1    1    2    0    0 -0.94267927379E+00 -0.30389595541E+02  0.96074676670E+01  0.31886040776E+02  0.00000000000E+00 0. -1.
         11    1    3    3    0    0  0.13598759311E+02  0.92158676202E+01 -0.70341504579E+01  0.17870023607E+02  0.51100000000E-03 0. -1.
        -11    1    3    3    0    0 -0.99003115165E+01  0.30259099274E+02 -0.14356082158E+01  0.31869895328E+02  0.51100000000E-03 0.  1.
         12    1    3    3    0    0 -0.27557685205E+01 -0.90853713526E+01 -0.11377089933E+01  0.95620402899E+01  0.00000000000E+00 0. -1.
</event>
<event>
 7    1  0.7457761E-012  0.5930195E+02  0.7816164E-02  0.1266605E+00
        -11   -1    0    0    0    0  0.00000000000E+00  0.00000000000E+00  0.45593999997E+02  0.45594000000E+02  0.51100000000E-03 0.  1.
         11   -1    0    0    0    0 -0.00000000000E+00 -0.00000000000E+00 -0.45593999997E+02  0.45594000000E+02  0.51100000000E-03 0. -1.
    9900012    2    1    2    0    0  0.39568775194E+01 -0.16245635577E+02 -0.27150373818E+02  0.59301947352E+02  0.50000006063E+02 0.  0.
         12    1    1    2    0    0 -0.39568775194E+01  0.16245635577E+02  0.27150373818E+02  0.31886052648E+02  0.00000000000E+00 0. -1.
         11    1    3    3    0    0 -0.20817715191E+02 -0.16519804668E+02 -0.14011081856E+02  0.30043162735E+02  0.51100000000E-03 0. -1.
        -11    1    3    3    0    0  0.13724518522E+02  0.40605894126E+01 -0.56744962011E+01  0.15396450968E+02  0.51100000000E-03 0.  1.
         12    1    3    3    0    0  0.11050074189E+02 -0.37864203220E+01 -0.74647957606E+01  0.13862333649E+02  0.00000000000E+00 0. -1.
</event>
<event>
 7    1  0.7457761E-012  0.5930194E+02  0.7816164E-02  0.1266605E+00
        -11   -1    0    0    0    0  0.00000000000E+00  0.00000000000E+00  0.45593999997E+02  0.45594000000E+02  0.51100000000E-03 0. -1.
         11   -1    0    0    0    0 -0.00000000000E+00 -0.00000000000E+00 -0.45593999997E+02  0.45594000000E+02  0.51100000000E-03 0.  1.
    9900012    2    1    2    0    0  0.84817168529E+01 -0.30422079928E+02 -0.43906939025E+01  0.59301942531E+02  0.49999997271E+02 0.  0.
         12    1    1    2    0    0 -0.84817168529E+01  0.30422079928E+02  0.43906939025E+01  0.31886057469E+02  0.00000000000E+00 0. -1.
         11    1    3    3    0    0  0.11109950613E+02 -0.45495827136E+01  0.18005914362E+02  0.21641225884E+02  0.51100000000E-03 0. -1.
        -11    1    3    3    0    0 -0.34384816477E+01 -0.38425298373E+01 -0.12450438276E+02  0.13475963977E+02  0.51100000000E-03 0.  1.
         12    1    3    3    0    0  0.81024788749E+00 -0.22029967378E+02 -0.99461699887E+01  0.24184752671E+02  0.00000000000E+00 0. -1.
</event>
<event>
 7    1  0.7457761E-012  0.5930192E+02  0.7816164E-02  0.1266605E+00
        -11   -1    0    0    0    0  0.00000000000E+00  0.00000000000E+00  0.45593999997E+02  0.45594000000E+02  0.51100000000E-03 0.  1.
         11   -1    0    0    0    0 -0.00000000000E+00 -0.00000000000E+00 -0.45593999997E+02  0.45594000000E+02  0.51100000000E-03 0. -1.
    9900012    2    1    2    0    0  0.25549314035E+02 -0.17657196792E+02  0.72234342126E+01  0.59301920779E+02  0.49999957601E+02 0.  0.
         12    1    1    2    0    0 -0.25549314035E+02  0.17657196792E+02 -0.72234342126E+01  0.31886079221E+02  0.00000000000E+00 0. -1.
         11    1    3    3    0    0  0.97032011760E+00  0.13982076953E+02  0.52031297461E+01  0.14950336332E+02  0.51100000000E-03 0. -1.
        -11    1    3    3    0    0  0.14696878675E+01 -0.16092865941E+02  0.32044030262E+01  0.16474480740E+02  0.51100000000E-03 0.  1.
         12    1    3    3    0    0  0.23109306050E+02 -0.15546407804E+02 -0.11840985596E+01  0.27877103707E+02  0.00000000000E+00 0. -1.
</event>
<event>
 7    1  0.7457761E-012  0.5930194E+02  0.7816164E-02  0.1266605E+00
        -11   -1    0    0    0    0  0.00000000000E+00  0.00000000000E+00  0.45593999997E+02  0.45594000000E+02  0.51100000000E-03 0. -1.
         11   -1    0    0    0    0 -0.00000000000E+00 -0.00000000000E+00 -0.45593999997E+02  0.45594000000E+02  0.51100000000E-03 0.  1.
    9900012    2    1    2    0    0 -0.30807262804E+02 -0.43413143587E+01 -0.69847041748E+01  0.59301944361E+02  0.50000000607E+02 0.  0.
         12    1    1    2    0    0  0.30807262804E+02  0.43413143587E+01  0.69847041748E+01  0.31886055639E+02  0.00000000000E+00 0. -1.
         11    1    3    3    0    0 -0.80721714554E+01  0.19359416151E+02 -0.66319113837E+01  0.21998390727E+02  0.51100000000E-03 0. -1.
        -11    1    3    3    0    0 -0.15242809245E+02 -0.87898711998E+01  0.71681352549E+01  0.18999664015E+02  0.51100000000E-03 0.  1.
         12    1    3    3    0    0 -0.74922821034E+01 -0.14910859310E+02 -0.75209280460E+01  0.18303889618E+02  0.00000000000E+00 0. -1.
</event>
<event>
 7    1  0.7457761E-012  0.5930194E+02  0.7816164E-02  0.1266605E+00
        -11   -1    0    0    0    0  0.00000000000E+00  0.00000000000E+00  0.45593999997E+02  0.45594000000E+02  0.51100000000E-03 0.  1.
         11   -1    0    0    0    0 -0.00000000000E+00 -0.00000000000E+00 -0.45593999997E+02  0.45594000000E+02  0.51100000000E-03 0. -1.
    9900012    2    1    2    0    0 -0.23410701895E+02 -0.13932506716E+02  0.16569398351E+02  0.59301942415E+02  0.49999997059E+02 0.  0.
         12    1    1    2    0    0  0.23410701895E+02  0.13932506716E+02 -0.16569398351E+02  0.31886057585E+02  0.00000000000E+00 0. -1.
         11    1    3    3    0    0  0.22179143179E+01  0.79596871160E+01 -0.10267708985E+02  0.13179590698E+02  0.51100000000E-03 0. -1.
        -11    1    3    3    0    0 -0.15566439754E+02 -0.19263679567E+02  0.25648895151E+02  0.35654862499E+02  0.51100000000E-03 0.  1.
        -12    1    3    3    0    0 -0.10062176459E+02 -0.26285142651E+01  0.11882121845E+01  0.10467489218E+02  0.00000000000E+00 0.  1.
</event>
<event>
 7    1  0.7457761E-012  0.5930189E+02  0.7816164E-02  0.1266605E+00
        -11   -1    0    0    0    0  0.00000000000E+00  0.00000000000E+00  0.45593999997E+02  0.45594000000E+02  0.51100000000E-03 0. -1.
         11   -1    0    0    0    0 -0.00000000000E+00 -0.00000000000E+00 -0.45593999997E+02  0.45594000000E+02  0.51100000000E-03 0.  1.
    9900012    2    1    2    0    0  0.27901756004E+02 -0.43360786015E+01 -0.14812637814E+02  0.59301893233E+02  0.49999907363E+02 0.  0.
         12    1    1    2    0    0 -0.27901756004E+02  0.43360786015E+01  0.14812637814E+02  0.31886106767E+02  0.00000000000E+00 0. -1.
         11    1    3    3    0    0 -0.62944651802E+00  0.16881795615E+02  0.81492487448E+00  0.16913170280E+02  0.51100000000E-03 0. -1.
        -11    1    3    3    0    0  0.14637517768E+02 -0.13397172499E+02  0.31002016170E+00  0.19845333712E+02  0.51100000000E-03 0.  1.
         12    1    3    3    0    0  0.13893684754E+02 -0.78207017174E+01 -0.15937582850E+02  0.22543389242E+02  0.00000000000E+00 0. -1.
</event>
<event>
 7    1  0.7457761E-012  0.5930194E+02  0.7816164E-02  0.1266605E+00
        -11   -1    0    0    0    0  0.00000000000E+00  0.00000000000E+00  0.45593999997E+02  0.45594000000E+02  0.51100000000E-03 0. -1.
         11   -1    0    0    0    0 -0.00000000000E+00 -0.00000000000E+00 -0.45593999997E+02  0.45594000000E+02  0.51100000000E-03 0.  1.
    9900012    2    1    2    0    0  0.84822681542E+01  0.27885714542E+02 -0.12928989260E+02  0.59301941733E+02  0.49999995815E+02 0.  0.
         12    1    1    2    0    0 -0.84822681542E+01 -0.27885714542E+02  0.12928989260E+02  0.31886058267E+02  0.00000000000E+00 0. -1.
         11    1    3    3    0    0 -0.10341850827E+02  0.30838092721E+02 -0.25865833487E+01  0.32628702930E+02  0.51100000000E-03 0. -1.
        -11    1    3    3    0    0  0.14751482180E+02  0.48963293992E+01 -0.82072849439E+01  0.17576683262E+02  0.51100000000E-03 0.  1.
         12    1    3    3    0    0  0.40726368014E+01 -0.78487075782E+01 -0.21351209669E+01  0.90965555409E+01  0.00000000000E+00 0. -1.
</event>
<event>
 7    1  0.7457761E-012  0.5930192E+02  0.7816164E-02  0.1266605E+00
        -11   -1    0    0    0    0  0.00000000000E+00  0.00000000000E+00  0.45593999997E+02  0.45594000000E+02  0.51100000000E-03 0. -1.
         11   -1    0    0    0    0 -0.00000000000E+00 -0.00000000000E+00 -0.45593999997E+02  0.45594000000E+02  0.51100000000E-03 0.  1.
    9900012    2    1    2    0    0 -0.18867708833E+02 -0.19167348492E+02 -0.17127294683E+02  0.59301922976E+02  0.49999961606E+02 0.  0.
         12    1    1    2    0    0  0.18867708833E+02  0.19167348492E+02  0.17127294683E+02  0.31886077024E+02  0.00000000000E+00 0. -1.
         11    1    3    3    0    0  0.19218638437E+01  0.10488770480E+02 -0.12205078005E+01  0.10733010126E+02  0.51100000000E-03 0. -1.
        -11    1    3    3    0    0 -0.25900571156E+02 -0.23168843203E+02 -0.19171193859E+02  0.39688405811E+02  0.51100000000E-03 0.  1.
        -12    1    3    3    0    0  0.51109984796E+01 -0.64872757691E+01  0.32644069762E+01  0.88805070390E+01  0.00000000000E+00 0.  1.
</event>
<event>
 7    1  0.7457761E-012  0.5930192E+02  0.7816164E-02  0.1266605E+00
        -11   -1    0    0    0    0  0.00000000000E+00  0.00000000000E+00  0.45593999997E+02  0.45594000000E+02  0.51100000000E-03 0.  1.
         11   -1    0    0    0    0 -0.00000000000E+00 -0.00000000000E+00 -0.45593999997E+02  0.45594000000E+02  0.51100000000E-03 0. -1.
    9900012    2    1    2    0    0 -0.30256480911E+02  0.29959958298E+01  0.96068349290E+01  0.59301923015E+02  0.49999961678E+02 0.  0.
         12    1    1    2    0    0  0.30256480911E+02 -0.29959958298E+01 -0.96068349290E+01  0.31886076985E+02  0.00000000000E+00 0. -1.
         11    1    3    3    0    0  0.22334369327E+01  0.10479446821E+02  0.10164434251E+02  0.14768979995E+02  0.51100000000E-03 0. -1.
        -11    1    3    3    0    0 -0.15569969442E+02 -0.17771091074E+02  0.45991669257E+01  0.24070479078E+02  0.51100000000E-03 0.  1.
         12    1    3    3    0    0 -0.16919948402E+02  0.10287640083E+02 -0.51567662477E+01  0.20462463941E+02  0.00000000000E+00 0. -1.
</event>
<event>
 7    1  0.7457761E-012  0.5930194E+02  0.7816164E-02  0.1266605E+00
        -11   -1    0    0    0    0  0.00000000000E+00  0.00000000000E+00  0.45593999997E+02  0.45594000000E+02  0.51100000000E-03 0. -1.
         11   -1    0    0    0    0 -0.00000000000E+00 -0.00000000000E+00 -0.45593999997E+02  0.45594000000E+02  0.51100000000E-03 0.  1.
    9900012    2    1    2    0    0  0.13013662077E+01  0.26441507783E+02 -0.17772849181E+02  0.59301936338E+02  0.49999985976E+02 0.  0.
         12    1    1    2    0    0 -0.13013662077E+01 -0.26441507783E+02  0.17772849181E+02  0.31886063662E+02  0.00000000000E+00 0. -1.
         11    1    3    3    0    0 -0.81211728330E+01  0.27345933216E+02  0.21500240074E+01  0.28607273815E+02  0.51100000000E-03 0. -1.
        -11    1    3    3    0    0  0.10112276535E+02 -0.82080960618E+01 -0.19364888063E+02  0.23337306349E+02  0.51100000000E-03 0.  1.
        -12    1    3    3    0    0 -0.68973749444E+00  0.73036706287E+01 -0.55798512478E+00  0.73573561734E+01  0.00000000000E+00 0.  1.
</event>
<event>
 7    1  0.7457761E-012  0.5930192E+02  0.7816164E-02  0.1266605E+00
        -11   -1    0    0    0    0  0.00000000000E+00  0.00000000000E+00  0.45593999997E+02  0.45594000000E+02  0.51100000000E-03 0.  1.
         11   -1    0    0    0    0 -0.00000000000E+00 -0.00000000000E+00 -0.45593999997E+02  0.45594000000E+02  0.51100000000E-03 0. -1.
    9900012    2    1    2    0    0  0.26523468240E+02 -0.17688929764E+02 -0.57412011056E+00  0.59301918121E+02  0.49999952753E+02 0.  0.
         12    1    1    2    0    0 -0.26523468240E+02  0.17688929764E+02  0.57412011056E+00  0.31886081879E+02  0.00000000000E+00 0. -1.
         11    1    3    3    0    0 -0.87648872778E+01 -0.72272277281E+01  0.15499793655E+01  0.11465535571E+02  0.51100000000E-03 0. -1.
        -11    1    3    3    0    0  0.33337059307E+02 -0.17055193529E+02 -0.85663747057E+01  0.38413824665E+02  0.51100000000E-03 0.  1.
         12    1    3    3    0    0  0.19512962109E+01  0.65934914932E+01  0.64422752296E+01  0.94225578856E+01  0.00000000000E+00 0. -1.
</event>
<event>
 7    1  0.7457761E-012  0.5930196E+02  0.7816164E-02  0.1266605E+00
        -11   -1    0    0    0    0  0.00000000000E+00  0.00000000000E+00  0.45593999997E+02  0.45594000000E+02  0.51100000000E-03 0. -1.
         11   -1    0    0    0    0 -0.00000000000E+00 -0.00000000000E+00 -0.45593999997E+02  0.45594000000E+02  0.51100000000E-03 0.  1.
    9900012    2    1    2    0    0 -0.19345095489E+02  0.15207311086E+02 -0.20278672609E+02  0.59301959281E+02  0.50000027818E+02 0.  0.
         12    1    1    2    0    0  0.19345095489E+02 -0.15207311086E+02  0.20278672609E+02  0.31886040719E+02  0.00000000000E+00 0. -1.
         11    1    3    3    0    0  0.56942605946E+01  0.17719075164E+02  0.74694831506E+01  0.20054510894E+02  0.51100000000E-03 0. -1.
        -11    1    3    3    0    0 -0.21907497825E+02  0.18166665823E+01 -0.19306215342E+02  0.29256942587E+02  0.51100000000E-03 0.  1.
        -12    1    3    3    0    0 -0.31318582585E+01 -0.43284306598E+01 -0.84419404178E+01  0.99905058003E+01  0.00000000000E+00 0.  1.
</event>
<event>
 7    1  0.7457761E-012  0.5930194E+02  0.7816164E-02  0.1266605E+00
        -11   -1    0    0    0    0  0.00000000000E+00  0.00000000000E+00  0.45593999997E+02  0.45594000000E+02  0.51100000000E-03 0. -1.
         11   -1    0    0    0    0 -0.00000000000E+00 -0.00000000000E+00 -0.45593999997E+02  0.45594000000E+02  0.51100000000E-03 0.  1.
    9900012    2    1    2    0    0  0.25870665949E+02 -0.52783647209E+01  0.17876477083E+02  0.59301938410E+02  0.49999989755E+02 0.  0.
         12    1    1    2    0    0 -0.25870665949E+02  0.52783647209E+01 -0.17876477083E+02  0.31886061590E+02  0.00000000000E+00 0. -1.
         11    1    3    3    0    0  0.11626156821E+02  0.18069545902E+02  0.22893092990E+02  0.31396969893E+02  0.51100000000E-03 0. -1.
        -11    1    3    3    0    0  0.82759355131E+01 -0.15259993129E+02 -0.38906213917E+01  0.17790318546E+02  0.51100000000E-03 0.  1.
         12    1    3    3    0    0  0.59685736151E+01 -0.80879174939E+01 -0.11259945154E+01  0.10114649971E+02  0.00000000000E+00 0. -1.
</event>
<event>
 7    1  0.7457761E-012  0.5930188E+02  0.7816164E-02  0.1266605E+00
        -11   -1    0    0    0    0  0.00000000000E+00  0.00000000000E+00  0.45593999997E+02  0.45594000000E+02  0.51100000000E-03 0.  1.
         11   -1    0    0    0    0 -0.00000000000E+00 -0.00000000000E+00 -0.45593999997E+02  0.45594000000E+02  0.51100000000E-03 0. -1.
    9900012    2    1    2    0    0 -0.66086025665E+01 -0.10558450696E+02  0.29352509991E+02  0.59301884656E+02  0.49999891719E+02 0.  0.
         12    1    1    2    0    0  0.66086025665E+01  0.10558450696E+02 -0.29352509991E+02  0.31886115344E+02  0.00000000000E+00 0. -1.
         11    1    3    3    0    0  0.64117789444E+01 -0.13785766624E+02 -0.60114261587E+01  0.16349174761E+02  0.51100000000E-03 0. -1.
        -11    1    3    3    0    0 -0.11792852820E+02 -0.31658223068E+01  0.34232779839E+02  0.36345247616E+02  0.51100000000E-03 0.  1.
        -12    1    3    3    0    0 -0.12275286911E+01  0.63931382343E+01  0.11311563110E+01  0.66074622792E+01  0.00000000000E+00 0.  1.
</event>
<event>
 7    1  0.7457761E-012  0.5930194E+02  0.7816164E-02  0.1266605E+00
        -11   -1    0    0    0    0  0.00000000000E+00  0.00000000000E+00  0.45593999997E+02  0.45594000000E+02  0.51100000000E-03 0.  1.
         11   -1    0    0    0    0 -0.00000000000E+00 -0.00000000000E+00 -0.45593999997E+02  0.45594000000E+02  0.51100000000E-03 0. -1.
    9900012    2    1    2    0    0  0.15083833338E+02  0.21827932245E+02 -0.17684453030E+02  0.59301944533E+02  0.50000000921E+02 0.  0.
         12    1    1    2    0    0 -0.15083833338E+02 -0.21827932245E+02  0.17684453030E+02  0.31886055467E+02  0.00000000000E+00 0. -1.
         11    1    3    3    0    0  0.12712795450E+02  0.26388067779E+02 -0.15711299660E+02  0.33238384836E+02  0.51100000000E-03 0. -1.
        -11    1    3    3    0    0  0.71148506454E+01 -0.79536762781E+01  0.87873907668E+01  0.13823903313E+02  0.51100000000E-03 0.  1.
        -12    1    3    3    0    0 -0.47438127577E+01  0.33935407441E+01 -0.10760544138E+02  0.12239656384E+02  0.00000000000E+00 0.  1.
</event>
<event>
 7    1  0.7457761E-012  0.5930193E+02  0.7816164E-02  0.1266605E+00
        -11   -1    0    0    0    0  0.00000000000E+00  0.00000000000E+00  0.45593999997E+02  0.45594000000E+02  0.51100000000E-03 0.  1.
         11   -1    0    0    0    0 -0.00000000000E+00 -0.00000000000E+00 -0.45593999997E+02  0.45594000000E+02  0.51100000000E-03 0. -1.
    9900012    2    1    2    0    0  0.96159023801E+01 -0.29072795341E+02  0.88897780532E+01  0.59301934684E+02  0.49999982959E+02 0.  0.
         12    1    1    2    0    0 -0.96159023801E+01  0.29072795341E+02 -0.88897780532E+01  0.31886065316E+02  0.00000000000E+00 0. -1.
         11    1    3    3    0    0  0.12370216165E+01 -0.95856567072E+01  0.11652844956E+02  0.15139479278E+02  0.51100000000E-03 0. -1.
        -11    1    3    3    0    0  0.23875466487E+02 -0.13235866401E+02 -0.53019507433E+00  0.27303977117E+02  0.51100000000E-03 0.  1.
        -12    1    3    3    0    0 -0.15496585723E+02 -0.62512722327E+01 -0.22328718283E+01  0.16858478289E+02  0.00000000000E+00 0.  1.
</event>
<event>
 7    1  0.7457761E-012  0.5930193E+02  0.7816164E-02  0.1266605E+00
        -11   -1    0    0    0    0  0.00000000000E+00  0.00000000000E+00  0.45593999997E+02  0.45594000000E+02  0.51100000000E-03 0.  1.
         11   -1    0    0    0    0 -0.00000000000E+00 -0.00000000000E+00 -0.45593999997E+02  0.45594000000E+02  0.51100000000E-03 0. -1.
    9900012    2    1    2    0    0  0.32995079073E+01  0.44436880598E+01  0.31402045326E+02  0.59301928328E+02  0.49999971368E+02 0.  0.
         12    1    1    2    0    0 -0.32995079073E+01 -0.44436880598E+01 -0.31402045326E+02  0.31886071672E+02  0.00000000000E+00 0. -1.
         11    1    3    3    0    0  0.91399491544E+01  0.17218642069E+02 -0.45561791979E+01  0.20019467386E+02  0.51100000000E-03 0. -1.
        -11    1    3    3    0    0 -0.40863942089E+01 -0.53707612478E+01  0.25314328189E+02  0.26198452358E+02  0.51100000000E-03 0.  1.
         12    1    3    3    0    0 -0.17540470382E+01 -0.74041927617E+01  0.10643896335E+02  0.13084008585E+02  0.00000000000E+00 0. -1.
</event>
<event>
 7    1  0.7457761E-012  0.5930194E+02  0.7816164E-02  0.1266605E+00
        -11   -1    0    0    0    0  0.00000000000E+00  0.00000000000E+00  0.45593999997E+02  0.45594000000E+02  0.51100000000E-03 0.  1.
         11   -1    0    0    0    0 -0.00000000000E+00 -0.00000000000E+00 -0.45593999997E+02  0.45594000000E+02  0.51100000000E-03 0. -1.
    9900012    2    1    2    0    0 -0.17486205010E+02  0.21665744848E+02  0.15541845291E+02  0.59301940029E+02  0.49999992707E+02 0.  0.
         12    1    1    2    0    0  0.17486205010E+02 -0.21665744848E+02 -0.15541845291E+02  0.31886059971E+02  0.00000000000E+00 0. -1.
         11    1    3    3    0    0 -0.25642651790E+01  0.32904501366E+01  0.25511758303E+02  0.25850576975E+02  0.51100000000E-03 0. -1.
        -11    1    3    3    0    0 -0.67580765534E+01  0.19994229233E+02 -0.87577379706E+00  0.21123630875E+02  0.51100000000E-03 0.  1.
         12    1    3    3    0    0 -0.81638632778E+01 -0.16189345219E+01 -0.90941392150E+01  0.12327732179E+02  0.00000000000E+00 0. -1.
</event>
<event>
 7    1  0.7457761E-012  0.5930194E+02  0.7816164E-02  0.1266605E+00
        -11   -1    0    0    0    0  0.00000000000E+00  0.00000000000E+00  0.45593999997E+02  0.45594000000E+02  0.51100000000E-03 0.  1.
         11   -1    0    0    0    0 -0.00000000000E+00 -0.00000000000E+00 -0.45593999997E+02  0.45594000000E+02  0.51100000000E-03 0. -1.
    9900012    2    1    2    0    0 -0.20557796229E+02  0.17555551024E+02  0.16908587257E+02  0.59301942223E+02  0.49999996708E+02 0.  0.
         12    1    1    2    0    0  0.20557796229E+02 -0.17555551024E+02 -0.16908587257E+02  0.31886057777E+02  0.00000000000E+00 0. -1.
         11    1    3    3    0    0 -0.78294372201E+00  0.13533347975E+02  0.23595243739E+02  0.27212130303E+02  0.51100000000E-03 0. -1.
        -11    1    3    3    0    0 -0.23469641688E+02 -0.25531967241E+01 -0.33585750019E+01  0.23845815583E+02  0.51100000000E-03 0.  1.
        -12    1    3    3    0    0  0.36947891811E+01  0.65753997726E+01 -0.33280814800E+01  0.82439963367E+01  0.00000000000E+00 0.  1.
</event>
<event>
 7    1  0.7457761E-012  0.5930194E+02  0.7816164E-02  0.1266605E+00
        -11   -1    0    0    0    0  0.00000000000E+00  0.00000000000E+00  0.45593999997E+02  0.45594000000E+02  0.51100000000E-03 0.  1.
         11   -1    0    0    0    0 -0.00000000000E+00 -0.00000000000E+00 -0.45593999997E+02  0.45594000000E+02  0.51100000000E-03 0. -1.
    9900012    2    1    2    0    0  0.63611865574E+00 -0.17937773549E+02  0.26354368005E+02  0.59301935963E+02  0.49999985291E+02 0.  0.
         12    1    1    2    0    0 -0.63611865574E+00  0.17937773549E+02 -0.26354368005E+02  0.31886064037E+02  0.00000000000E+00 0. -1.
         11    1    3    3    0    0  0.10538092212E+02  0.31840642835E+00  0.16598345493E+02  0.19663617253E+02  0.51100000000E-03 0. -1.
        -11    1    3    3    0    0 -0.17306658823E+02 -0.23589193351E+02  0.81695548113E+01  0.30376176662E+02  0.51100000000E-03 0.  1.
        -12    1    3    3    0    0  0.74046852665E+01  0.53330133732E+01  0.15864677010E+01  0.92621420471E+01  0.00000000000E+00 0.  1.
</event>
<event>
 7    1  0.7457761E-012  0.5930189E+02  0.7816164E-02  0.1266605E+00
        -11   -1    0    0    0    0  0.00000000000E+00  0.00000000000E+00  0.45593999997E+02  0.45594000000E+02  0.51100000000E-03 0. -1.
         11   -1    0    0    0    0 -0.00000000000E+00 -0.00000000000E+00 -0.45593999997E+02  0.45594000000E+02  0.51100000000E-03 0.  1.
    9900012    2    1    2    0    0  0.17620653872E+01  0.95579083705E+01 -0.30368827808E+02  0.59301887204E+02  0.49999896367E+02 0.  0.
         12    1    1    2    0    0 -0.17620653872E+01 -0.95579083705E+01  0.30368827808E+02  0.31886112796E+02  0.00000000000E+00 0. -1.
         11    1    3    3    0    0  0.84311303715E+01 -0.92689883509E+00  0.73563372674E+01  0.11227590972E+02  0.51100000000E-03 0. -1.
        -11    1    3    3    0    0 -0.29666469388E+01  0.11072712759E+02 -0.41319872468E+02  0.42880506328E+02  0.51100000000E-03 0.  1.
        -12    1    3    3    0    0 -0.37024180455E+01 -0.58790555310E+00  0.35947073929E+01  0.51937899037E+01  0.00000000000E+00 0.  1.
</event>
<event>
 7    1  0.7457761E-012  0.5930195E+02  0.7816164E-02  0.1266605E+00
        -11   -1    0    0    0    0  0.00000000000E+00  0.00000000000E+00  0.45593999997E+02  0.45594000000E+02  0.51100000000E-03 0. -1.
         11   -1    0    0    0    0 -0.00000000000E+00 -0.00000000000E+00 -0.45593999997E+02  0.45594000000E+02  0.51100000000E-03 0.  1.
    9900012    2    1    2    0    0 -0.76361518985E+01 -0.28209328160E+02 -0.12753155687E+02  0.59301953036E+02  0.50000016429E+02 0.  0.
         12    1    1    2    0    0  0.76361518985E+01  0.28209328160E+02  0.12753155687E+02  0.31886046964E+02  0.00000000000E+00 0. -1.
         11    1    3    3    0    0  0.11599134259E+01 -0.19022892167E+02  0.13084681427E+02  0.23117627773E+02  0.51100000000E-03 0. -1.
        -11    1    3    3    0    0 -0.77340349489E+01 -0.16349579315E+02 -0.18739806834E+02  0.26044277698E+02  0.51100000000E-03 0.  1.
         12    1    3    3    0    0 -0.10620303755E+01  0.71631433223E+01 -0.70980302791E+01  0.10140047565E+02  0.00000000000E+00 0. -1.
</event>
<event>
 7    1  0.7457761E-012  0.5930195E+02  0.7816164E-02  0.1266605E+00
        -11   -1    0    0    0    0  0.00000000000E+00  0.00000000000E+00  0.45593999997E+02  0.45594000000E+02  0.51100000000E-03 0.  1.
         11   -1    0    0    0    0 -0.00000000000E+00 -0.00000000000E+00 -0.45593999997E+02  0.45594000000E+02  0.51100000000E-03 0. -1.
    9900012    2    1    2    0    0 -0.50785106045E+01 -0.14207189288E+02  0.28090647867E+02  0.59301952973E+02  0.50000016314E+02 0.  0.
         12    1    1    2    0    0  0.50785106045E+01  0.14207189288E+02 -0.28090647867E+02  0.31886047027E+02  0.00000000000E+00 0. -1.
         11    1    3    3    0    0  0.17315491902E+02 -0.17736220447E+02  0.12814290547E+02  0.27903509064E+02  0.51100000000E-03 0. -1.
        -11    1    3    3    0    0 -0.22433626534E+02  0.71404667290E+01  0.14661859690E+02  0.27734887676E+02  0.51100000000E-03 0.  1.
        -12    1    3    3    0    0  0.39624026749E-01 -0.36114355700E+01  0.61449763019E+00  0.36635562337E+01  0.00000000000E+00 0.  1.
</event>
<event>
 7    1  0.7457761E-012  0.5930193E+02  0.7816164E-02  0.1266605E+00
        -11   -1    0    0    0    0  0.00000000000E+00  0.00000000000E+00  0.45593999997E+02  0.45594000000E+02  0.51100000000E-03 0.  1.
         11   -1    0    0    0    0 -0.00000000000E+00 -0.00000000000E+00 -0.45593999997E+02  0.45594000000E+02  0.51100000000E-03 0. -1.
    9900012    2    1    2    0    0 -0.20355631268E+02 -0.22985416749E+02  0.86046760050E+01  0.59301928486E+02  0.49999971656E+02 0.  0.
         12    1    1    2    0    0  0.20355631268E+02  0.22985416749E+02 -0.86046760050E+01  0.31886071514E+02  0.00000000000E+00 0. -1.
         11    1    3    3    0    0 -0.22679867195E+02 -0.65784149155E+01 -0.66049850865E+01  0.24520965459E+02  0.51100000000E-03 0. -1.
        -11    1    3    3    0    0  0.11943368907E+02 -0.11431330053E+02  0.17102620276E+02  0.23786949955E+02  0.51100000000E-03 0.  1.
        -12    1    3    3    0    0 -0.96191329797E+01 -0.49756717808E+01 -0.18929591844E+01  0.10994013072E+02  0.00000000000E+00 0.  1.
</event>
<event>
 7    1  0.7457761E-012  0.5930193E+02  0.7816164E-02  0.1266605E+00
        -11   -1    0    0    0    0  0.00000000000E+00  0.00000000000E+00  0.45593999997E+02  0.45594000000E+02  0.51100000000E-03 0.  1.
         11   -1    0    0    0    0 -0.00000000000E+00 -0.00000000000E+00 -0.45593999997E+02  0.45594000000E+02  0.51100000000E-03 0. -1.
    9900012    2    1    2    0    0  0.12616122956E+02 -0.26424900247E+02  0.12620604056E+02  0.59301928460E+02  0.49999971609E+02 0.  0.
         12    1    1    2    0    0 -0.12616122956E+02  0.26424900247E+02 -0.12620604056E+02  0.31886071540E+02  0.00000000000E+00 0. -1.
         11    1    3    3    0    0 -0.93489983729E+01 -0.10786953816E+02 -0.13994584838E+02  0.19990261335E+02  0.51100000000E-03 0. -1.
        -11    1    3    3    0    0  0.12239588685E+02 -0.13770576838E+02  0.20965094684E+02  0.27910061143E+02  0.51100000000E-03 0.  1.
         12    1    3    3    0    0  0.97255326439E+01 -0.18673695930E+01  0.56500942099E+01  0.11401605983E+02  0.00000000000E+00 0. -1.
</event>
<event>
 7    1  0.7457761E-012  0.5930196E+02  0.7816164E-02  0.1266605E+00
        -11   -1    0    0    0    0  0.00000000000E+00  0.00000000000E+00  0.45593999997E+02  0.45594000000E+02  0.51100000000E-03 0.  1.
         11   -1    0    0    0    0 -0.00000000000E+00 -0.00000000000E+00 -0.45593999997E+02  0.45594000000E+02  0.51100000000E-03 0. -1.
    9900012    2    1    2    0    0 -0.12426772586E+01  0.96923100166E+01  0.30351844376E+02  0.59301959524E+02  0.50000028261E+02 0.  0.
         12    1    1    2    0    0  0.12426772586E+01 -0.96923100166E+01 -0.30351844376E+02  0.31886040476E+02  0.00000000000E+00 0. -1.
         11    1    3    3    0    0  0.10340230103E+02  0.13960431351E+02  0.84793834687E+00  0.17393475840E+02  0.51100000000E-03 0. -1.
        -11    1    3    3    0    0 -0.17153140010E+02  0.37861309652E+01  0.26257785223E+02  0.31591712282E+02  0.51100000000E-03 0.  1.
         12    1    3    3    0    0  0.55702326475E+01 -0.80542522996E+01  0.32461208066E+01  0.10316771401E+02  0.00000000000E+00 0. -1.
</event>
<event>
 7    1  0.7457761E-012  0.5930194E+02  0.7816164E-02  0.1266605E+00
        -11   -1    0    0    0    0  0.00000000000E+00  0.00000000000E+00  0.45593999997E+02  0.45594000000E+02  0.51100000000E-03 0. -1.
         11   -1    0    0    0    0 -0.00000000000E+00 -0.00000000000E+00 -0.45593999997E+02  0.45594000000E+02  0.51100000000E-03 0.  1.
    9900012    2    1    2    0    0  0.21818534019E+02 -0.22956321497E+02 -0.36986225614E+01  0.59301938276E+02  0.49999989510E+02 0.  0.
         12    1    1    2    0    0 -0.21818534019E+02  0.22956321497E+02  0.36986225614E+01  0.31886061724E+02  0.00000000000E+00 0. -1.
         11    1    3    3    0    0 -0.66128152648E+01 -0.19447640195E+02 -0.15104029058E+02  0.25496504249E+02  0.51100000000E-03 0. -1.
        -11    1    3    3    0    0  0.20062627194E+02 -0.83570110436E+01  0.53088146659E+01  0.22372576001E+02  0.51100000000E-03 0.  1.
         12    1    3    3    0    0  0.83687220897E+01  0.48483297412E+01  0.60965918306E+01  0.11432858026E+02  0.00000000000E+00 0. -1.
</event>
<event>
 7    1  0.7457761E-012  0.5930193E+02  0.7816164E-02  0.1266605E+00
        -11   -1    0    0    0    0  0.00000000000E+00  0.00000000000E+00  0.45593999997E+02  0.45594000000E+02  0.51100000000E-03 0.  1.
         11   -1    0    0    0    0 -0.00000000000E+00 -0.00000000000E+00 -0.45593999997E+02  0.45594000000E+02  0.51100000000E-03 0. -1.
    9900012    2    1    2    0    0 -0.14229260155E+02 -0.27241391759E+02 -0.84944759860E+01  0.59301931070E+02  0.49999976369E+02 0.  0.
         12    1    1    2    0    0  0.14229260155E+02  0.27241391759E+02  0.84944759860E+01  0.31886068930E+02  0.00000000000E+00 0. -1.
         11    1    3    3    0    0 -0.39279211111E+01  0.11260427444E+02  0.39887688011E+01  0.12575216391E+02  0.51100000000E-03 0. -1.
        -11    1    3    3    0    0  0.23786352828E+01 -0.26373730128E+02 -0.26503320515E+01  0.26613075864E+02  0.51100000000E-03 0.  1.
         12    1    3    3    0    0 -0.12679974327E+02 -0.12128089074E+02 -0.98329127356E+01  0.20113638815E+02  0.00000000000E+00 0. -1.
</event>
<event>
 7    1  0.7457761E-012  0.5930194E+02  0.7816164E-02  0.1266605E+00
        -11   -1    0    0    0    0  0.00000000000E+00  0.00000000000E+00  0.45593999997E+02  0.45594000000E+02  0.51100000000E-03 0. -1.
         11   -1    0    0    0    0 -0.00000000000E+00 -0.00000000000E+00 -0.45593999997E+02  0.45594000000E+02  0.51100000000E-03 0.  1.
    9900012    2    1    2    0    0  0.45019884887E+01  0.26734299542E+02 -0.16784824706E+02  0.59301937014E+02  0.49999987208E+02 0.  0.
         12    1    1    2    0    0 -0.45019884887E+01 -0.26734299542E+02  0.16784824706E+02  0.31886062986E+02  0.00000000000E+00 0. -1.
         11    1    3    3    0    0  0.11451996205E+02 -0.63511898992E+01  0.32665070653E+01  0.13496514324E+02  0.51100000000E-03 0. -1.
        -11    1    3    3    0    0 -0.10139667735E+02  0.11971320988E+02 -0.18699489589E+02  0.24408938918E+02  0.51100000000E-03 0.  1.
        -12    1    3    3    0    0  0.31896600185E+01  0.21114168453E+02 -0.13518421824E+01  0.21396483772E+02  0.00000000000E+00 0.  1.
</event>
<event>
 7    1  0.7457761E-012  0.5930195E+02  0.7816164E-02  0.1266605E+00
        -11   -1    0    0    0    0  0.00000000000E+00  0.00000000000E+00  0.45593999997E+02  0.45594000000E+02  0.51100000000E-03 0.  1.
         11   -1    0    0    0    0 -0.00000000000E+00 -0.00000000000E+00 -0.45593999997E+02  0.45594000000E+02  0.51100000000E-03 0. -1.
    9900012    2    1    2    0    0 -0.29918317428E+01  0.13969262400E+02  0.28506641717E+02  0.59301953347E+02  0.50000016996E+02 0.  0.
         12    1    1    2    0    0  0.29918317428E+01 -0.13969262400E+02 -0.28506641717E+02  0.31886046653E+02  0.00000000000E+00 0. -1.
         11    1    3    3    0    0 -0.15794186044E+02 -0.10432532454E+01  0.20515111722E+02  0.25911667244E+02  0.51100000000E-03 0. -1.
        -11    1    3    3    0    0  0.13813401614E+02  0.19428807491E+02  0.12569419161E+02  0.26949562575E+02  0.51100000000E-03 0.  1.
         12    1    3    3    0    0 -0.10110473129E+01 -0.44162918463E+01 -0.45778891660E+01  0.64407235274E+01  0.00000000000E+00 0. -1.
</event>
<event>
 7    1  0.7457761E-012  0.5930195E+02  0.7816164E-02  0.1266605E+00
        -11   -1    0    0    0    0  0.00000000000E+00  0.00000000000E+00  0.45593999997E+02  0.45594000000E+02  0.51100000000E-03 0.  1.
         11   -1    0    0    0    0 -0.00000000000E+00 -0.00000000000E+00 -0.45593999997E+02  0.45594000000E+02  0.51100000000E-03 0. -1.
    9900012    2    1    2    0    0  0.24038252999E+02  0.20108783059E+02  0.58753327908E+01  0.59301948210E+02  0.50000007627E+02 0.  0.
         12    1    1    2    0    0 -0.24038252999E+02 -0.20108783059E+02 -0.58753327908E+01  0.31886051790E+02  0.00000000000E+00 0. -1.
         11    1    3    3    0    0  0.38594087474E+01 -0.10061981705E+02 -0.50086755460E+01  0.11883826938E+02  0.51100000000E-03 0. -1.
        -11    1    3    3    0    0  0.12228630597E+02  0.11444650037E+02  0.19166042238E+02  0.25453027247E+02  0.51100000000E-03 0.  1.
         12    1    3    3    0    0  0.79502136550E+01  0.18726114728E+02 -0.82820339008E+01  0.21965094024E+02  0.00000000000E+00 0. -1.
</event>
<event>
 7    1  0.7457761E-012  0.5930191E+02  0.7816164E-02  0.1266605E+00
        -11   -1    0    0    0    0  0.00000000000E+00  0.00000000000E+00  0.45593999997E+02  0.45594000000E+02  0.51100000000E-03 0. -1.
         11   -1    0    0    0    0 -0.00000000000E+00 -0.00000000000E+00 -0.45593999997E+02  0.45594000000E+02  0.51100000000E-03 0.  1.
    9900012    2    1    2    0    0 -0.12421486784E+02  0.78208961919E+01 -0.28306585150E+02  0.59301913473E+02  0.49999944275E+02 0.  0.
         12    1    1    2    0    0  0.12421486784E+02 -0.78208961919E+01  0.28306585150E+02  0.31886086527E+02  0.00000000000E+00 0. -1.
         11    1    3    3    0    0 -0.23916767487E+01 -0.72842293961E+01  0.49975022621E+01  0.91517836887E+01  0.51100000000E-03 0. -1.
        -11    1    3    3    0    0 -0.28031622826E+01  0.23741353678E+02 -0.13731442011E+02  0.27569223660E+02  0.51100000000E-03 0.  1.
        -12    1    3    3    0    0 -0.72266477526E+01 -0.86362280902E+01 -0.19572645401E+02  0.22580906124E+02  0.00000000000E+00 0.  1.
</event>
<event>
 7    1  0.7457761E-012  0.5930198E+02  0.7816164E-02  0.1266605E+00
        -11   -1    0    0    0    0  0.00000000000E+00  0.00000000000E+00  0.45593999997E+02  0.45594000000E+02  0.51100000000E-03 0.  1.
         11   -1    0    0    0    0 -0.00000000000E+00 -0.00000000000E+00 -0.45593999997E+02  0.45594000000E+02  0.51100000000E-03 0. -1.
    9900012    2    1    2    0    0  0.25511522096E+02  0.11537283489E+01  0.19093176515E+02  0.59301980521E+02  0.50000066555E+02 0.  0.
         12    1    1    2    0    0 -0.25511522096E+02 -0.11537283489E+01 -0.19093176515E+02  0.31886019479E+02  0.00000000000E+00 0. -1.
         11    1    3    3    0    0  0.10927902275E+02 -0.14260622902E+02 -0.35686498363E+01  0.18317196172E+02  0.51100000000E-03 0.  1.
        -11    1    3    3    0    0 -0.53245797784E+00  0.16726068236E+02  0.45197159951E+01  0.17334148467E+02  0.51100000000E-03 0. -1.
        -12    1    3    3    0    0  0.15116077800E+02 -0.13117169845E+01  0.18142110356E+02  0.23650635883E+02  0.00000000000E+00 0.  1.
</event>
<event>
 7    1  0.7457761E-012  0.5930194E+02  0.7816164E-02  0.1266605E+00
        -11   -1    0    0    0    0  0.00000000000E+00  0.00000000000E+00  0.45593999997E+02  0.45594000000E+02  0.51100000000E-03 0.  1.
         11   -1    0    0    0    0 -0.00000000000E+00 -0.00000000000E+00 -0.45593999997E+02  0.45594000000E+02  0.51100000000E-03 0. -1.
    9900012    2    1    2    0    0 -0.17306052531E+02  0.40892911307E+01  0.26466944513E+02  0.59301938656E+02  0.49999990203E+02 0.  0.
         12    1    1    2    0    0  0.17306052531E+02 -0.40892911307E+01 -0.26466944513E+02  0.31886061344E+02  0.00000000000E+00 0. -1.
         11    1    3    3    0    0 -0.14127540549E+02 -0.17104482538E+02  0.16836593630E+01  0.22248268112E+02  0.51100000000E-03 0. -1.
        -11    1    3    3    0    0  0.14566146346E+01  0.18481855036E+02  0.94531684223E+01  0.20810167834E+02  0.51100000000E-03 0.  1.
         12    1    3    3    0    0 -0.46351266166E+01  0.27119186321E+01  0.15330116728E+02  0.16243502711E+02  0.00000000000E+00 0. -1.
</event>
<event>
 7    1  0.7457761E-012  0.5930194E+02  0.7816164E-02  0.1266605E+00
        -11   -1    0    0    0    0  0.00000000000E+00  0.00000000000E+00  0.45593999997E+02  0.45594000000E+02  0.51100000000E-03 0.  1.
         11   -1    0    0    0    0 -0.00000000000E+00 -0.00000000000E+00 -0.45593999997E+02  0.45594000000E+02  0.51100000000E-03 0. -1.
    9900012    2    1    2    0    0 -0.31823593780E+02 -0.19828084460E+01  0.21946125095E+00  0.59301940136E+02  0.49999992903E+02 0.  0.
         12    1    1    2    0    0  0.31823593780E+02  0.19828084460E+01 -0.21946125095E+00  0.31886059864E+02  0.00000000000E+00 0. -1.
         11    1    3    3    0    0 -0.24525760092E+02  0.42827701627E+01  0.43432232836E+01  0.25272883039E+02  0.51100000000E-03 0. -1.
        -11    1    3    3    0    0  0.18491580456E+00 -0.18314935774E+02 -0.69068067603E+01  0.19574857500E+02  0.51100000000E-03 0.  1.
         12    1    3    3    0    0 -0.74827494927E+01  0.12049357165E+02  0.27830447276E+01  0.14454199598E+02  0.00000000000E+00 0. -1.
</event>
<event>
 7    1  0.7457761E-012  0.5930195E+02  0.7816164E-02  0.1266605E+00
        -11   -1    0    0    0    0  0.00000000000E+00  0.00000000000E+00  0.45593999997E+02  0.45594000000E+02  0.51100000000E-03 0.  1.
         11   -1    0    0    0    0 -0.00000000000E+00 -0.00000000000E+00 -0.45593999997E+02  0.45594000000E+02  0.51100000000E-03 0. -1.
    9900012    2    1    2    0    0 -0.15816312860E+02  0.26628387211E+01  0.27558549624E+02  0.59301951015E+02  0.50000012742E+02 0.  0.
         12    1    1    2    0    0  0.15816312860E+02 -0.26628387211E+01 -0.27558549624E+02  0.31886048985E+02  0.00000000000E+00 0. -1.
         11    1    3    3    0    0  0.86836533128E+01 -0.88380362066E+00 -0.69808349170E+01  0.11176716875E+02  0.51100000000E-03 0. -1.
        -11    1    3    3    0    0 -0.10484927044E+02 -0.69111627945E+01  0.25536134903E+02  0.28456845439E+02  0.51100000000E-03 0.  1.
         12    1    3    3    0    0 -0.14015039129E+02  0.10457805136E+02  0.90032496377E+01  0.19668388701E+02  0.00000000000E+00 0. -1.
</event>
<event>
 7    1  0.7457761E-012  0.5930195E+02  0.7816164E-02  0.1266605E+00
        -11   -1    0    0    0    0  0.00000000000E+00  0.00000000000E+00  0.45593999997E+02  0.45594000000E+02  0.51100000000E-03 0.  1.
         11   -1    0    0    0    0 -0.00000000000E+00 -0.00000000000E+00 -0.45593999997E+02  0.45594000000E+02  0.51100000000E-03 0. -1.
    9900012    2    1    2    0    0  0.78604954300E+01  0.17365086831E+02  0.25561433328E+02  0.59301945010E+02  0.50000001792E+02 0.  0.
         12    1    1    2    0    0 -0.78604954300E+01 -0.17365086831E+02 -0.25561433328E+02  0.31886054990E+02  0.00000000000E+00 0. -1.
         11    1    3    3    0    0 -0.90615552302E+01  0.17027052657E+01  0.71455426352E+01  0.11664894694E+02  0.51100000000E-03 0. -1.
        -11    1    3    3    0    0  0.28298673931E+02  0.58810828324E+01  0.12907033558E+02  0.31654282444E+02  0.51100000000E-03 0.  1.
        -12    1    3    3    0    0 -0.11376623270E+02  0.97812987324E+01  0.55088571341E+01  0.15982767872E+02  0.00000000000E+00 0.  1.
</event>
<event>
 7    1  0.7457761E-012  0.5930195E+02  0.7816164E-02  0.1266605E+00
        -11   -1    0    0    0    0  0.00000000000E+00  0.00000000000E+00  0.45593999997E+02  0.45594000000E+02  0.51100000000E-03 0. -1.
         11   -1    0    0    0    0 -0.00000000000E+00 -0.00000000000E+00 -0.45593999997E+02  0.45594000000E+02  0.51100000000E-03 0.  1.
    9900012    2    1    2    0    0  0.22710499957E+02  0.22183808676E+02 -0.29719094811E+01  0.59301946283E+02  0.50000004113E+02 0.  0.
         12    1    1    2    0    0 -0.22710499957E+02 -0.22183808676E+02  0.29719094811E+01  0.31886053717E+02  0.00000000000E+00 0. -1.
         11    1    3    3    0    0 -0.41774767432E+01 -0.12275166651E+02  0.46206951827E+01  0.13765240735E+02  0.51100000000E-03 0. -1.
        -11    1    3    3    0    0  0.18540851218E+02  0.15983146965E+02 -0.23221540443E+01  0.24588951796E+02  0.51100000000E-03 0.  1.
         12    1    3    3    0    0  0.83471254825E+01  0.18475828363E+02 -0.52704506195E+01  0.20947753752E+02  0.00000000000E+00 0. -1.
</event>
<event>
 7    1  0.7457761E-012  0.5930196E+02  0.7816164E-02  0.1266605E+00
        -11   -1    0    0    0    0  0.00000000000E+00  0.00000000000E+00  0.45593999997E+02  0.45594000000E+02  0.51100000000E-03 0.  1.
         11   -1    0    0    0    0 -0.00000000000E+00 -0.00000000000E+00 -0.45593999997E+02  0.45594000000E+02  0.51100000000E-03 0. -1.
    9900012    2    1    2    0    0  0.83640618318E+01  0.30613326771E+02 -0.30961810921E+01  0.59301958483E+02  0.50000026362E+02 0.  0.
         12    1    1    2    0    0 -0.83640618318E+01 -0.30613326771E+02  0.30961810921E+01  0.31886041517E+02  0.00000000000E+00 0. -1.
         11    1    3    3    0    0 -0.26449851771E+01 -0.80626584477E+01 -0.12289533396E+01  0.85739567531E+01  0.51100000000E-03 0. -1.
        -11    1    3    3    0    0  0.19268257499E+01  0.41181727847E+02 -0.68403947888E+00  0.41232454162E+02  0.51100000000E-03 0.  1.
        -12    1    3    3    0    0  0.90822212591E+01 -0.25057426289E+01 -0.11831882736E+01  0.94955475678E+01  0.00000000000E+00 0.  1.
</event>
<event>
 7    1  0.7457761E-012  0.5930215E+02  0.7816164E-02  0.1266604E+00
        -11   -1    0    0    0    0  0.00000000000E+00  0.00000000000E+00  0.45593999997E+02  0.45594000000E+02  0.51100000000E-03 0. -1.
         11   -1    0    0    0    0 -0.00000000000E+00 -0.00000000000E+00 -0.45593999997E+02  0.45594000000E+02  0.51100000000E-03 0.  1.
    9900012    2    1    2    0    0 -0.97096902428E+01 -0.23166501893E+01 -0.30283043655E+02  0.59302145994E+02  0.50000368336E+02 0.  0.
         12    1    1    2    0    0  0.97096902428E+01  0.23166501893E+01  0.30283043655E+02  0.31885854006E+02  0.00000000000E+00 0. -1.
         11    1    3    3    0    0 -0.30810516457E+01 -0.14661195834E+02 -0.18706098406E+00  0.14982607737E+02  0.51100000000E-03 0. -1.
        -11    1    3    3    0    0 -0.60748180328E+00  0.20856504441E+02 -0.13947772736E+02  0.25097871945E+02  0.51100000000E-03 0.  1.
        -12    1    3    3    0    0 -0.60211567938E+01 -0.85119587960E+01 -0.16148209935E+02  0.19221666312E+02  0.00000000000E+00 0.  1.
</event>
<event>
 7    1  0.7457761E-012  0.5930199E+02  0.7816164E-02  0.1266605E+00
        -11   -1    0    0    0    0  0.00000000000E+00  0.00000000000E+00  0.45593999997E+02  0.45594000000E+02  0.51100000000E-03 0.  1.
         11   -1    0    0    0    0 -0.00000000000E+00 -0.00000000000E+00 -0.45593999997E+02  0.45594000000E+02  0.51100000000E-03 0. -1.
    9900012    2    1    2    0    0  0.93009514773E+01 -0.21113453013E+02  0.22009814920E+02  0.59301991324E+02  0.50000086256E+02 0.  0.
         12    1    1    2    0    0 -0.93009514773E+01  0.21113453013E+02 -0.22009814920E+02  0.31886008676E+02  0.00000000000E+00 0. -1.
         11    1    3    3    0    0  0.15215832373E+02 -0.87309582314E+01 -0.31936055671E+00  0.17545745293E+02  0.51100000000E-03 0. -1.
        -11    1    3    3    0    0 -0.45040899669E+01 -0.16500814971E+02  0.29071869510E+02  0.33730361964E+02  0.51100000000E-03 0.  1.
        -12    1    3    3    0    0 -0.14107909289E+01  0.41183201902E+01 -0.67426940331E+01  0.80258840671E+01  0.00000000000E+00 0.  1.
</event>
<event>
 7    1  0.7457761E-012  0.5930182E+02  0.7816164E-02  0.1266605E+00
        -11   -1    0    0    0    0  0.00000000000E+00  0.00000000000E+00  0.45593999997E+02  0.45594000000E+02  0.51100000000E-03 0.  1.
         11   -1    0    0    0    0 -0.00000000000E+00 -0.00000000000E+00 -0.45593999997E+02  0.45594000000E+02  0.51100000000E-03 0. -1.
    9900012    2    1    2    0    0 -0.12439741117E+02  0.26867511813E+02  0.11837154998E+02  0.59301818219E+02  0.49999770555E+02 0.  0.
         12    1    1    2    0    0  0.12439741117E+02 -0.26867511813E+02 -0.11837154998E+02  0.31886181781E+02  0.00000000000E+00 0. -1.
         11    1    3    3    0    0 -0.31322005344E+02  0.14767087802E+02  0.94424438279E+01  0.35892821659E+02  0.51100000000E-03 0. -1.
        -11    1    3    3    0    0  0.14646232223E+02  0.78434915635E+01  0.42022432260E+01  0.17137424737E+02  0.51100000000E-03 0.  1.
         12    1    3    3    0    0  0.42360320041E+01  0.42569324473E+01 -0.18075320560E+01  0.62715718232E+01  0.00000000000E+00 0. -1.
</event>
<event>
 7    1  0.7457761E-012  0.5930199E+02  0.7816164E-02  0.1266605E+00
        -11   -1    0    0    0    0  0.00000000000E+00  0.00000000000E+00  0.45593999997E+02  0.45594000000E+02  0.51100000000E-03 0.  1.
         11   -1    0    0    0    0 -0.00000000000E+00 -0.00000000000E+00 -0.45593999997E+02  0.45594000000E+02  0.51100000000E-03 0. -1.
    9900012    2    1    2    0    0 -0.10123692752E+02  0.25233095689E+02  0.16658916577E+02  0.59301987792E+02  0.50000079816E+02 0.  0.
         12    1    1    2    0    0  0.10123692752E+02 -0.25233095689E+02 -0.16658916577E+02  0.31886012208E+02  0.00000000000E+00 0. -1.
         11    1    3    3    0    0 -0.35938383354E+01  0.45214601862E+01 -0.76750482853E+01  0.96055006449E+01  0.51100000000E-03 0. -1.
        -11    1    3    3    0    0 -0.14740418774E+02  0.17404502707E+02  0.31091668084E+02  0.38560193005E+02  0.51100000000E-03 0.  1.
        -12    1    3    3    0    0  0.82105643571E+01  0.33071327960E+01 -0.67577032213E+01  0.11136294142E+02  0.00000000000E+00 0.  1.
</event>
<event>
 7    1  0.7457761E-012  0.5930182E+02  0.7816164E-02  0.1266605E+00
        -11   -1    0    0    0    0  0.00000000000E+00  0.00000000000E+00  0.45593999997E+02  0.45594000000E+02  0.51100000000E-03 0.  1.
         11   -1    0    0    0    0 -0.00000000000E+00 -0.00000000000E+00 -0.45593999997E+02  0.45594000000E+02  0.51100000000E-03 0. -1.
    9900012    2    1    2    0    0  0.60076792889E-01  0.22758167362E+02  0.22333629378E+02  0.59301815028E+02  0.49999764734E+02 0.  0.
         12    1    1    2    0    0 -0.60076792889E-01 -0.22758167362E+02 -0.22333629378E+02  0.31886184972E+02  0.00000000000E+00 0. -1.
         11    1    3    3    0    0 -0.10672867443E+02  0.29498109221E+01 -0.11375780423E+02  0.15875133525E+02  0.51100000000E-03 0. -1.
        -11    1    3    3    0    0  0.55779994545E+01  0.21118296637E+02  0.29120368811E+02  0.36401818783E+02  0.51100000000E-03 0.  1.
         12    1    3    3    0    0  0.51549447817E+01 -0.13099401977E+01  0.45890409898E+01  0.70248627196E+01  0.00000000000E+00 0. -1.
</event>
<event>
 7    1  0.7457761E-012  0.5930194E+02  0.7816164E-02  0.1266605E+00
        -11   -1    0    0    0    0  0.00000000000E+00  0.00000000000E+00  0.45593999997E+02  0.45594000000E+02  0.51100000000E-03 0. -1.
         11   -1    0    0    0    0 -0.00000000000E+00 -0.00000000000E+00 -0.45593999997E+02  0.45594000000E+02  0.51100000000E-03 0.  1.
    9900012    2    1    2    0    0 -0.23960943927E+02  0.44431476462E+01 -0.20563383361E+02  0.59301935173E+02  0.49999983851E+02 0.  0.
         12    1    1    2    0    0  0.23960943927E+02 -0.44431476462E+01  0.20563383361E+02  0.31886064827E+02  0.00000000000E+00 0. -1.
         11    1    3    3    0    0  0.19271884628E+01  0.11952120374E+02  0.11857202810E+02  0.16945810560E+02  0.51100000000E-03 0. -1.
        -11    1    3    3    0    0 -0.14773300299E+02 -0.59731915863E+01 -0.20801839992E+02  0.26203930369E+02  0.51100000000E-03 0.  1.
         12    1    3    3    0    0 -0.11114832091E+02 -0.15357811420E+01 -0.11618746178E+02  0.16152194244E+02  0.00000000000E+00 0. -1.
</event>
<event>
 7    1  0.7457761E-012  0.5930198E+02  0.7816164E-02  0.1266605E+00
        -11   -1    0    0    0    0  0.00000000000E+00  0.00000000000E+00  0.45593999997E+02  0.45594000000E+02  0.51100000000E-03 0.  1.
         11   -1    0    0    0    0 -0.00000000000E+00 -0.00000000000E+00 -0.45593999997E+02  0.45594000000E+02  0.51100000000E-03 0. -1.
    9900012    2    1    2    0    0 -0.88821425864E+01 -0.22046111591E+02  0.21255458640E+02  0.59301984018E+02  0.50000072933E+02 0.  0.
         12    1    1    2    0    0  0.88821425864E+01  0.22046111591E+02 -0.21255458640E+02  0.31886015982E+02  0.00000000000E+00 0. -1.
         11    1    3    3    0    0  0.93600202397E+00  0.23358374729E+01 -0.32293625758E+01  0.40940223980E+01  0.51100000000E-03 0. -1.
        -11    1    3    3    0    0 -0.22725204544E+02 -0.27380954096E+02  0.13723420148E+02  0.38137695651E+02  0.51100000000E-03 0.  1.
        -12    1    3    3    0    0  0.12907059934E+02  0.29990050321E+01  0.10761401068E+02  0.17070265969E+02  0.00000000000E+00 0.  1.
</event>
<event>
 7    1  0.7457761E-012  0.5930194E+02  0.7816164E-02  0.1266605E+00
        -11   -1    0    0    0    0  0.00000000000E+00  0.00000000000E+00  0.45593999997E+02  0.45594000000E+02  0.51100000000E-03 0. -1.
         11   -1    0    0    0    0 -0.00000000000E+00 -0.00000000000E+00 -0.45593999997E+02  0.45594000000E+02  0.51100000000E-03 0.  1.
    9900012    2    1    2    0    0  0.28691060309E+01  0.20253075070E+01 -0.31692071834E+02  0.59301936319E+02  0.49999985942E+02 0.  0.
         12    1    1    2    0    0 -0.28691060309E+01 -0.20253075070E+01  0.31692071834E+02  0.31886063681E+02  0.00000000000E+00 0. -1.
         11    1    3    3    0    0  0.68603959984E+01 -0.35620089632E+01  0.81864414704E+01  0.11259252432E+02  0.51100000000E-03 0. -1.
        -11    1    3    3    0    0 -0.14631878151E+02  0.18550195519E+01 -0.28107176123E+02  0.31741869914E+02  0.51100000000E-03 0.  1.
        -12    1    3    3    0    0  0.10640588183E+02  0.37322969183E+01 -0.11771337181E+02  0.16300813974E+02  0.00000000000E+00 0.  1.
</event>
<event>
 7    1  0.7457761E-012  0.5930198E+02  0.7816164E-02  0.1266605E+00
        -11   -1    0    0    0    0  0.00000000000E+00  0.00000000000E+00  0.45593999997E+02  0.45594000000E+02  0.51100000000E-03 0.  1.
         11   -1    0    0    0    0 -0.00000000000E+00 -0.00000000000E+00 -0.45593999997E+02  0.45594000000E+02  0.51100000000E-03 0. -1.
    9900012    2    1    2    0    0  0.14666181739E+02 -0.12409766202E+01  0.28285714963E+02  0.59301975150E+02  0.50000056760E+02 0.  0.
         12    1    1    2    0    0 -0.14666181739E+02  0.12409766202E+01 -0.28285714963E+02  0.31886024850E+02  0.00000000000E+00 0. -1.
         11    1    3    3    0    0  0.10638756894E+02 -0.81059901706E+01  0.46363121438E+00  0.13383018309E+02  0.51100000000E-03 0. -1.
        -11    1    3    3    0    0 -0.14579682518E+02 -0.23661113703E+01  0.16922116976E+02  0.22461604319E+02  0.51100000000E-03 0.  1.
        -12    1    3    3    0    0  0.18607107363E+02  0.92311249207E+01  0.10899966772E+02  0.23457352522E+02  0.00000000000E+00 0.  1.
</event>
<event>
 7    1  0.7457761E-012  0.5930158E+02  0.7816164E-02  0.1266606E+00
        -11   -1    0    0    0    0  0.00000000000E+00  0.00000000000E+00  0.45593999997E+02  0.45594000000E+02  0.51100000000E-03 0. -1.
         11   -1    0    0    0    0 -0.00000000000E+00 -0.00000000000E+00 -0.45593999997E+02  0.45594000000E+02  0.51100000000E-03 0.  1.
    9900012    2    1    2    0    0 -0.26805455535E+02 -0.17186621649E+02  0.16826280519E+01  0.59301582087E+02  0.49999339904E+02 0.  0.
         12    1    1    2    0    0  0.26805455535E+02  0.17186621649E+02 -0.16826280519E+01  0.31886417913E+02  0.00000000000E+00 0. -1.
         11    1    3    3    0    0 -0.17824754149E+02  0.10478243852E+01  0.22346716589E+02  0.28604117518E+02  0.51100000000E-03 0. -1.
        -11    1    3    3    0    0 -0.57680504146E+01 -0.11480300246E+02 -0.58806749601E+01  0.14129757166E+02  0.51100000000E-03 0.  1.
         12    1    3    3    0    0 -0.32126509709E+01 -0.67541457884E+01 -0.14783413577E+02  0.16567707403E+02  0.00000000000E+00 0. -1.
</event>
<event>
 7    1  0.7457761E-012  0.5930185E+02  0.7816164E-02  0.1266605E+00
        -11   -1    0    0    0    0  0.00000000000E+00  0.00000000000E+00  0.45593999997E+02  0.45594000000E+02  0.51100000000E-03 0.  1.
         11   -1    0    0    0    0 -0.00000000000E+00 -0.00000000000E+00 -0.45593999997E+02  0.45594000000E+02  0.51100000000E-03 0. -1.
    9900012    2    1    2    0    0  0.19932667903E+02 -0.73449195434E+01  0.23779554657E+02  0.59301853910E+02  0.49999835646E+02 0.  0.
         12    1    1    2    0    0 -0.19932667903E+02  0.73449195434E+01 -0.23779554657E+02  0.31886146090E+02  0.00000000000E+00 0. -1.
         11    1    3    3    0    0  0.34657037918E+02  0.24407755935E-01  0.16786269233E+02  0.38508307000E+02  0.51100000000E-03 0. -1.
        -11    1    3    3    0    0 -0.41854848806E+01 -0.74892305697E+01  0.53917160205E+01  0.10132988706E+02  0.51100000000E-03 0.  1.
         12    1    3    3    0    0 -0.10538885134E+02  0.11990327046E+00  0.16015694032E+01  0.10660558204E+02  0.00000000000E+00 0. -1.
</event>
<event>
 7    1  0.7457761E-012  0.5930193E+02  0.7816164E-02  0.1266605E+00
        -11   -1    0    0    0    0  0.00000000000E+00  0.00000000000E+00  0.45593999997E+02  0.45594000000E+02  0.51100000000E-03 0. -1.
         11   -1    0    0    0    0 -0.00000000000E+00 -0.00000000000E+00 -0.45593999997E+02  0.45594000000E+02  0.51100000000E-03 0.  1.
    9900012    2    1    2    0    0 -0.89252741240E+01  0.27268827119E+02 -0.13909425397E+02  0.59301928346E+02  0.49999971400E+02 0.  0.
         12    1    1    2    0    0  0.89252741240E+01 -0.27268827119E+02  0.13909425397E+02  0.31886071654E+02  0.00000000000E+00 0. -1.
         11    1    3    3    0    0 -0.29769732851E-01 -0.52470960698E+01 -0.13567004233E+02  0.14546357191E+02  0.51100000000E-03 0. -1.
        -11    1    3    3    0    0 -0.98592965306E+01  0.37961816522E+02 -0.14418260684E+00  0.39221499597E+02  0.51100000000E-03 0.  1.
        -12    1    3    3    0    0  0.96379213952E+00 -0.54458933332E+01 -0.19823855695E+00  0.55340715581E+01  0.00000000000E+00 0.  1.
</event>
<event>
 7    1  0.7457761E-012  0.5930194E+02  0.7816164E-02  0.1266605E+00
        -11   -1    0    0    0    0  0.00000000000E+00  0.00000000000E+00  0.45593999997E+02  0.45594000000E+02  0.51100000000E-03 0. -1.
         11   -1    0    0    0    0 -0.00000000000E+00 -0.00000000000E+00 -0.45593999997E+02  0.45594000000E+02  0.51100000000E-03 0.  1.
    9900012    2    1    2    0    0 -0.81172962270E+01 -0.24181276055E+02 -0.19133645915E+02  0.59301936968E+02  0.49999987124E+02 0.  0.
         12    1    1    2    0    0  0.81172962270E+01  0.24181276055E+02  0.19133645915E+02  0.31886063032E+02  0.00000000000E+00 0. -1.
         11    1    3    3    0    0 -0.20402616767E+02 -0.10064346594E+01  0.29756526180E+01  0.20643017959E+02  0.51100000000E-03 0. -1.
        -11    1    3    3    0    0  0.86882363337E+01 -0.15766354831E+02 -0.35417136264E+01  0.18346856159E+02  0.51100000000E-03 0.  1.
         12    1    3    3    0    0  0.35970842066E+01 -0.74084865649E+01 -0.18567584907E+02  0.20312062850E+02  0.00000000000E+00 0. -1.
</event>
<event>
 7    1  0.7457761E-012  0.5930195E+02  0.7816164E-02  0.1266605E+00
        -11   -1    0    0    0    0  0.00000000000E+00  0.00000000000E+00  0.45593999997E+02  0.45594000000E+02  0.51100000000E-03 0. -1.
         11   -1    0    0    0    0 -0.00000000000E+00 -0.00000000000E+00 -0.45593999997E+02  0.45594000000E+02  0.51100000000E-03 0.  1.
    9900012    2    1    2    0    0  0.30977055796E+01 -0.14203050951E+02 -0.28379525681E+02  0.59301954243E+02  0.50000018630E+02 0.  0.
         12    1    1    2    0    0 -0.30977055796E+01  0.14203050951E+02  0.28379525681E+02  0.31886045757E+02  0.00000000000E+00 0. -1.
         11    1    3    3    0    0  0.17304162886E+01  0.75681654482E+01 -0.90340051095E+01  0.11911537154E+02  0.51100000000E-03 0. -1.
        -11    1    3    3    0    0 -0.15568487882E+02 -0.14530909684E+02 -0.88731731255E+00  0.21314607278E+02  0.51100000000E-03 0.  1.
         12    1    3    3    0    0  0.16935777173E+02 -0.72403067150E+01 -0.18458203259E+02  0.26075809811E+02  0.00000000000E+00 0. -1.
</event>
<event>
 7    1  0.7457761E-012  0.5930198E+02  0.7816164E-02  0.1266605E+00
        -11   -1    0    0    0    0  0.00000000000E+00  0.00000000000E+00  0.45593999997E+02  0.45594000000E+02  0.51100000000E-03 0. -1.
         11   -1    0    0    0    0 -0.00000000000E+00 -0.00000000000E+00 -0.45593999997E+02  0.45594000000E+02  0.51100000000E-03 0.  1.
    9900012    2    1    2    0    0 -0.17549187904E+02 -0.12016221288E+02  0.23756152736E+02  0.59301978565E+02  0.50000062988E+02 0.  0.
         12    1    1    2    0    0  0.17549187904E+02  0.12016221288E+02 -0.23756152736E+02  0.31886021435E+02  0.00000000000E+00 0. -1.
         11    1    3    3    0    0  0.53106821975E+01 -0.78397821205E+01  0.95794006735E+01  0.13469611970E+02  0.51100000000E-03 0. -1.
        -11    1    3    3    0    0 -0.17555611973E+02 -0.48086490943E+01 -0.10208080209E+02  0.20869296099E+02  0.51100000000E-03 0.  1.
        -12    1    3    3    0    0 -0.53042581291E+01  0.63220992633E+00  0.24384832271E+02  0.24963070496E+02  0.00000000000E+00 0.  1.
</event>
<event>
 7    1  0.7457761E-012  0.5930182E+02  0.7816164E-02  0.1266605E+00
        -11   -1    0    0    0    0  0.00000000000E+00  0.00000000000E+00  0.45593999997E+02  0.45594000000E+02  0.51100000000E-03 0.  1.
         11   -1    0    0    0    0 -0.00000000000E+00 -0.00000000000E+00 -0.45593999997E+02  0.45594000000E+02  0.51100000000E-03 0. -1.
    9900012    2    1    2    0    0 -0.10299760954E+02 -0.19750632546E+02  0.22815695173E+02  0.59301819484E+02  0.49999772862E+02 0.  0.
         12    1    1    2    0    0  0.10299760954E+02  0.19750632546E+02 -0.22815695173E+02  0.31886180516E+02  0.00000000000E+00 0. -1.
         11    1    3    3    0    0  0.26226397197E+01 -0.13572410280E+02 -0.94156785721E+01  0.16725536259E+02  0.51100000000E-03 0. -1.
        -11    1    3    3    0    0  0.20135861491E+01  0.13491905374E+01  0.23657150272E+02  0.23780992484E+02  0.51100000000E-03 0.  1.
        -12    1    3    3    0    0 -0.14935986822E+02 -0.75274128030E+01  0.85742234731E+01  0.18795290741E+02  0.00000000000E+00 0.  1.
</event>
<event>
 7    1  0.7457761E-012  0.5930202E+02  0.7816164E-02  0.1266605E+00
        -11   -1    0    0    0    0  0.00000000000E+00  0.00000000000E+00  0.45593999997E+02  0.45594000000E+02  0.51100000000E-03 0. -1.
         11   -1    0    0    0    0 -0.00000000000E+00 -0.00000000000E+00 -0.45593999997E+02  0.45594000000E+02  0.51100000000E-03 0.  1.
    9900012    2    1    2    0    0  0.22405179598E+02  0.21986622984E+02  0.55957302951E+01  0.59302017804E+02  0.50000134550E+02 0.  0.
         12    1    1    2    0    0 -0.22405179598E+02 -0.21986622984E+02 -0.55957302951E+01  0.31885982196E+02  0.00000000000E+00 0. -1.
         11    1    3    3    0    0  0.19338436577E+02 -0.53267619413E+01  0.11624120719E+02  0.23183392866E+02  0.51100000000E-03 0. -1.
        -11    1    3    3    0    0 -0.48210379309E+01  0.10561545692E+01 -0.71399749762E+01  0.86796953937E+01  0.51100000000E-03 0.  1.
         12    1    3    3    0    0  0.78877809514E+01  0.26257230356E+02  0.11115845526E+01  0.27438929544E+02  0.00000000000E+00 0. -1.
</event>
<event>
 7    1  0.7457761E-012  0.5930194E+02  0.7816164E-02  0.1266605E+00
        -11   -1    0    0    0    0  0.00000000000E+00  0.00000000000E+00  0.45593999997E+02  0.45594000000E+02  0.51100000000E-03 0.  1.
         11   -1    0    0    0    0 -0.00000000000E+00 -0.00000000000E+00 -0.45593999997E+02  0.45594000000E+02  0.51100000000E-03 0. -1.
    9900012    2    1    2    0    0 -0.18558812414E+02  0.15268578538E+01  0.25883580475E+02  0.59301944249E+02  0.50000000404E+02 0.  0.
         12    1    1    2    0    0  0.18558812414E+02 -0.15268578538E+01 -0.25883580475E+02  0.31886055751E+02  0.00000000000E+00 0. -1.
         11    1    3    3    0    0 -0.13455569410E+02 -0.17632077521E+01 -0.81718293822E+01  0.15841087256E+02  0.51100000000E-03 0. -1.
        -11    1    3    3    0    0 -0.71592654984E+01 -0.30745983496E+01  0.35726905119E+02  0.36566651298E+02  0.51100000000E-03 0.  1.
         12    1    3    3    0    0  0.20560224943E+01  0.63646639555E+01 -0.16714952617E+01  0.68942056956E+01  0.00000000000E+00 0. -1.
</event>
<event>
 7    1  0.7457761E-012  0.5930194E+02  0.7816164E-02  0.1266605E+00
        -11   -1    0    0    0    0  0.00000000000E+00  0.00000000000E+00  0.45593999997E+02  0.45594000000E+02  0.51100000000E-03 0.  1.
         11   -1    0    0    0    0 -0.00000000000E+00 -0.00000000000E+00 -0.45593999997E+02  0.45594000000E+02  0.51100000000E-03 0. -1.
    9900012    2    1    2    0    0  0.24606336492E+02  0.20099310607E+02 -0.26956682209E+01  0.59301941768E+02  0.49999995878E+02 0.  0.
         12    1    1    2    0    0 -0.24606336492E+02 -0.20099310607E+02  0.26956682209E+01  0.31886058232E+02  0.00000000000E+00 0. -1.
         11    1    3    3    0    0  0.20092904635E+01  0.40511419399E+01 -0.50736428658E+01  0.67963851697E+01  0.51100000000E-03 0. -1.
        -11    1    3    3    0    0  0.31403742194E+01  0.70843115236E+01  0.22080330028E+02  0.23400649444E+02  0.51100000000E-03 0.  1.
        -12    1    3    3    0    0  0.19456671809E+02  0.89638571439E+01 -0.19702355383E+02  0.29104907154E+02  0.00000000000E+00 0.  1.
</event>
<event>
 7    1  0.7457761E-012  0.5930196E+02  0.7816164E-02  0.1266605E+00
        -11   -1    0    0    0    0  0.00000000000E+00  0.00000000000E+00  0.45593999997E+02  0.45594000000E+02  0.51100000000E-03 0. -1.
         11   -1    0    0    0    0 -0.00000000000E+00 -0.00000000000E+00 -0.45593999997E+02  0.45594000000E+02  0.51100000000E-03 0.  1.
    9900012    2    1    2    0    0 -0.30563209176E+01 -0.31629871069E+02 -0.26323771019E+01  0.59301964646E+02  0.50000037602E+02 0.  0.
         12    1    1    2    0    0  0.30563209176E+01  0.31629871069E+02  0.26323771019E+01  0.31886035354E+02  0.00000000000E+00 0. -1.
         11    1    3    3    0    0 -0.46367230426E+01  0.82107679788E+01  0.99668342302E+01  0.13720557431E+02  0.51100000000E-03 0. -1.
        -11    1    3    3    0    0 -0.37090935155E+01 -0.30384022492E+02 -0.15575758621E+02  0.34344584062E+02  0.51100000000E-03 0.  1.
        -12    1    3    3    0    0  0.52894956405E+01 -0.94566165558E+01  0.29765472887E+01  0.11236823153E+02  0.00000000000E+00 0.  1.
</event>
<event>
 7    1  0.7457761E-012  0.5930193E+02  0.7816164E-02  0.1266605E+00
        -11   -1    0    0    0    0  0.00000000000E+00  0.00000000000E+00  0.45593999997E+02  0.45594000000E+02  0.51100000000E-03 0. -1.
         11   -1    0    0    0    0 -0.00000000000E+00 -0.00000000000E+00 -0.45593999997E+02  0.45594000000E+02  0.51100000000E-03 0.  1.
    9900012    2    1    2    0    0  0.15933562958E+02  0.14576503288E+02 -0.23459929192E+02  0.59301934794E+02  0.49999983159E+02 0.  0.
         12    1    1    2    0    0 -0.15933562958E+02 -0.14576503288E+02  0.23459929192E+02  0.31886065206E+02  0.00000000000E+00 0. -1.
         11    1    3    3    0    0  0.16532677149E+01 -0.10844505885E+02 -0.10812948206E+01  0.11022966968E+02  0.51100000000E-03 0. -1.
        -11    1    3    3    0    0  0.11484373607E+02  0.29801918776E+02 -0.79069043997E+01  0.32902345469E+02  0.51100000000E-03 0.  1.
         12    1    3    3    0    0  0.27959216357E+01 -0.43809096032E+01 -0.14471729972E+02  0.15376622357E+02  0.00000000000E+00 0. -1.
</event>
<event>
 7    1  0.7457761E-012  0.5930192E+02  0.7816164E-02  0.1266605E+00
        -11   -1    0    0    0    0  0.00000000000E+00  0.00000000000E+00  0.45593999997E+02  0.45594000000E+02  0.51100000000E-03 0.  1.
         11   -1    0    0    0    0 -0.00000000000E+00 -0.00000000000E+00 -0.45593999997E+02  0.45594000000E+02  0.51100000000E-03 0. -1.
    9900012    2    1    2    0    0 -0.72336610156E+01  0.17185822495E+01  0.31007136235E+02  0.59301923507E+02  0.49999962574E+02 0.  0.
         12    1    1    2    0    0  0.72336610156E+01 -0.17185822495E+01 -0.31007136235E+02  0.31886076493E+02  0.00000000000E+00 0. -1.
         11    1    3    3    0    0 -0.45583560114E+01  0.18847443087E+02  0.18232937608E+02  0.26616625152E+02  0.51100000000E-03 0. -1.
        -11    1    3    3    0    0  0.12311021814E+01 -0.13784829016E+02  0.19689986818E+02  0.24067253784E+02  0.51100000000E-03 0.  1.
        -12    1    3    3    0    0 -0.39064071856E+01 -0.33440318215E+01 -0.69157881900E+01  0.86180445701E+01  0.00000000000E+00 0.  1.
</event>
<event>
 7    1  0.7457761E-012  0.5930195E+02  0.7816164E-02  0.1266605E+00
        -11   -1    0    0    0    0  0.00000000000E+00  0.00000000000E+00  0.45593999997E+02  0.45594000000E+02  0.51100000000E-03 0.  1.
         11   -1    0    0    0    0 -0.00000000000E+00 -0.00000000000E+00 -0.45593999997E+02  0.45594000000E+02  0.51100000000E-03 0. -1.
    9900012    2    1    2    0    0 -0.18492162839E+02  0.88073526109E+01  0.24437479637E+02  0.59301953561E+02  0.50000017387E+02 0.  0.
         12    1    1    2    0    0  0.18492162839E+02 -0.88073526109E+01 -0.24437479637E+02  0.31886046439E+02  0.00000000000E+00 0. -1.
         11    1    3    3    0    0  0.85050817985E+01 -0.66362159767E+01 -0.21435976625E+00  0.10789890141E+02  0.51100000000E-03 0. -1.
        -11    1    3    3    0    0 -0.16186181157E+02  0.50419491766E+01  0.28375673867E+02  0.33054388205E+02  0.51100000000E-03 0.  1.
         12    1    3    3    0    0 -0.10811063481E+02  0.10401619411E+02 -0.37238344635E+01  0.15457675216E+02  0.00000000000E+00 0. -1.
</event>
<event>
 7    1  0.7457761E-012  0.5930194E+02  0.7816164E-02  0.1266605E+00
        -11   -1    0    0    0    0  0.00000000000E+00  0.00000000000E+00  0.45593999997E+02  0.45594000000E+02  0.51100000000E-03 0. -1.
         11   -1    0    0    0    0 -0.00000000000E+00 -0.00000000000E+00 -0.45593999997E+02  0.45594000000E+02  0.51100000000E-03 0.  1.
    9900012    2    1    2    0    0  0.30986063173E+02  0.71846701847E+01  0.22282745947E+01  0.59301940283E+02  0.49999993170E+02 0.  0.
         12    1    1    2    0    0 -0.30986063173E+02 -0.71846701847E+01 -0.22282745947E+01  0.31886059717E+02  0.00000000000E+00 0. -1.
         11    1    3    3    0    0 -0.11083775278E+02  0.45256929987E+01 -0.86725612062E+01  0.14783277365E+02  0.51100000000E-03 0. -1.
        -11    1    3    3    0    0  0.48598212915E+01  0.32749660464E+00 -0.17074625251E+01  0.51614480088E+01  0.51100000000E-03 0.  1.
         12    1    3    3    0    0  0.37210017159E+02  0.23314805814E+01  0.12608298326E+02  0.39357214909E+02  0.00000000000E+00 0. -1.
</event>
<event>
 7    1  0.7457761E-012  0.5930194E+02  0.7816164E-02  0.1266605E+00
        -11   -1    0    0    0    0  0.00000000000E+00  0.00000000000E+00  0.45593999997E+02  0.45594000000E+02  0.51100000000E-03 0.  1.
         11   -1    0    0    0    0 -0.00000000000E+00 -0.00000000000E+00 -0.45593999997E+02  0.45594000000E+02  0.51100000000E-03 0. -1.
    9900012    2    1    2    0    0 -0.31347444329E+02 -0.26381551088E+01 -0.52056141141E+01  0.59301944322E+02  0.50000000538E+02 0.  0.
         12    1    1    2    0    0  0.31347444329E+02  0.26381551088E+01  0.52056141141E+01  0.31886055678E+02  0.00000000000E+00 0. -1.
         11    1    3    3    0    0 -0.92448349782E+01 -0.52602698731E+01 -0.25385888062E+02  0.27524184382E+02  0.51100000000E-03 0. -1.
        -11    1    3    3    0    0 -0.41127344002E+01 -0.35999194715E+01  0.53363467836E+01  0.76387565548E+01  0.51100000000E-03 0.  1.
         12    1    3    3    0    0 -0.17989874951E+02  0.62220342358E+01  0.14843927165E+02  0.24139003386E+02  0.00000000000E+00 0. -1.
</event>
<event>
 7    1  0.7457761E-012  0.5930190E+02  0.7816164E-02  0.1266605E+00
        -11   -1    0    0    0    0  0.00000000000E+00  0.00000000000E+00  0.45593999997E+02  0.45594000000E+02  0.51100000000E-03 0. -1.
         11   -1    0    0    0    0 -0.00000000000E+00 -0.00000000000E+00 -0.45593999997E+02  0.45594000000E+02  0.51100000000E-03 0.  1.
    9900012    2    1    2    0    0  0.16201706745E+02 -0.38211324054E+01 -0.27196089332E+02  0.59301895985E+02  0.49999912382E+02 0.  0.
         12    1    1    2    0    0 -0.16201706745E+02  0.38211324054E+01  0.27196089332E+02  0.31886104015E+02  0.00000000000E+00 0. -1.
         11    1    3    3    0    0 -0.88409818206E+01 -0.17945283139E+01  0.49502717903E+01  0.10290212946E+02  0.51100000000E-03 0. -1.
        -11    1    3    3    0    0  0.26594489975E+02  0.61667068573E+01 -0.18360364902E+02  0.32899820214E+02  0.51100000000E-03 0.  1.
         12    1    3    3    0    0 -0.15518014102E+01 -0.81933109488E+01 -0.13785996220E+02  0.16111862825E+02  0.00000000000E+00 0. -1.
</event>
<event>
 7    1  0.7457761E-012  0.5930194E+02  0.7816164E-02  0.1266605E+00
        -11   -1    0    0    0    0  0.00000000000E+00  0.00000000000E+00  0.45593999997E+02  0.45594000000E+02  0.51100000000E-03 0.  1.
         11   -1    0    0    0    0 -0.00000000000E+00 -0.00000000000E+00 -0.45593999997E+02  0.45594000000E+02  0.51100000000E-03 0. -1.
    9900012    2    1    2    0    0 -0.71102146571E+01 -0.11271392404E+02  0.28967595932E+02  0.59301936378E+02  0.49999986049E+02 0.  0.
         12    1    1    2    0    0  0.71102146571E+01  0.11271392404E+02 -0.28967595932E+02  0.31886063622E+02  0.00000000000E+00 0. -1.
         11    1    3    3    0    0 -0.18481418671E+02 -0.13317804354E+01  0.95574324385E+01  0.20849004540E+02  0.51100000000E-03 0.  1.
        -11    1    3    3    0    0  0.10339513632E+02 -0.97841155252E+01 -0.41828952768E+01  0.14836814749E+02  0.51100000000E-03 0. -1.
        -12    1    3    3    0    0  0.10316903822E+01 -0.15549644365E+00  0.23593058771E+02  0.23616117089E+02  0.00000000000E+00 0.  1.
</event>
<event>
 7    1  0.7457761E-012  0.5930194E+02  0.7816164E-02  0.1266605E+00
        -11   -1    0    0    0    0  0.00000000000E+00  0.00000000000E+00  0.45593999997E+02  0.45594000000E+02  0.51100000000E-03 0. -1.
         11   -1    0    0    0    0 -0.00000000000E+00 -0.00000000000E+00 -0.45593999997E+02  0.45594000000E+02  0.51100000000E-03 0.  1.
    9900012    2    1    2    0    0 -0.12519744552E+02  0.17204848807E+02 -0.23748047631E+02  0.59301943605E+02  0.49999999230E+02 0.  0.
         12    1    1    2    0    0  0.12519744552E+02 -0.17204848807E+02  0.23748047631E+02  0.31886056395E+02  0.00000000000E+00 0. -1.
         11    1    3    3    0    0  0.39520114004E+00  0.11700129587E+02  0.91019646227E+01  0.14828856211E+02  0.51100000000E-03 0.  1.
        -11    1    3    3    0    0 -0.49621181485E+01  0.14012755022E+02 -0.28305593602E+02  0.31971652276E+02  0.51100000000E-03 0. -1.
         12    1    3    3    0    0 -0.79528275432E+01 -0.85080358012E+01 -0.45444186518E+01  0.12501435118E+02  0.00000000000E+00 0. -1.
</event>
<event>
 7    1  0.7457761E-012  0.5930192E+02  0.7816164E-02  0.1266605E+00
        -11   -1    0    0    0    0  0.00000000000E+00  0.00000000000E+00  0.45593999997E+02  0.45594000000E+02  0.51100000000E-03 0. -1.
         11   -1    0    0    0    0 -0.00000000000E+00 -0.00000000000E+00 -0.45593999997E+02  0.45594000000E+02  0.51100000000E-03 0.  1.
    9900012    2    1    2    0    0 -0.31274255786E+02  0.31034470361E+01 -0.53862654609E+01  0.59301916608E+02  0.49999949993E+02 0.  0.
         12    1    1    2    0    0  0.31274255786E+02 -0.31034470361E+01  0.53862654609E+01  0.31886083392E+02  0.00000000000E+00 0. -1.
         11    1    3    3    0    0 -0.20762246750E+01  0.14318462145E+02  0.26452586832E+00  0.14470626845E+02  0.51100000000E-03 0. -1.
        -11    1    3    3    0    0 -0.47359102432E+01 -0.18381818202E+02 -0.25799385409E+01  0.19156622077E+02  0.51100000000E-03 0.  1.
        -12    1    3    3    0    0 -0.24462120868E+02  0.71668030931E+01 -0.30708527883E+01  0.25674667686E+02  0.00000000000E+00 0.  1.
</event>
<event>
 7    1  0.7457761E-012  0.5930198E+02  0.7816164E-02  0.1266605E+00
        -11   -1    0    0    0    0  0.00000000000E+00  0.00000000000E+00  0.45593999997E+02  0.45594000000E+02  0.51100000000E-03 0.  1.
         11   -1    0    0    0    0 -0.00000000000E+00 -0.00000000000E+00 -0.45593999997E+02  0.45594000000E+02  0.51100000000E-03 0. -1.
    9900012    2    1    2    0    0 -0.14549999008E+02  0.58600724405E+01  0.27761038299E+02  0.59301981629E+02  0.50000068575E+02 0.  0.
         12    1    1    2    0    0  0.14549999008E+02 -0.58600724405E+01 -0.27761038299E+02  0.31886018371E+02  0.00000000000E+00 0. -1.
         11    1    3    3    0    0 -0.12701965900E+02  0.13335428550E+02  0.10785243256E+02  0.21342330348E+02  0.51100000000E-03 0. -1.
        -11    1    3    3    0    0 -0.72042564212E+01 -0.17395256040E+02  0.18721559706E+02  0.26551705056E+02  0.51100000000E-03 0.  1.
        -12    1    3    3    0    0  0.53562233129E+01  0.99198999307E+01 -0.17457646628E+01  0.11407946225E+02  0.00000000000E+00 0.  1.
</event>
<event>
 7    1  0.7457761E-012  0.5930195E+02  0.7816164E-02  0.1266605E+00
        -11   -1    0    0    0    0  0.00000000000E+00  0.00000000000E+00  0.45593999997E+02  0.45594000000E+02  0.51100000000E-03 0.  1.
         11   -1    0    0    0    0 -0.00000000000E+00 -0.00000000000E+00 -0.45593999997E+02  0.45594000000E+02  0.51100000000E-03 0. -1.
    9900012    2    1    2    0    0  0.25317456353E+00 -0.31883851961E+02  0.27524066620E+00  0.59301954923E+02  0.50000019870E+02 0.  0.
         12    1    1    2    0    0 -0.25317456353E+00  0.31883851961E+02 -0.27524066620E+00  0.31886045077E+02  0.00000000000E+00 0. -1.
         11    1    3    3    0    0 -0.14705240245E+02 -0.15383346328E+02 -0.13511745171E+02  0.25208306026E+02  0.51100000000E-03 0. -1.
        -11    1    3    3    0    0  0.10976358573E+02 -0.21674618509E+02  0.86619270998E+01  0.25793381252E+02  0.51100000000E-03 0.  1.
         12    1    3    3    0    0  0.39820562358E+01  0.51741128756E+01  0.51250587371E+01  0.83002676446E+01  0.00000000000E+00 0. -1.
</event>
<event>
 7    1  0.7457761E-012  0.5930198E+02  0.7816164E-02  0.1266605E+00
        -11   -1    0    0    0    0  0.00000000000E+00  0.00000000000E+00  0.45593999997E+02  0.45594000000E+02  0.51100000000E-03 0.  1.
         11   -1    0    0    0    0 -0.00000000000E+00 -0.00000000000E+00 -0.45593999997E+02  0.45594000000E+02  0.51100000000E-03 0. -1.
    9900012    2    1    2    0    0  0.77864675387E+01  0.19399488240E+02  0.24077983668E+02  0.59301976130E+02  0.50000058547E+02 0.  0.
         12    1    1    2    0    0 -0.77864675387E+01 -0.19399488240E+02 -0.24077983668E+02  0.31886023870E+02  0.00000000000E+00 0. -1.
         11    1    3    3    0    0 -0.68453582502E+01 -0.24066487801E+01 -0.62779427335E+01  0.95949702006E+01  0.51100000000E-03 0. -1.
        -11    1    3    3    0    0  0.22334540245E+02  0.84912185140E+01  0.16863144594E+02  0.29245480431E+02  0.51100000000E-03 0.  1.
         12    1    3    3    0    0 -0.77027144560E+01  0.13314918506E+02  0.13492781807E+02  0.20461525498E+02  0.00000000000E+00 0. -1.
</event>
<event>
 7    1  0.7457761E-012  0.5930194E+02  0.7816164E-02  0.1266605E+00
        -11   -1    0    0    0    0  0.00000000000E+00  0.00000000000E+00  0.45593999997E+02  0.45594000000E+02  0.51100000000E-03 0.  1.
         11   -1    0    0    0    0 -0.00000000000E+00 -0.00000000000E+00 -0.45593999997E+02  0.45594000000E+02  0.51100000000E-03 0. -1.
    9900012    2    1    2    0    0 -0.20177515103E+02  0.16336700866E+02  0.18512181057E+02  0.59301941002E+02  0.49999994482E+02 0.  0.
         12    1    1    2    0    0  0.20177515103E+02 -0.16336700866E+02 -0.18512181057E+02  0.31886058998E+02  0.00000000000E+00 0. -1.
         11    1    3    3    0    0 -0.10753991517E+02  0.25739596872E+02  0.48657952264E+01  0.28316976253E+02  0.51100000000E-03 0. -1.
        -11    1    3    3    0    0  0.13308650831E+01 -0.13803457838E+02  0.11409939358E+01  0.13914327780E+02  0.51100000000E-03 0.  1.
        -12    1    3    3    0    0 -0.10754388668E+02  0.44005618326E+01  0.12505391895E+02  0.17070636969E+02  0.00000000000E+00 0.  1.
</event>
<event>
 7    1  0.7457761E-012  0.5930196E+02  0.7816164E-02  0.1266605E+00
        -11   -1    0    0    0    0  0.00000000000E+00  0.00000000000E+00  0.45593999997E+02  0.45594000000E+02  0.51100000000E-03 0.  1.
         11   -1    0    0    0    0 -0.00000000000E+00 -0.00000000000E+00 -0.45593999997E+02  0.45594000000E+02  0.51100000000E-03 0. -1.
    9900012    2    1    2    0    0 -0.28717758914E+02  0.53675692892E+01  0.12774948964E+02  0.59301956059E+02  0.50000021943E+02 0.  0.
         12    1    1    2    0    0  0.28717758914E+02 -0.53675692892E+01 -0.12774948964E+02  0.31886043941E+02  0.00000000000E+00 0. -1.
         11    1    3    3    0    0 -0.10221791026E+02  0.12478357462E+02  0.25578671466E+02  0.30240086821E+02  0.51100000000E-03 0. -1.
        -11    1    3    3    0    0 -0.11296122968E+02 -0.42148522621E+01  0.21192396581E+01  0.12241672708E+02  0.51100000000E-03 0.  1.
         12    1    3    3    0    0 -0.71998449203E+01 -0.28959359108E+01 -0.14922962160E+02  0.16820196530E+02  0.00000000000E+00 0. -1.
</event>
<event>
 7    1  0.7457761E-012  0.5930182E+02  0.7816164E-02  0.1266605E+00
        -11   -1    0    0    0    0  0.00000000000E+00  0.00000000000E+00  0.45593999997E+02  0.45594000000E+02  0.51100000000E-03 0.  1.
         11   -1    0    0    0    0 -0.00000000000E+00 -0.00000000000E+00 -0.45593999997E+02  0.45594000000E+02  0.51100000000E-03 0. -1.
    9900012    2    1    2    0    0 -0.31065572524E+02  0.67389795634E+01 -0.24989851759E+01  0.59301818531E+02  0.49999771123E+02 0.  0.
         12    1    1    2    0    0  0.31065572524E+02 -0.67389795634E+01  0.24989851759E+01  0.31886181469E+02  0.00000000000E+00 0. -1.
         11    1    3    3    0    0 -0.36190746266E+02  0.37251030313E+01 -0.16111165532E+02  0.39789648943E+02  0.51100000000E-03 0. -1.
        -11    1    3    3    0    0  0.70712668460E+01  0.34762070376E+01  0.15091244970E+02  0.17024467839E+02  0.51100000000E-03 0.  1.
        -12    1    3    3    0    0 -0.19460931034E+01 -0.46233050554E+00 -0.14790646138E+01  0.24877017496E+01  0.00000000000E+00 0.  1.
</event>
<event>
 7    1  0.7457761E-012  0.5930197E+02  0.7816164E-02  0.1266605E+00
        -11   -1    0    0    0    0  0.00000000000E+00  0.00000000000E+00  0.45593999997E+02  0.45594000000E+02  0.51100000000E-03 0.  1.
         11   -1    0    0    0    0 -0.00000000000E+00 -0.00000000000E+00 -0.45593999997E+02  0.45594000000E+02  0.51100000000E-03 0. -1.
    9900012    2    1    2    0    0 -0.15344420478E+02  0.30834673932E+01  0.27780572598E+02  0.59301965050E+02  0.50000038340E+02 0.  0.
         12    1    1    2    0    0  0.15344420478E+02 -0.30834673932E+01 -0.27780572598E+02  0.31886034950E+02  0.00000000000E+00 0. -1.
         11    1    3    3    0    0 -0.80287537800E+01  0.21494642702E+02  0.53480530502E+01  0.23560183018E+02  0.51100000000E-03 0. -1.
        -11    1    3    3    0    0  0.46352029469E+01 -0.97121800766E+01  0.16742506971E+02  0.19902841208E+02  0.51100000000E-03 0.  1.
         12    1    3    3    0    0 -0.11950869645E+02 -0.86989952324E+01  0.56900125761E+01  0.15838940824E+02  0.00000000000E+00 0. -1.
</event>
<event>
 7    1  0.7457761E-012  0.5930192E+02  0.7816164E-02  0.1266605E+00
        -11   -1    0    0    0    0  0.00000000000E+00  0.00000000000E+00  0.45593999997E+02  0.45594000000E+02  0.51100000000E-03 0. -1.
         11   -1    0    0    0    0 -0.00000000000E+00 -0.00000000000E+00 -0.45593999997E+02  0.45594000000E+02  0.51100000000E-03 0.  1.
    9900012    2    1    2    0    0  0.17767290490E+02  0.74565997626E+01 -0.25405605117E+02  0.59301917413E+02  0.49999951461E+02 0.  0.
         12    1    1    2    0    0 -0.17767290490E+02 -0.74565997626E+01  0.25405605117E+02  0.31886082587E+02  0.00000000000E+00 0. -1.
         11    1    3    3    0    0  0.18521709658E+01 -0.18480750178E+02 -0.65024230827E+01  0.19678672990E+02  0.51100000000E-03 0. -1.
        -11    1    3    3    0    0  0.87282204081E+01  0.25995999010E+02 -0.13124499875E+02  0.30401090329E+02  0.51100000000E-03 0.  1.
         12    1    3    3    0    0  0.71868991160E+01 -0.58649068774E-01 -0.57786821601E+01  0.92221540935E+01  0.00000000000E+00 0. -1.
</event>
<event>
 7    1  0.7457761E-012  0.5930195E+02  0.7816164E-02  0.1266605E+00
        -11   -1    0    0    0    0  0.00000000000E+00  0.00000000000E+00  0.45593999997E+02  0.45594000000E+02  0.51100000000E-03 0.  1.
         11   -1    0    0    0    0 -0.00000000000E+00 -0.00000000000E+00 -0.45593999997E+02  0.45594000000E+02  0.51100000000E-03 0. -1.
    9900012    2    1    2    0    0  0.15202564010E+01 -0.71941160978E+01  0.31026656962E+02  0.59301954021E+02  0.50000018225E+02 0.  0.
         12    1    1    2    0    0 -0.15202564010E+01  0.71941160978E+01 -0.31026656962E+02  0.31886045979E+02  0.00000000000E+00 0. -1.
         11    1    3    3    0    0  0.54492310040E+00  0.17921755259E+02  0.13904701585E+02  0.22689799011E+02  0.51100000000E-03 0. -1.
        -11    1    3    3    0    0 -0.88998844268E+01 -0.56713407502E+01  0.56177945749E+01  0.11955403166E+02  0.51100000000E-03 0.  1.
         12    1    3    3    0    0  0.98752177275E+01 -0.19444530607E+02  0.11504160803E+02  0.24656751843E+02  0.00000000000E+00 0. -1.
</event>
<event>
 7    1  0.7457761E-012  0.5930169E+02  0.7816164E-02  0.1266606E+00
        -11   -1    0    0    0    0  0.00000000000E+00  0.00000000000E+00  0.45593999997E+02  0.45594000000E+02  0.51100000000E-03 0.  1.
         11   -1    0    0    0    0 -0.00000000000E+00 -0.00000000000E+00 -0.45593999997E+02  0.45594000000E+02  0.51100000000E-03 0. -1.
    9900012    2    1    2    0    0 -0.20368522238E+02 -0.51742984285E+01  0.23980970243E+02  0.59301686382E+02  0.49999530114E+02 0.  0.
         12    1    1    2    0    0  0.20368522238E+02  0.51742984285E+01 -0.23980970243E+02  0.31886313618E+02  0.00000000000E+00 0. -1.
         11    1    3    3    0    0 -0.41308544994E+01  0.95941275053E+01 -0.84013965025E+01  0.13405025361E+02  0.51100000000E-03 0. -1.
        -11    1    3    3    0    0 -0.22538976662E+02 -0.10768348958E+02  0.26262246726E+02  0.36244563890E+02  0.51100000000E-03 0.  1.
         12    1    3    3    0    0  0.63013089235E+01 -0.40000769762E+01  0.61201200189E+01  0.96520971302E+01  0.00000000000E+00 0. -1.
</event>
<event>
 7    1  0.7457761E-012  0.5930192E+02  0.7816164E-02  0.1266605E+00
        -11   -1    0    0    0    0  0.00000000000E+00  0.00000000000E+00  0.45593999997E+02  0.45594000000E+02  0.51100000000E-03 0. -1.
         11   -1    0    0    0    0 -0.00000000000E+00 -0.00000000000E+00 -0.45593999997E+02  0.45594000000E+02  0.51100000000E-03 0.  1.
    9900012    2    1    2    0    0  0.22750226709E+02 -0.14280654678E+01 -0.22295955478E+02  0.59301924403E+02  0.49999964210E+02 0.  0.
         12    1    1    2    0    0 -0.22750226709E+02  0.14280654678E+01  0.22295955478E+02  0.31886075597E+02  0.00000000000E+00 0. -1.
         11    1    3    3    0    0  0.15492337656E+02  0.20916495962E+02 -0.98548512057E+01  0.27832183204E+02  0.51100000000E-03 0. -1.
        -11    1    3    3    0    0  0.67434480742E+01 -0.20313963662E+02 -0.16417538526E+02  0.26975299499E+02  0.51100000000E-03 0.  1.
         12    1    3    3    0    0  0.51444097902E+00 -0.20305977683E+01  0.39764342534E+01  0.44944416994E+01  0.00000000000E+00 0. -1.
</event>
<event>
 7    1  0.7457761E-012  0.5930198E+02  0.7816164E-02  0.1266605E+00
        -11   -1    0    0    0    0  0.00000000000E+00  0.00000000000E+00  0.45593999997E+02  0.45594000000E+02  0.51100000000E-03 0.  1.
         11   -1    0    0    0    0 -0.00000000000E+00 -0.00000000000E+00 -0.45593999997E+02  0.45594000000E+02  0.51100000000E-03 0. -1.
    9900012    2    1    2    0    0  0.20065271447E+02  0.79459448620E+01  0.23472639352E+02  0.59301984944E+02  0.50000074622E+02 0.  0.
         12    1    1    2    0    0 -0.20065271447E+02 -0.79459448620E+01 -0.23472639352E+02  0.31886015056E+02  0.00000000000E+00 0. -1.
         11    1    3    3    0    0 -0.28928866048E+01 -0.12070297512E+02 -0.56292364786E+01  0.13628983034E+02  0.51100000000E-03 0. -1.
        -11    1    3    3    0    0  0.17403358542E+02  0.11708331778E+02  0.28858768299E+02  0.35676188551E+02  0.51100000000E-03 0.  1.
        -12    1    3    3    0    0  0.55547995097E+01  0.83079105964E+01  0.24310753139E+00  0.99968133594E+01  0.00000000000E+00 0.  1.
</event>
<event>
 7    1  0.7457761E-012  0.5930194E+02  0.7816164E-02  0.1266605E+00
        -11   -1    0    0    0    0  0.00000000000E+00  0.00000000000E+00  0.45593999997E+02  0.45594000000E+02  0.51100000000E-03 0. -1.
         11   -1    0    0    0    0 -0.00000000000E+00 -0.00000000000E+00 -0.45593999997E+02  0.45594000000E+02  0.51100000000E-03 0.  1.
    9900012    2    1    2    0    0  0.21889470081E+02 -0.22949695516E+02 -0.32989666203E+01  0.59301943401E+02  0.49999998856E+02 0.  0.
         12    1    1    2    0    0 -0.21889470081E+02  0.22949695516E+02  0.32989666203E+01  0.31886056599E+02  0.00000000000E+00 0. -1.
         11    1    3    3    0    0 -0.86476919082E+01 -0.28414499770E+01  0.47457153996E+01  0.10265389823E+02  0.51100000000E-03 0. -1.
        -11    1    3    3    0    0  0.17166383441E+02 -0.27838928317E+02 -0.76393357584E+01  0.33586457112E+02  0.51100000000E-03 0.  1.
        -12    1    3    3    0    0  0.13370778548E+02  0.77306827777E+01 -0.40534626153E+00  0.15450096465E+02  0.00000000000E+00 0.  1.
</event>
<event>
 7    1  0.7457761E-012  0.5930198E+02  0.7816164E-02  0.1266605E+00
        -11   -1    0    0    0    0  0.00000000000E+00  0.00000000000E+00  0.45593999997E+02  0.45594000000E+02  0.51100000000E-03 0. -1.
         11   -1    0    0    0    0 -0.00000000000E+00 -0.00000000000E+00 -0.45593999997E+02  0.45594000000E+02  0.51100000000E-03 0.  1.
    9900012    2    1    2    0    0  0.31729893629E+02 -0.29320056648E+01 -0.11554939254E+01  0.59301984678E+02  0.50000074136E+02 0.  0.
         12    1    1    2    0    0 -0.31729893629E+02  0.29320056648E+01  0.11554939254E+01  0.31886015322E+02  0.00000000000E+00 0. -1.
         11    1    3    3    0    0 -0.48210826719E+01 -0.86006017123E+01 -0.29701679251E-01  0.98597195900E+01  0.51100000000E-03 0. -1.
        -11    1    3    3    0    0  0.42656404635E+02  0.32369048532E+01 -0.26218921027E-01  0.42779049745E+02  0.51100000000E-03 0.  1.
        -12    1    3    3    0    0 -0.61054283338E+01  0.24316911944E+01 -0.10995733251E+01  0.66632153426E+01  0.00000000000E+00 0.  1.
</event>
<event>
 7    1  0.7457761E-012  0.5930196E+02  0.7816164E-02  0.1266605E+00
        -11   -1    0    0    0    0  0.00000000000E+00  0.00000000000E+00  0.45593999997E+02  0.45594000000E+02  0.51100000000E-03 0.  1.
         11   -1    0    0    0    0 -0.00000000000E+00 -0.00000000000E+00 -0.45593999997E+02  0.45594000000E+02  0.51100000000E-03 0. -1.
    9900012    2    1    2    0    0 -0.20822683754E+02 -0.19339080792E+02  0.14461518442E+02  0.59301957281E+02  0.50000024171E+02 0.  0.
         12    1    1    2    0    0  0.20822683754E+02  0.19339080792E+02 -0.14461518442E+02  0.31886042719E+02  0.00000000000E+00 0. -1.
         11    1    3    3    0    0  0.58886054827E+01 -0.66878632551E+01  0.25166518785E+02  0.26697506578E+02  0.51100000000E-03 0. -1.
        -11    1    3    3    0    0 -0.99957479688E+01 -0.33952879500E+00 -0.42151839136E+01  0.10853480223E+02  0.51100000000E-03 0.  1.
         12    1    3    3    0    0 -0.16715541268E+02 -0.12311688742E+02 -0.64898164296E+01  0.21750970481E+02  0.00000000000E+00 0. -1.
</event>
<event>
 7    1  0.7457761E-012  0.5930195E+02  0.7816164E-02  0.1266605E+00
        -11   -1    0    0    0    0  0.00000000000E+00  0.00000000000E+00  0.45593999997E+02  0.45594000000E+02  0.51100000000E-03 0. -1.
         11   -1    0    0    0    0 -0.00000000000E+00 -0.00000000000E+00 -0.45593999997E+02  0.45594000000E+02  0.51100000000E-03 0.  1.
    9900012    2    1    2    0    0  0.58684950560E+01 -0.31297706938E+02  0.16537057672E+01  0.59301946049E+02  0.50000003687E+02 0.  0.
         12    1    1    2    0    0 -0.58684950560E+01  0.31297706938E+02 -0.16537057672E+01  0.31886053951E+02  0.00000000000E+00 0. -1.
         11    1    3    3    0    0  0.13777235957E+02 -0.27553345887E+01  0.14586866852E+02  0.20252920385E+02  0.51100000000E-03 0.  1.
        -11    1    3    3    0    0 -0.56095554531E+01 -0.39080843852E+01 -0.12565475697E+02  0.14304943750E+02  0.51100000000E-03 0. -1.
        -12    1    3    3    0    0 -0.22991854475E+01 -0.24634287964E+02 -0.36768538790E+00  0.24744081914E+02  0.00000000000E+00 0.  1.
</event>
<event>
 7    1  0.7457761E-012  0.5930195E+02  0.7816164E-02  0.1266605E+00
        -11   -1    0    0    0    0  0.00000000000E+00  0.00000000000E+00  0.45593999997E+02  0.45594000000E+02  0.51100000000E-03 0. -1.
         11   -1    0    0    0    0 -0.00000000000E+00 -0.00000000000E+00 -0.45593999997E+02  0.45594000000E+02  0.51100000000E-03 0.  1.
    9900012    2    1    2    0    0  0.38921724078E+01  0.29266173922E+02 -0.12044175240E+02  0.59301951337E+02  0.50000013331E+02 0.  0.
         12    1    1    2    0    0 -0.38921724078E+01 -0.29266173922E+02  0.12044175240E+02  0.31886048663E+02  0.00000000000E+00 0. -1.
         11    1    3    3    0    0 -0.79705882922E+01  0.22048056873E+02  0.31272801194E+01  0.23652208582E+02  0.51100000000E-03 0. -1.
        -11    1    3    3    0    0 -0.68518923126E+01 -0.19107239271E+01 -0.12864159000E+02  0.14699859905E+02  0.51100000000E-03 0.  1.
         12    1    3    3    0    0  0.18714653013E+02  0.91288409763E+01 -0.23072963597E+01  0.20949882850E+02  0.00000000000E+00 0. -1.
</event>
<event>
 7    1  0.7457761E-012  0.5930201E+02  0.7816164E-02  0.1266605E+00
        -11   -1    0    0    0    0  0.00000000000E+00  0.00000000000E+00  0.45593999997E+02  0.45594000000E+02  0.51100000000E-03 0.  1.
         11   -1    0    0    0    0 -0.00000000000E+00 -0.00000000000E+00 -0.45593999997E+02  0.45594000000E+02  0.51100000000E-03 0. -1.
    9900012    2    1    2    0    0 -0.17811900433E+02  0.95277182056E+01  0.24671342339E+02  0.59302010223E+02  0.50000120725E+02 0.  0.
         12    1    1    2    0    0  0.17811900433E+02 -0.95277182056E+01 -0.24671342339E+02  0.31885989777E+02  0.00000000000E+00 0. -1.
         11    1    3    3    0    0  0.82066266538E+01  0.56135157402E+01  0.21330889133E+02  0.23534381476E+02  0.51100000000E-03 0. -1.
        -11    1    3    3    0    0 -0.29688540485E+02  0.65204712700E+01  0.41457258931E+00  0.30398977818E+02  0.51100000000E-03 0.  1.
        -12    1    3    3    0    0  0.36700133974E+01 -0.26062688046E+01  0.29258806164E+01  0.53686509292E+01  0.00000000000E+00 0.  1.
</event>
<event>
 7    1  0.7457761E-012  0.5930194E+02  0.7816164E-02  0.1266605E+00
        -11   -1    0    0    0    0  0.00000000000E+00  0.00000000000E+00  0.45593999997E+02  0.45594000000E+02  0.51100000000E-03 0.  1.
         11   -1    0    0    0    0 -0.00000000000E+00 -0.00000000000E+00 -0.45593999997E+02  0.45594000000E+02  0.51100000000E-03 0. -1.
    9900012    2    1    2    0    0 -0.90694614090E+01 -0.13921650384E+02 -0.27214942031E+02  0.59301944279E+02  0.50000000458E+02 0.  0.
         12    1    1    2    0    0  0.90694614090E+01  0.13921650384E+02  0.27214942031E+02  0.31886055721E+02  0.00000000000E+00 0. -1.
         11    1    3    3    0    0  0.10422328001E+02 -0.51400976259E+01 -0.11692991404E+02  0.16485495831E+02  0.51100000000E-03 0. -1.
        -11    1    3    3    0    0 -0.17718154662E+02 -0.18798620991E+02 -0.20204118224E+01  0.25911449592E+02  0.51100000000E-03 0.  1.
        -12    1    3    3    0    0 -0.17736347482E+01  0.10017068232E+02 -0.13501538805E+02  0.16904998855E+02  0.00000000000E+00 0.  1.
</event>
<event>
 7    1  0.7668338E-012  0.5930193E+02  0.7816164E-02  0.1266605E+00
        -11   -1    0    0    0    0  0.00000000000E+00  0.00000000000E+00  0.45593999997E+02  0.45594000000E+02  0.51100000000E-03 0. -1.
         11   -1    0    0    0    0 -0.00000000000E+00 -0.00000000000E+00 -0.45593999997E+02  0.45594000000E+02  0.51100000000E-03 0.  1.
    9900012    2    1    2    0    0 -0.13873651100E+02 -0.27954335271E+02  0.65420667013E+01  0.59301926363E+02  0.49999967784E+02 0.  0.
         12    1    1    2    0    0  0.13873651100E+02  0.27954335271E+02 -0.65420667013E+01  0.31886073637E+02  0.00000000000E+00 0. -1.
         11    1    3    3    0    0  0.52060099477E+01  0.12189668194E+01 -0.10421314264E+02  0.11712907877E+02  0.51100000000E-03 0. -1.
        -11    1    3    3    0    0 -0.20309873505E+02 -0.60710629694E+01  0.99310069119E+01  0.23408837347E+02  0.51100000000E-03 0.  1.
        -12    1    3    3    0    0  0.12302124577E+01 -0.23102239121E+02  0.70323740538E+01  0.24180181139E+02  0.00000000000E+00 0.  1.
</event>
<event>
 7    1  0.7457761E-012  0.5930201E+02  0.7816164E-02  0.1266605E+00
        -11   -1    0    0    0    0  0.00000000000E+00  0.00000000000E+00  0.45593999997E+02  0.45594000000E+02  0.51100000000E-03 0. -1.
         11   -1    0    0    0    0 -0.00000000000E+00 -0.00000000000E+00 -0.45593999997E+02  0.45594000000E+02  0.51100000000E-03 0.  1.
    9900012    2    1    2    0    0 -0.27716668687E+02  0.57849484170E+01  0.14664145474E+02  0.59302007562E+02  0.50000115871E+02 0.  0.
         12    1    1    2    0    0  0.27716668687E+02 -0.57849484170E+01 -0.14664145474E+02  0.31885992438E+02  0.00000000000E+00 0. -1.
         11    1    3    3    0    0 -0.35292455220E+01  0.10041163922E+02  0.21098320615E+02  0.23630905186E+02  0.51100000000E-03 0. -1.
        -11    1    3    3    0    0 -0.27732766500E+02  0.14128948095E+01 -0.24240221848E+01  0.27874333952E+02  0.51100000000E-03 0.  1.
         12    1    3    3    0    0  0.35453433353E+01 -0.56691103149E+01 -0.40101529561E+01  0.77967684241E+01  0.00000000000E+00 0. -1.
</event>
<event>
 7    1  0.7457761E-012  0.5930195E+02  0.7816164E-02  0.1266605E+00
        -11   -1    0    0    0    0  0.00000000000E+00  0.00000000000E+00  0.45593999997E+02  0.45594000000E+02  0.51100000000E-03 0. -1.
         11   -1    0    0    0    0 -0.00000000000E+00 -0.00000000000E+00 -0.45593999997E+02  0.45594000000E+02  0.51100000000E-03 0.  1.
    9900012    2    1    2    0    0 -0.11907827367E+02 -0.23787129707E+02  0.17581134633E+02  0.59301949958E+02  0.50000010815E+02 0.  0.
         12    1    1    2    0    0  0.11907827367E+02  0.23787129707E+02 -0.17581134633E+02  0.31886050042E+02  0.00000000000E+00 0. -1.
         11    1    3    3    0    0  0.12010611412E+02 -0.47867379881E+01 -0.46957757885E+00  0.12937857258E+02  0.51100000000E-03 0. -1.
        -11    1    3    3    0    0 -0.99350584238E+01 -0.23109927378E+02  0.19343106440E+02  0.31732158709E+02  0.51100000000E-03 0.  1.
         12    1    3    3    0    0 -0.13983380355E+02  0.41095356584E+01 -0.12923942285E+01  0.14631933991E+02  0.00000000000E+00 0. -1.
</event>
<event>
 7    1  0.7457761E-012  0.5930185E+02  0.7816164E-02  0.1266605E+00
        -11   -1    0    0    0    0  0.00000000000E+00  0.00000000000E+00  0.45593999997E+02  0.45594000000E+02  0.51100000000E-03 0. -1.
         11   -1    0    0    0    0 -0.00000000000E+00 -0.00000000000E+00 -0.45593999997E+02  0.45594000000E+02  0.51100000000E-03 0.  1.
    9900012    2    1    2    0    0 -0.30111527408E+02 -0.10482849837E+02 -0.36395810363E+00  0.59301848005E+02  0.49999824877E+02 0.  0.
         12    1    1    2    0    0  0.30111527408E+02  0.10482849837E+02  0.36395810363E+00  0.31886151995E+02  0.00000000000E+00 0. -1.
         11    1    3    3    0    0 -0.13228100148E+02 -0.20116224272E+00  0.19442469691E+02  0.23516647884E+02  0.51100000000E-03 0. -1.
        -11    1    3    3    0    0 -0.15104911514E+02 -0.16628458717E+02 -0.18416998249E+02  0.29049093203E+02  0.51100000000E-03 0.  1.
        -12    1    3    3    0    0 -0.17785157458E+01  0.63467711225E+01 -0.13894295453E+01  0.67361069173E+01  0.00000000000E+00 0.  1.
</event>
<event>
 7    1  0.7457761E-012  0.5930188E+02  0.7816164E-02  0.1266605E+00
        -11   -1    0    0    0    0  0.00000000000E+00  0.00000000000E+00  0.45593999997E+02  0.45594000000E+02  0.51100000000E-03 0.  1.
         11   -1    0    0    0    0 -0.00000000000E+00 -0.00000000000E+00 -0.45593999997E+02  0.45594000000E+02  0.51100000000E-03 0. -1.
    9900012    2    1    2    0    0  0.85086815917E+01 -0.30722821918E+02 -0.65960596129E+00  0.59301881875E+02  0.49999886648E+02 0.  0.
         12    1    1    2    0    0 -0.85086815917E+01  0.30722821918E+02  0.65960596129E+00  0.31886118125E+02  0.00000000000E+00 0. -1.
         11    1    3    3    0    0  0.10024006799E+02 -0.56479303706E+01 -0.17677450235E+02  0.21091990822E+02  0.51100000000E-03 0. -1.
        -11    1    3    3    0    0 -0.13985475023E+01 -0.89220388163E+01  0.19852206695E+02  0.21809833165E+02  0.51100000000E-03 0.  1.
        -12    1    3    3    0    0 -0.11677770507E+00 -0.16152852731E+02 -0.28343624215E+01  0.16400057888E+02  0.00000000000E+00 0.  1.
</event>
<event>
 7    1  0.7457761E-012  0.5930194E+02  0.7816164E-02  0.1266605E+00
        -11   -1    0    0    0    0  0.00000000000E+00  0.00000000000E+00  0.45593999997E+02  0.45594000000E+02  0.51100000000E-03 0.  1.
         11   -1    0    0    0    0 -0.00000000000E+00 -0.00000000000E+00 -0.45593999997E+02  0.45594000000E+02  0.51100000000E-03 0. -1.
    9900012    2    1    2    0    0 -0.51503236005E+00  0.20715416833E+02  0.24234836548E+02  0.59301936345E+02  0.49999985989E+02 0.  0.
         12    1    1    2    0    0  0.51503236005E+00 -0.20715416833E+02 -0.24234836548E+02  0.31886063655E+02  0.00000000000E+00 0. -1.
         11    1    3    3    0    0  0.30508947066E+01  0.30241401800E+02  0.10234910425E+02  0.32071852660E+02  0.51100000000E-03 0. -1.
        -11    1    3    3    0    0 -0.52384087779E+01 -0.75682933775E+00  0.17005781607E+02  0.17810399364E+02  0.51100000000E-03 0.  1.
         12    1    3    3    0    0  0.16724817112E+01 -0.87691556290E+01 -0.30058554846E+01  0.94196843214E+01  0.00000000000E+00 0. -1.
</event>
<event>
 7    1  0.7457761E-012  0.5930210E+02  0.7816164E-02  0.1266604E+00
        -11   -1    0    0    0    0  0.00000000000E+00  0.00000000000E+00  0.45593999997E+02  0.45594000000E+02  0.51100000000E-03 0. -1.
         11   -1    0    0    0    0 -0.00000000000E+00 -0.00000000000E+00 -0.45593999997E+02  0.45594000000E+02  0.51100000000E-03 0.  1.
    9900012    2    1    2    0    0  0.17115391611E+01  0.29400423642E+02 -0.12222785845E+02  0.59302097622E+02  0.50000280119E+02 0.  0.
         12    1    1    2    0    0 -0.17115391611E+01 -0.29400423642E+02  0.12222785845E+02  0.31885902378E+02  0.00000000000E+00 0. -1.
         11    1    3    3    0    0 -0.18562020007E+02  0.23276052826E+02 -0.89948256605E+01  0.31100323323E+02  0.51100000000E-03 0. -1.
        -11    1    3    3    0    0  0.10446947408E+02  0.11883810105E+02  0.14485466701E+01  0.15889050962E+02  0.51100000000E-03 0.  1.
         12    1    3    3    0    0  0.98266117604E+01 -0.57594392890E+01 -0.46765068545E+01  0.12312723337E+02  0.00000000000E+00 0. -1.
</event>
<event>
 7    1  0.7457761E-012  0.5930192E+02  0.7816164E-02  0.1266605E+00
        -11   -1    0    0    0    0  0.00000000000E+00  0.00000000000E+00  0.45593999997E+02  0.45594000000E+02  0.51100000000E-03 0. -1.
         11   -1    0    0    0    0 -0.00000000000E+00 -0.00000000000E+00 -0.45593999997E+02  0.45594000000E+02  0.51100000000E-03 0.  1.
    9900012    2    1    2    0    0 -0.30284233050E+02 -0.62928745201E+01  0.77451156792E+01  0.59301923759E+02  0.49999963035E+02 0.  0.
         12    1    1    2    0    0  0.30284233050E+02  0.62928745201E+01 -0.77451156792E+01  0.31886076241E+02  0.00000000000E+00 0. -1.
         11    1    3    3    0    0 -0.21976290157E+02  0.18526308191E+02  0.14271270548E+02  0.32091285227E+02  0.51100000000E-03 0. -1.
        -11    1    3    3    0    0 -0.32940409382E+01 -0.54620055719E+01 -0.22410503808E+01  0.67606595566E+01  0.51100000000E-03 0.  1.
         12    1    3    3    0    0 -0.50139019552E+01 -0.19357177139E+02 -0.42851044884E+01  0.20449978975E+02  0.00000000000E+00 0. -1.
</event>
<event>
 7    1  0.7457761E-012  0.5930185E+02  0.7816164E-02  0.1266605E+00
        -11   -1    0    0    0    0  0.00000000000E+00  0.00000000000E+00  0.45593999997E+02  0.45594000000E+02  0.51100000000E-03 0. -1.
         11   -1    0    0    0    0 -0.00000000000E+00 -0.00000000000E+00 -0.45593999997E+02  0.45594000000E+02  0.51100000000E-03 0.  1.
    9900012    2    1    2    0    0 -0.16853115988E+02  0.20448509467E+02 -0.17735775350E+02  0.59301846498E+02  0.49999822128E+02 0.  0.
         12    1    1    2    0    0  0.16853115988E+02 -0.20448509467E+02  0.17735775350E+02  0.31886153502E+02  0.00000000000E+00 0. -1.
         11    1    3    3    0    0  0.95605290419E+01  0.21886950200E+01  0.48482357136E+00  0.98198348055E+01  0.51100000000E-03 0. -1.
        -11    1    3    3    0    0 -0.14858130396E+02  0.49937982731E+01 -0.25909523817E+02  0.30282098420E+02  0.51100000000E-03 0.  1.
        -12    1    3    3    0    0 -0.11555514634E+02  0.13266016173E+02  0.76889248961E+01  0.19199913272E+02  0.00000000000E+00 0.  1.
</event>
<event>
 7    1  0.7457761E-012  0.5930194E+02  0.7816164E-02  0.1266605E+00
        -11   -1    0    0    0    0  0.00000000000E+00  0.00000000000E+00  0.45593999997E+02  0.45594000000E+02  0.51100000000E-03 0.  1.
         11   -1    0    0    0    0 -0.00000000000E+00 -0.00000000000E+00 -0.45593999997E+02  0.45594000000E+02  0.51100000000E-03 0. -1.
    9900012    2    1    2    0    0  0.58983143761E+01  0.24071265322E+02  0.20062527179E+02  0.59301938414E+02  0.49999989762E+02 0.  0.
         12    1    1    2    0    0 -0.58983143761E+01 -0.24071265322E+02 -0.20062527179E+02  0.31886061586E+02  0.00000000000E+00 0. -1.
         11    1    3    3    0    0  0.12898380336E+02  0.30254028729E+02  0.75626590770E+01  0.33747122577E+02  0.51100000000E-03 0. -1.
        -11    1    3    3    0    0 -0.24529124718E+01 -0.81478379531E+01  0.16905074323E+02  0.18925791424E+02  0.51100000000E-03 0.  1.
        -12    1    3    3    0    0 -0.45471534880E+01  0.19650745458E+01 -0.44052062213E+01  0.66290244129E+01  0.00000000000E+00 0.  1.
</event>
<event>
 7    1  0.7457761E-012  0.5930190E+02  0.7816164E-02  0.1266605E+00
        -11   -1    0    0    0    0  0.00000000000E+00  0.00000000000E+00  0.45593999997E+02  0.45594000000E+02  0.51100000000E-03 0. -1.
         11   -1    0    0    0    0 -0.00000000000E+00 -0.00000000000E+00 -0.45593999997E+02  0.45594000000E+02  0.51100000000E-03 0.  1.
    9900012    2    1    2    0    0  0.30749483212E+02  0.25660647480E+01 -0.80379232592E+01  0.59301896186E+02  0.49999912748E+02 0.  0.
         12    1    1    2    0    0 -0.30749483212E+02 -0.25660647480E+01  0.80379232592E+01  0.31886103814E+02  0.00000000000E+00 0. -1.
         11    1    3    3    0    0 -0.65513809010E+01 -0.66239177555E+01 -0.12082474031E+02  0.15257229667E+02  0.51100000000E-03 0. -1.
        -11    1    3    3    0    0  0.35235783472E+02  0.86893448478E+01 -0.32598148787E+01  0.36437501891E+02  0.51100000000E-03 0.  1.
         12    1    3    3    0    0  0.20650806416E+01  0.50063765569E+00  0.73043656505E+01  0.76071646278E+01  0.00000000000E+00 0. -1.
</event>
<event>
 7    1  0.7457761E-012  0.5930193E+02  0.7816164E-02  0.1266605E+00
        -11   -1    0    0    0    0  0.00000000000E+00  0.00000000000E+00  0.45593999997E+02  0.45594000000E+02  0.51100000000E-03 0.  1.
         11   -1    0    0    0    0 -0.00000000000E+00 -0.00000000000E+00 -0.45593999997E+02  0.45594000000E+02  0.51100000000E-03 0. -1.
    9900012    2    1    2    0    0 -0.11529358846E+02  0.29483747941E+02 -0.38084052683E+01  0.59301930020E+02  0.49999974454E+02 0.  0.
         12    1    1    2    0    0  0.11529358846E+02 -0.29483747941E+02  0.38084052683E+01  0.31886069980E+02  0.00000000000E+00 0. -1.
         11    1    3    3    0    0 -0.86352120091E+01  0.27245414462E+02 -0.87107491794E+01  0.29879033572E+02  0.51100000000E-03 0. -1.
        -11    1    3    3    0    0 -0.14636824434E+01  0.62292014758E+01  0.16166789314E+02  0.17387075496E+02  0.51100000000E-03 0.  1.
         12    1    3    3    0    0 -0.14304643938E+01 -0.39908679969E+01 -0.11264445403E+02  0.12035820952E+02  0.00000000000E+00 0. -1.
</event>
<event>
 7    1  0.7457761E-012  0.5930196E+02  0.7816164E-02  0.1266605E+00
        -11   -1    0    0    0    0  0.00000000000E+00  0.00000000000E+00  0.45593999997E+02  0.45594000000E+02  0.51100000000E-03 0.  1.
         11   -1    0    0    0    0 -0.00000000000E+00 -0.00000000000E+00 -0.45593999997E+02  0.45594000000E+02  0.51100000000E-03 0. -1.
    9900012    2    1    2    0    0 -0.26161540005E+02 -0.13862301496E+02  0.11837662870E+02  0.59301955397E+02  0.50000020734E+02 0.  0.
         12    1    1    2    0    0  0.26161540005E+02  0.13862301496E+02 -0.11837662870E+02  0.31886044603E+02  0.00000000000E+00 0. -1.
         11    1    3    3    0    0 -0.15140489447E+02 -0.19985751837E+02  0.20412515294E+02  0.32331648242E+02  0.51100000000E-03 0.  1.
        -11    1    3    3    0    0  0.67636534713E+01  0.91149357169E+00 -0.38863637441E+01  0.78537667539E+01  0.51100000000E-03 0. -1.
        -12    1    3    3    0    0 -0.17784704030E+02  0.52119567688E+01 -0.46884886799E+01  0.19116540401E+02  0.00000000000E+00 0.  1.
</event>
<event>
 7    1  0.7457761E-012  0.5930194E+02  0.7816164E-02  0.1266605E+00
        -11   -1    0    0    0    0  0.00000000000E+00  0.00000000000E+00  0.45593999997E+02  0.45594000000E+02  0.51100000000E-03 0.  1.
         11   -1    0    0    0    0 -0.00000000000E+00 -0.00000000000E+00 -0.45593999997E+02  0.45594000000E+02  0.51100000000E-03 0. -1.
    9900012    2    1    2    0    0 -0.12338030154E+02  0.20942232502E+02  0.20637742860E+02  0.59301944731E+02  0.50000001283E+02 0.  0.
         12    1    1    2    0    0  0.12338030154E+02 -0.20942232502E+02 -0.20637742860E+02  0.31886055269E+02  0.00000000000E+00 0. -1.
         11    1    3    3    0    0 -0.15709309202E+02 -0.75309928347E+01  0.28525433090E+01  0.17653193826E+02  0.51100000000E-03 0. -1.
        -11    1    3    3    0    0  0.97170737571E+01  0.28774094060E+02  0.17978275491E+02  0.35292894487E+02  0.51100000000E-03 0.  1.
        -12    1    3    3    0    0 -0.63457947095E+01 -0.30086872364E+00 -0.19307594002E+00  0.63558564177E+01  0.00000000000E+00 0.  1.
</event>
<event>
 7    1  0.7457761E-012  0.5930202E+02  0.7816164E-02  0.1266605E+00
        -11   -1    0    0    0    0  0.00000000000E+00  0.00000000000E+00  0.45593999997E+02  0.45594000000E+02  0.51100000000E-03 0. -1.
         11   -1    0    0    0    0 -0.00000000000E+00 -0.00000000000E+00 -0.45593999997E+02  0.45594000000E+02  0.51100000000E-03 0.  1.
    9900012    2    1    2    0    0  0.27646705332E+02 -0.14997669766E+02 -0.52388354697E+01  0.59302018579E+02  0.50000135963E+02 0.  0.
         12    1    1    2    0    0 -0.27646705332E+02  0.14997669766E+02  0.52388354697E+01  0.31885981421E+02  0.00000000000E+00 0. -1.
         11    1    3    3    0    0 -0.25771703724E+01  0.71591450913E+00  0.34120280279E+01  0.43354672455E+01  0.51100000000E-03 0. -1.
        -11    1    3    3    0    0  0.25198127091E+02 -0.29944432821E+02 -0.51462016166E+01  0.39472750819E+02  0.51100000000E-03 0.  1.
        -12    1    3    3    0    0  0.50257486132E+01  0.14230848546E+02 -0.35046618810E+01  0.15493800514E+02  0.00000000000E+00 0.  1.
</event>
<event>
 7    1  0.7457761E-012  0.5930195E+02  0.7816164E-02  0.1266605E+00
        -11   -1    0    0    0    0  0.00000000000E+00  0.00000000000E+00  0.45593999997E+02  0.45594000000E+02  0.51100000000E-03 0.  1.
         11   -1    0    0    0    0 -0.00000000000E+00 -0.00000000000E+00 -0.45593999997E+02  0.45594000000E+02  0.51100000000E-03 0. -1.
    9900012    2    1    2    0    0  0.17767001505E+02  0.23028448529E+02  0.13066927553E+02  0.59301946939E+02  0.50000005310E+02 0.  0.
         12    1    1    2    0    0 -0.17767001505E+02 -0.23028448529E+02 -0.13066927553E+02  0.31886053061E+02  0.00000000000E+00 0. -1.
         11    1    3    3    0    0 -0.78293709158E+00  0.58530441214E+01  0.43559876937E+01  0.73379660006E+01  0.51100000000E-03 0. -1.
        -11    1    3    3    0    0  0.24845707158E+02  0.25308853795E+01  0.20359059406E+02  0.32221201796E+02  0.51100000000E-03 0.  1.
        -12    1    3    3    0    0 -0.62957685620E+01  0.14644519028E+02 -0.11648119546E+02  0.19742779143E+02  0.00000000000E+00 0.  1.
</event>
<event>
 7    1  0.7457761E-012  0.5930207E+02  0.7816164E-02  0.1266604E+00
        -11   -1    0    0    0    0  0.00000000000E+00  0.00000000000E+00  0.45593999997E+02  0.45594000000E+02  0.51100000000E-03 0.  1.
         11   -1    0    0    0    0 -0.00000000000E+00 -0.00000000000E+00 -0.45593999997E+02  0.45594000000E+02  0.51100000000E-03 0. -1.
    9900012    2    1    2    0    0 -0.97159416196E+01 -0.13694966900E+02  0.27106475248E+02  0.59302068301E+02  0.50000226643E+02 0.  0.
         12    1    1    2    0    0  0.97159416196E+01  0.13694966900E+02 -0.27106475248E+02  0.31885931699E+02  0.00000000000E+00 0. -1.
         11    1    3    3    0    0 -0.25368881256E+02 -0.16783912637E+02  0.15534565507E+02  0.34155564485E+02  0.51100000000E-03 0.  1.
        -11    1    3    3    0    0  0.13721005355E+02 -0.26439278922E+01  0.24284314792E+01  0.14182863687E+02  0.51100000000E-03 0. -1.
        -12    1    3    3    0    0  0.19319342809E+01  0.57328736294E+01  0.91434782627E+01  0.10963640128E+02  0.00000000000E+00 0.  1.
</event>
<event>
 7    1  0.7457761E-012  0.5930202E+02  0.7816164E-02  0.1266605E+00
        -11   -1    0    0    0    0  0.00000000000E+00  0.00000000000E+00  0.45593999997E+02  0.45594000000E+02  0.51100000000E-03 0.  1.
         11   -1    0    0    0    0 -0.00000000000E+00 -0.00000000000E+00 -0.45593999997E+02  0.45594000000E+02  0.51100000000E-03 0. -1.
    9900012    2    1    2    0    0 -0.11789845523E+02  0.18521191375E+02 -0.23123170675E+02  0.59302015469E+02  0.50000130292E+02 0.  0.
         12    1    1    2    0    0  0.11789845523E+02 -0.18521191375E+02  0.23123170675E+02  0.31885984531E+02  0.00000000000E+00 0. -1.
         11    1    3    3    0    0  0.11964958105E+02  0.71843203474E+01 -0.16065520613E+02  0.21280874844E+02  0.51100000000E-03 0. -1.
        -11    1    3    3    0    0 -0.14871818674E+02 -0.49496562724E+01 -0.10879998423E+02  0.19079949000E+02  0.51100000000E-03 0.  1.
        -12    1    3    3    0    0 -0.88829849542E+01  0.16286527300E+02  0.38223483609E+01  0.18941191626E+02  0.00000000000E+00 0.  1.
</event>
<event>
 7    1  0.7457761E-012  0.5930196E+02  0.7816164E-02  0.1266605E+00
        -11   -1    0    0    0    0  0.00000000000E+00  0.00000000000E+00  0.45593999997E+02  0.45594000000E+02  0.51100000000E-03 0.  1.
         11   -1    0    0    0    0 -0.00000000000E+00 -0.00000000000E+00 -0.45593999997E+02  0.45594000000E+02  0.51100000000E-03 0. -1.
    9900012    2    1    2    0    0  0.29475605027E+02 -0.43621422956E+01  0.11352543365E+02  0.59301955749E+02  0.50000021377E+02 0.  0.
         12    1    1    2    0    0 -0.29475605027E+02  0.43621422956E+01 -0.11352543365E+02  0.31886044251E+02  0.00000000000E+00 0. -1.
         11    1    3    3    0    0 -0.47325199291E+01  0.10730559997E+01 -0.10896301736E+02  0.11928016844E+02  0.51100000000E-03 0. -1.
        -11    1    3    3    0    0  0.13170126427E+02  0.61140910467E+01  0.17790307886E+02  0.22963653768E+02  0.51100000000E-03 0.  1.
         12    1    3    3    0    0  0.21037998528E+02 -0.11549289342E+02  0.44585372152E+01  0.24410285137E+02  0.00000000000E+00 0. -1.
</event>
<event>
 7    1  0.7457761E-012  0.5930195E+02  0.7816164E-02  0.1266605E+00
        -11   -1    0    0    0    0  0.00000000000E+00  0.00000000000E+00  0.45593999997E+02  0.45594000000E+02  0.51100000000E-03 0. -1.
         11   -1    0    0    0    0 -0.00000000000E+00 -0.00000000000E+00 -0.45593999997E+02  0.45594000000E+02  0.51100000000E-03 0.  1.
    9900012    2    1    2    0    0  0.39200156644E+01 -0.30860355786E+02 -0.69994265077E+01  0.59301952056E+02  0.50000014641E+02 0.  0.
         12    1    1    2    0    0 -0.39200156644E+01  0.30860355786E+02  0.69994265077E+01  0.31886047944E+02  0.00000000000E+00 0. -1.
         11    1    3    3    0    0 -0.11412064550E+01  0.25152837233E+01 -0.59258294586E+01  0.65379247024E+01  0.51100000000E-03 0. -1.
        -11    1    3    3    0    0 -0.23305114981E+01 -0.40109839066E+02 -0.75084805380E+01  0.40873068811E+02  0.51100000000E-03 0.  1.
        -12    1    3    3    0    0  0.73917336175E+01  0.67341995568E+01  0.64348834888E+01  0.11890958542E+02  0.00000000000E+00 0.  1.
</event>
<event>
 7    1  0.7457761E-012  0.5930194E+02  0.7816164E-02  0.1266605E+00
        -11   -1    0    0    0    0  0.00000000000E+00  0.00000000000E+00  0.45593999997E+02  0.45594000000E+02  0.51100000000E-03 0.  1.
         11   -1    0    0    0    0 -0.00000000000E+00 -0.00000000000E+00 -0.45593999997E+02  0.45594000000E+02  0.51100000000E-03 0. -1.
    9900012    2    1    2    0    0 -0.20166307733E+02 -0.21138262686E+02  0.12775557492E+02  0.59301937430E+02  0.49999987968E+02 0.  0.
         12    1    1    2    0    0  0.20166307733E+02  0.21138262686E+02 -0.12775557492E+02  0.31886062570E+02  0.00000000000E+00 0. -1.
         11    1    3    3    0    0 -0.25859518446E+02 -0.42936880267E+01  0.24770587734E+00  0.26214725053E+02  0.51100000000E-03 0. -1.
        -11    1    3    3    0    0  0.60238873180E+01 -0.11183494824E+02  0.20008479742E+02  0.23700148454E+02  0.51100000000E-03 0.  1.
         12    1    3    3    0    0 -0.33067660553E+00 -0.56610798355E+01 -0.74806281277E+01  0.93870639236E+01  0.00000000000E+00 0. -1.
</event>
<event>
 7    1  0.7457761E-012  0.5930192E+02  0.7816164E-02  0.1266605E+00
        -11   -1    0    0    0    0  0.00000000000E+00  0.00000000000E+00  0.45593999997E+02  0.45594000000E+02  0.51100000000E-03 0. -1.
         11   -1    0    0    0    0 -0.00000000000E+00 -0.00000000000E+00 -0.45593999997E+02  0.45594000000E+02  0.51100000000E-03 0.  1.
    9900012    2    1    2    0    0 -0.14866794022E+02  0.15569235656E+02 -0.23522319517E+02  0.59301918728E+02  0.49999953860E+02 0.  0.
         12    1    1    2    0    0  0.14866794022E+02 -0.15569235656E+02  0.23522319517E+02  0.31886081272E+02  0.00000000000E+00 0. -1.
         11    1    3    3    0    0 -0.20981843962E+02 -0.59851644041E+01 -0.14588030975E+02  0.26246344831E+02  0.51100000000E-03 0.  1.
        -11    1    3    3    0    0 -0.52030695743E+01  0.19664119942E+02 -0.53218615299E+01  0.21025502526E+02  0.51100000000E-03 0. -1.
         12    1    3    3    0    0  0.11318119515E+02  0.18902801181E+01 -0.36124270126E+01  0.12030071371E+02  0.00000000000E+00 0. -1.
</event>
<event>
 7    1  0.7457761E-012  0.5930194E+02  0.7816164E-02  0.1266605E+00
        -11   -1    0    0    0    0  0.00000000000E+00  0.00000000000E+00  0.45593999997E+02  0.45594000000E+02  0.51100000000E-03 0.  1.
         11   -1    0    0    0    0 -0.00000000000E+00 -0.00000000000E+00 -0.45593999997E+02  0.45594000000E+02  0.51100000000E-03 0. -1.
    9900012    2    1    2    0    0 -0.30234275453E+02  0.22099117945E+01 -0.98856161269E+01  0.59301944607E+02  0.50000001057E+02 0.  0.
         12    1    1    2    0    0  0.30234275453E+02 -0.22099117945E+01  0.98856161269E+01  0.31886055393E+02  0.00000000000E+00 0. -1.
         11    1    3    3    0    0  0.70031101681E+01 -0.11671226689E+02 -0.42318656095E+01  0.14253763407E+02  0.51100000000E-03 0. -1.
        -11    1    3    3    0    0 -0.35457104054E+02  0.11576273340E+02 -0.11062702382E+02  0.38905008888E+02  0.51100000000E-03 0.  1.
         12    1    3    3    0    0 -0.17802815670E+01  0.23048651443E+01  0.54089518642E+01  0.61431723125E+01  0.00000000000E+00 0. -1.
</event>
<event>
 7    1  0.7457761E-012  0.5930194E+02  0.7816164E-02  0.1266605E+00
        -11   -1    0    0    0    0  0.00000000000E+00  0.00000000000E+00  0.45593999997E+02  0.45594000000E+02  0.51100000000E-03 0. -1.
         11   -1    0    0    0    0 -0.00000000000E+00 -0.00000000000E+00 -0.45593999997E+02  0.45594000000E+02  0.51100000000E-03 0.  1.
    9900012    2    1    2    0    0  0.20306905534E+02 -0.16462402261E+02 -0.18257594189E+02  0.59301939627E+02  0.49999991974E+02 0.  0.
         12    1    1    2    0    0 -0.20306905534E+02  0.16462402261E+02  0.18257594189E+02  0.31886060373E+02  0.00000000000E+00 0. -1.
         11    1    3    3    0    0  0.84658837082E+01 -0.21156916429E+02  0.12502540196E+02  0.25992302925E+02  0.51100000000E-03 0. -1.
        -11    1    3    3    0    0  0.63812278533E+01  0.28587553964E+01 -0.17960489581E+02  0.19273602091E+02  0.51100000000E-03 0.  1.
         12    1    3    3    0    0  0.54597939722E+01  0.18357587713E+01 -0.12799644804E+02  0.14036034611E+02  0.00000000000E+00 0. -1.
</event>
<event>
 7    1  0.7457761E-012  0.5930195E+02  0.7816164E-02  0.1266605E+00
        -11   -1    0    0    0    0  0.00000000000E+00  0.00000000000E+00  0.45593999997E+02  0.45594000000E+02  0.51100000000E-03 0.  1.
         11   -1    0    0    0    0 -0.00000000000E+00 -0.00000000000E+00 -0.45593999997E+02  0.45594000000E+02  0.51100000000E-03 0. -1.
    9900012    2    1    2    0    0  0.12217872522E+02  0.99211869679E+01  0.27731101410E+02  0.59301947481E+02  0.50000006299E+02 0.  0.
         12    1    1    2    0    0 -0.12217872522E+02 -0.99211869679E+01 -0.27731101410E+02  0.31886052519E+02  0.00000000000E+00 0. -1.
         11    1    3    3    0    0  0.29709557554E+02  0.67686595829E+01  0.12969619531E+02  0.33116213456E+02  0.51100000000E-03 0. -1.
        -11    1    3    3    0    0 -0.87814376180E+01  0.73792119092E+01  0.52534610413E+01  0.12616071822E+02  0.51100000000E-03 0.  1.
         12    1    3    3    0    0 -0.87102474140E+01 -0.42266845241E+01  0.95080208378E+01  0.13569662204E+02  0.00000000000E+00 0. -1.
</event>
<event>
 7    1  0.7457761E-012  0.5930193E+02  0.7816164E-02  0.1266605E+00
        -11   -1    0    0    0    0  0.00000000000E+00  0.00000000000E+00  0.45593999997E+02  0.45594000000E+02  0.51100000000E-03 0.  1.
         11   -1    0    0    0    0 -0.00000000000E+00 -0.00000000000E+00 -0.45593999997E+02  0.45594000000E+02  0.51100000000E-03 0. -1.
    9900012    2    1    2    0    0 -0.12719930272E+02 -0.94547105628E+01  0.27668271290E+02  0.59301930720E+02  0.49999975730E+02 0.  0.
         12    1    1    2    0    0  0.12719930272E+02  0.94547105628E+01 -0.27668271290E+02  0.31886069280E+02  0.00000000000E+00 0. -1.
         11    1    3    3    0    0 -0.50344501176E+01  0.17362206933E+02  0.12029036857E+02  0.21713812322E+02  0.51100000000E-03 0. -1.
        -11    1    3    3    0    0 -0.14017224696E+02 -0.18260266806E+02  0.75768339146E+01  0.24234858044E+02  0.51100000000E-03 0.  1.
         12    1    3    3    0    0  0.63317445416E+01 -0.85566506898E+01  0.80624005180E+01  0.13353260354E+02  0.00000000000E+00 0. -1.
</event>
<event>
 7    1  0.7457761E-012  0.5930193E+02  0.7816164E-02  0.1266605E+00
        -11   -1    0    0    0    0  0.00000000000E+00  0.00000000000E+00  0.45593999997E+02  0.45594000000E+02  0.51100000000E-03 0.  1.
         11   -1    0    0    0    0 -0.00000000000E+00 -0.00000000000E+00 -0.45593999997E+02  0.45594000000E+02  0.51100000000E-03 0. -1.
    9900012    2    1    2    0    0  0.15789668675E+02 -0.61588339100E+01  0.27008823347E+02  0.59301930776E+02  0.49999975831E+02 0.  0.
         12    1    1    2    0    0 -0.15789668675E+02  0.61588339100E+01 -0.27008823347E+02  0.31886069224E+02  0.00000000000E+00 0. -1.
         11    1    3    3    0    0  0.23384503148E+02  0.64797499949E+01  0.66958214468E+01  0.25172528132E+02  0.51100000000E-03 0. -1.
        -11    1    3    3    0    0 -0.69652982070E+01 -0.18794447507E+02  0.10764903837E+02  0.22751478877E+02  0.51100000000E-03 0.  1.
         12    1    3    3    0    0 -0.62953626582E+00  0.61558636024E+01  0.95480980630E+01  0.11377923766E+02  0.00000000000E+00 0. -1.
</event>
<event>
 7    1  0.7457761E-012  0.5930193E+02  0.7816164E-02  0.1266605E+00
        -11   -1    0    0    0    0  0.00000000000E+00  0.00000000000E+00  0.45593999997E+02  0.45594000000E+02  0.51100000000E-03 0.  1.
         11   -1    0    0    0    0 -0.00000000000E+00 -0.00000000000E+00 -0.45593999997E+02  0.45594000000E+02  0.51100000000E-03 0. -1.
    9900012    2    1    2    0    0 -0.14228026151E+02  0.19366356187E+02  0.20957783970E+02  0.59301934249E+02  0.49999982166E+02 0.  0.
         12    1    1    2    0    0  0.14228026151E+02 -0.19366356187E+02 -0.20957783970E+02  0.31886065751E+02  0.00000000000E+00 0. -1.
         11    1    3    3    0    0 -0.45404292659E+01 -0.61052172834E+00 -0.37111780969E+01  0.58958525955E+01  0.51100000000E-03 0. -1.
        -11    1    3    3    0    0  0.18793596888E+01 -0.40334467038E+01  0.26329749447E+02  0.26703115762E+02  0.51100000000E-03 0.  1.
        -12    1    3    3    0    0 -0.11566956574E+02  0.24010324619E+02 -0.16607873802E+01  0.26702965892E+02  0.00000000000E+00 0.  1.
</event>
<event>
 7    1  0.7457761E-012  0.5930198E+02  0.7816164E-02  0.1266605E+00
        -11   -1    0    0    0    0  0.00000000000E+00  0.00000000000E+00  0.45593999997E+02  0.45594000000E+02  0.51100000000E-03 0.  1.
         11   -1    0    0    0    0 -0.00000000000E+00 -0.00000000000E+00 -0.45593999997E+02  0.45594000000E+02  0.51100000000E-03 0. -1.
    9900012    2    1    2    0    0 -0.12584352480E+02  0.29104151328E+02  0.33616656638E+01  0.59301978801E+02  0.50000063418E+02 0.  0.
         12    1    1    2    0    0  0.12584352480E+02 -0.29104151328E+02 -0.33616656638E+01  0.31886021199E+02  0.00000000000E+00 0. -1.
         11    1    3    3    0    0 -0.21160415765E+01 -0.10680659666E+02 -0.96494525312E+01  0.14548747618E+02  0.51100000000E-03 0. -1.
        -11    1    3    3    0    0 -0.84335459221E+01  0.15554212443E+02  0.98001700359E+01  0.20226259034E+02  0.51100000000E-03 0.  1.
         12    1    3    3    0    0 -0.20347649812E+01  0.24230598551E+02  0.32109481590E+01  0.24526972148E+02  0.00000000000E+00 0. -1.
</event>
<event>
 7    1  0.7457761E-012  0.5930195E+02  0.7816164E-02  0.1266605E+00
        -11   -1    0    0    0    0  0.00000000000E+00  0.00000000000E+00  0.45593999997E+02  0.45594000000E+02  0.51100000000E-03 0. -1.
         11   -1    0    0    0    0 -0.00000000000E+00 -0.00000000000E+00 -0.45593999997E+02  0.45594000000E+02  0.51100000000E-03 0.  1.
    9900012    2    1    2    0    0  0.11659299707E+02  0.14508447264E+01 -0.29642465473E+02  0.59301953218E+02  0.50000016761E+02 0.  0.
         12    1    1    2    0    0 -0.11659299707E+02 -0.14508447264E+01  0.29642465473E+02  0.31886046782E+02  0.00000000000E+00 0. -1.
         11    1    3    3    0    0  0.91758664774E+01 -0.66320073181E+01  0.10647947972E+02  0.15542163394E+02  0.51100000000E-03 0. -1.
        -11    1    3    3    0    0 -0.38742056984E+01  0.88576915202E+00 -0.27393945253E+02  0.27680720611E+02  0.51100000000E-03 0.  1.
         12    1    3    3    0    0  0.63576389284E+01  0.71970828925E+01 -0.12896468192E+02  0.16079069212E+02  0.00000000000E+00 0. -1.
</event>
<event>
 7    1  0.7457761E-012  0.5930193E+02  0.7816164E-02  0.1266605E+00
        -11   -1    0    0    0    0  0.00000000000E+00  0.00000000000E+00  0.45593999997E+02  0.45594000000E+02  0.51100000000E-03 0.  1.
         11   -1    0    0    0    0 -0.00000000000E+00 -0.00000000000E+00 -0.45593999997E+02  0.45594000000E+02  0.51100000000E-03 0. -1.
    9900012    2    1    2    0    0 -0.58701915572E+00 -0.33839462866E+01  0.31700565698E+02  0.59301928597E+02  0.49999971857E+02 0.  0.
         12    1    1    2    0    0  0.58701915572E+00  0.33839462866E+01 -0.31700565698E+02  0.31886071403E+02  0.00000000000E+00 0. -1.
         11    1    3    3    0    0  0.22485029241E+02 -0.11677592395E+02  0.16920735194E+02  0.30467260853E+02  0.51100000000E-03 0. -1.
        -11    1    3    3    0    0 -0.15813994710E+02  0.61245337089E+01  0.83708363840E+01  0.18911986778E+02  0.51100000000E-03 0.  1.
         12    1    3    3    0    0 -0.72580536862E+01  0.21691123999E+01  0.64089941206E+01  0.99226809660E+01  0.00000000000E+00 0. -1.
</event>
<event>
 7    1  0.7457761E-012  0.5930197E+02  0.7816164E-02  0.1266605E+00
        -11   -1    0    0    0    0  0.00000000000E+00  0.00000000000E+00  0.45593999997E+02  0.45594000000E+02  0.51100000000E-03 0.  1.
         11   -1    0    0    0    0 -0.00000000000E+00 -0.00000000000E+00 -0.45593999997E+02  0.45594000000E+02  0.51100000000E-03 0. -1.
    9900012    2    1    2    0    0  0.11509345605E+02 -0.19283049286E+02  0.22636649710E+02  0.59301969577E+02  0.50000046596E+02 0.  0.
         12    1    1    2    0    0 -0.11509345605E+02  0.19283049286E+02 -0.22636649710E+02  0.31886030423E+02  0.00000000000E+00 0. -1.
         11    1    3    3    0    0  0.17899221048E+02 -0.30043642867E+01 -0.26414930556E+01  0.18340823447E+02  0.51100000000E-03 0. -1.
        -11    1    3    3    0    0  0.30479205446E+01  0.27222252871E+01  0.18112812812E+02  0.18568099483E+02  0.51100000000E-03 0.  1.
         12    1    3    3    0    0 -0.94377959872E+01 -0.19000910287E+02  0.71653299530E+01  0.22393046647E+02  0.00000000000E+00 0. -1.
</event>
<event>
 7    1  0.7457761E-012  0.5930192E+02  0.7816164E-02  0.1266605E+00
        -11   -1    0    0    0    0  0.00000000000E+00  0.00000000000E+00  0.45593999997E+02  0.45594000000E+02  0.51100000000E-03 0. -1.
         11   -1    0    0    0    0 -0.00000000000E+00 -0.00000000000E+00 -0.45593999997E+02  0.45594000000E+02  0.51100000000E-03 0.  1.
    9900012    2    1    2    0    0  0.17778692875E+02 -0.18744508626E+02 -0.18689123835E+02  0.59301923514E+02  0.49999962587E+02 0.  0.
         12    1    1    2    0    0 -0.17778692875E+02  0.18744508626E+02  0.18689123835E+02  0.31886076486E+02  0.00000000000E+00 0. -1.
         11    1    3    3    0    0  0.13924851504E+02 -0.23660826002E+02  0.59541234942E+01  0.28092485887E+02  0.51100000000E-03 0. -1.
        -11    1    3    3    0    0  0.10327540237E+02  0.24431681284E+01 -0.20634051004E+02  0.23203258800E+02  0.51100000000E-03 0.  1.
         12    1    3    3    0    0 -0.64736988666E+01  0.24731492476E+01 -0.40091963255E+01  0.80061788260E+01  0.00000000000E+00 0. -1.
</event>
<event>
 7    1  0.7457761E-012  0.5930195E+02  0.7816164E-02  0.1266605E+00
        -11   -1    0    0    0    0  0.00000000000E+00  0.00000000000E+00  0.45593999997E+02  0.45594000000E+02  0.51100000000E-03 0.  1.
         11   -1    0    0    0    0 -0.00000000000E+00 -0.00000000000E+00 -0.45593999997E+02  0.45594000000E+02  0.51100000000E-03 0. -1.
    9900012    2    1    2    0    0 -0.14930680287E+02 -0.31748573895E+01  0.27994915938E+02  0.59301948949E+02  0.50000008975E+02 0.  0.
         12    1    1    2    0    0  0.14930680287E+02  0.31748573895E+01 -0.27994915938E+02  0.31886051051E+02  0.00000000000E+00 0. -1.
         11    1    3    3    0    0 -0.13705374942E+02  0.14894539433E+02  0.41421044327E+01  0.20660146094E+02  0.51100000000E-03 0. -1.
        -11    1    3    3    0    0  0.15533128663E+01 -0.22788497635E+02  0.12502035448E+02  0.26038995678E+02  0.51100000000E-03 0.  1.
         12    1    3    3    0    0 -0.27786182108E+01  0.47191008122E+01  0.11350776057E+02  0.12602807177E+02  0.00000000000E+00 0. -1.
</event>
<event>
 7    1  0.7457761E-012  0.5930195E+02  0.7816164E-02  0.1266605E+00
        -11   -1    0    0    0    0  0.00000000000E+00  0.00000000000E+00  0.45593999997E+02  0.45594000000E+02  0.51100000000E-03 0.  1.
         11   -1    0    0    0    0 -0.00000000000E+00 -0.00000000000E+00 -0.45593999997E+02  0.45594000000E+02  0.51100000000E-03 0. -1.
    9900012    2    1    2    0    0  0.21587002753E+02 -0.69009825975E+01  0.22429843792E+02  0.59301950681E+02  0.50000012134E+02 0.  0.
         12    1    1    2    0    0 -0.21587002753E+02  0.69009825975E+01 -0.22429843792E+02  0.31886049319E+02  0.00000000000E+00 0. -1.
         11    1    3    3    0    0  0.43756243207E+01 -0.58768065793E+01 -0.12112478561E+02  0.14156096952E+02  0.51100000000E-03 0. -1.
        -11    1    3    3    0    0  0.22800680621E+02 -0.18134348433E+01  0.23789854640E+02  0.33001769146E+02  0.51100000000E-03 0.  1.
         12    1    3    3    0    0 -0.55893021889E+01  0.78925882510E+00  0.10752467712E+02  0.12144084583E+02  0.00000000000E+00 0. -1.
</event>
<event>
 7    1  0.7457761E-012  0.5930194E+02  0.7816164E-02  0.1266605E+00
        -11   -1    0    0    0    0  0.00000000000E+00  0.00000000000E+00  0.45593999997E+02  0.45594000000E+02  0.51100000000E-03 0. -1.
         11   -1    0    0    0    0 -0.00000000000E+00 -0.00000000000E+00 -0.45593999997E+02  0.45594000000E+02  0.51100000000E-03 0.  1.
    9900012    2    1    2    0    0 -0.44288289912E+01 -0.10079658888E+02 -0.29925019266E+02  0.59301939917E+02  0.49999992503E+02 0.  0.
         12    1    1    2    0    0  0.44288289912E+01  0.10079658888E+02  0.29925019266E+02  0.31886060083E+02  0.00000000000E+00 0. -1.
         11    1    3    3    0    0  0.81155687228E+01 -0.12106991469E+02  0.11121235808E+01  0.14617746655E+02  0.51100000000E-03 0.  1.
        -11    1    3    3    0    0  0.34576507269E+01  0.11287191012E+02 -0.19790916036E+02  0.23044226767E+02  0.51100000000E-03 0. -1.
         12    1    3    3    0    0 -0.16002048441E+02 -0.92598584299E+01 -0.11246226811E+02  0.21639966496E+02  0.00000000000E+00 0. -1.
</event>
<event>
 7    1  0.7457761E-012  0.5930191E+02  0.7816164E-02  0.1266605E+00
        -11   -1    0    0    0    0  0.00000000000E+00  0.00000000000E+00  0.45593999997E+02  0.45594000000E+02  0.51100000000E-03 0.  1.
         11   -1    0    0    0    0 -0.00000000000E+00 -0.00000000000E+00 -0.45593999997E+02  0.45594000000E+02  0.51100000000E-03 0. -1.
    9900012    2    1    2    0    0  0.75699132657E+01 -0.30829957051E+02  0.29887551142E+01  0.59301913760E+02  0.49999944798E+02 0.  0.
         12    1    1    2    0    0 -0.75699132657E+01  0.30829957051E+02 -0.29887551142E+01  0.31886086240E+02  0.00000000000E+00 0. -1.
         11    1    3    3    0    0  0.94340106930E+01 -0.23530743679E+02 -0.14090445120E+02  0.29004087639E+02  0.51100000000E-03 0. -1.
        -11    1    3    3    0    0 -0.10596862623E+02 -0.45199305278E+01  0.17692743901E+02  0.21112945233E+02  0.51100000000E-03 0.  1.
        -12    1    3    3    0    0  0.87327651952E+01 -0.27792828435E+01 -0.61354366674E+00  0.91848808871E+01  0.00000000000E+00 0.  1.
</event>
<event>
 7    1  0.7457761E-012  0.5930195E+02  0.7816164E-02  0.1266605E+00
        -11   -1    0    0    0    0  0.00000000000E+00  0.00000000000E+00  0.45593999997E+02  0.45594000000E+02  0.51100000000E-03 0. -1.
         11   -1    0    0    0    0 -0.00000000000E+00 -0.00000000000E+00 -0.45593999997E+02  0.45594000000E+02  0.51100000000E-03 0.  1.
    9900012    2    1    2    0    0  0.27122546557E+02 -0.15884711939E+02 -0.53631824744E+01  0.59301947698E+02  0.50000006695E+02 0.  0.
         12    1    1    2    0    0 -0.27122546557E+02  0.15884711939E+02  0.53631824744E+01  0.31886052302E+02  0.00000000000E+00 0. -1.
         11    1    3    3    0    0  0.61610029436E+01  0.47511758344E+01  0.90653294273E+00  0.78328431185E+01  0.51100000000E-03 0. -1.
        -11    1    3    3    0    0  0.19808451103E+02 -0.24567091206E+02  0.11229637216E+02  0.33496588747E+02  0.51100000000E-03 0.  1.
        -12    1    3    3    0    0  0.11530925105E+01  0.39312034329E+01 -0.17499352634E+02  0.17972515833E+02  0.00000000000E+00 0.  1.
</event>
<event>
 7    1  0.7457761E-012  0.5930196E+02  0.7816164E-02  0.1266605E+00
        -11   -1    0    0    0    0  0.00000000000E+00  0.00000000000E+00  0.45593999997E+02  0.45594000000E+02  0.51100000000E-03 0.  1.
         11   -1    0    0    0    0 -0.00000000000E+00 -0.00000000000E+00 -0.45593999997E+02  0.45594000000E+02  0.51100000000E-03 0. -1.
    9900012    2    1    2    0    0 -0.19003631084E+02  0.12732142322E+02  0.22214280493E+02  0.59301957594E+02  0.50000024741E+02 0.  0.
         12    1    1    2    0    0  0.19003631084E+02 -0.12732142322E+02 -0.22214280493E+02  0.31886042406E+02  0.00000000000E+00 0. -1.
         11    1    3    3    0    0  0.22171047347E+01  0.10098653014E+02 -0.56653602919E+01  0.11789599383E+02  0.51100000000E-03 0. -1.
        -11    1    3    3    0    0 -0.25801272858E+02 -0.15365221759E+01  0.85656390353E+01  0.27229336273E+02  0.51100000000E-03 0.  1.
        -12    1    3    3    0    0  0.45805370396E+01  0.41700114838E+01  0.19314001750E+02  0.20283021938E+02  0.00000000000E+00 0.  1.
</event>
<event>
 7    1  0.7457761E-012  0.5930195E+02  0.7816164E-02  0.1266605E+00
        -11   -1    0    0    0    0  0.00000000000E+00  0.00000000000E+00  0.45593999997E+02  0.45594000000E+02  0.51100000000E-03 0. -1.
         11   -1    0    0    0    0 -0.00000000000E+00 -0.00000000000E+00 -0.45593999997E+02  0.45594000000E+02  0.51100000000E-03 0.  1.
    9900012    2    1    2    0    0  0.14919792692E+02 -0.11937571139E+02 -0.25526734971E+02  0.59301952629E+02  0.50000015687E+02 0.  0.
         12    1    1    2    0    0 -0.14919792692E+02  0.11937571139E+02  0.25526734971E+02  0.31886047371E+02  0.00000000000E+00 0. -1.
         11    1    3    3    0    0 -0.15459724447E+02 -0.10114516363E+02 -0.79046467429E+01  0.20094525663E+02  0.51100000000E-03 0. -1.
        -11    1    3    3    0    0  0.21024274636E+02 -0.83321760273E+01 -0.15983646971E+02  0.27693361155E+02  0.51100000000E-03 0.  1.
         12    1    3    3    0    0  0.93552425021E+01  0.65091212519E+01 -0.16384412575E+01  0.11514065811E+02  0.00000000000E+00 0. -1.
</event>
<event>
 7    1  0.7457761E-012  0.5930188E+02  0.7816164E-02  0.1266605E+00
        -11   -1    0    0    0    0  0.00000000000E+00  0.00000000000E+00  0.45593999997E+02  0.45594000000E+02  0.51100000000E-03 0.  1.
         11   -1    0    0    0    0 -0.00000000000E+00 -0.00000000000E+00 -0.45593999997E+02  0.45594000000E+02  0.51100000000E-03 0. -1.
    9900012    2    1    2    0    0  0.67845382601E+01 -0.18294684019E+02  0.25219023542E+02  0.59301881215E+02  0.49999885444E+02 0.  0.
         12    1    1    2    0    0 -0.67845382601E+01  0.18294684019E+02 -0.25219023542E+02  0.31886118785E+02  0.00000000000E+00 0. -1.
         11    1    3    3    0    0 -0.16154234363E+02 -0.13155636589E+02  0.11255204620E+02  0.23679309391E+02  0.51100000000E-03 0. -1.
        -11    1    3    3    0    0  0.22703534371E+02 -0.54844626712E+01  0.19282377718E+02  0.30287619491E+02  0.51100000000E-03 0.  1.
         12    1    3    3    0    0  0.23523825258E+00  0.34541524128E+00 -0.53185587961E+01  0.53349523326E+01  0.00000000000E+00 0. -1.
</event>
<event>
 7    1  0.7457761E-012  0.5930197E+02  0.7816164E-02  0.1266605E+00
        -11   -1    0    0    0    0  0.00000000000E+00  0.00000000000E+00  0.45593999997E+02  0.45594000000E+02  0.51100000000E-03 0. -1.
         11   -1    0    0    0    0 -0.00000000000E+00 -0.00000000000E+00 -0.45593999997E+02  0.45594000000E+02  0.51100000000E-03 0.  1.
    9900012    2    1    2    0    0 -0.26478914966E+02  0.68403672487E+01 -0.16394984859E+02  0.59301967158E+02  0.50000042184E+02 0.  0.
         12    1    1    2    0    0  0.26478914966E+02 -0.68403672487E+01  0.16394984859E+02  0.31886032842E+02  0.00000000000E+00 0. -1.
         11    1    3    3    0    0  0.12302910246E+01  0.40882696745E+00  0.80255257693E+01  0.81295645411E+01  0.51100000000E-03 0. -1.
        -11    1    3    3    0    0 -0.13227105384E+02  0.19983422192E+02 -0.75259075987E+01  0.25118375042E+02  0.51100000000E-03 0.  1.
        -12    1    3    3    0    0 -0.14482100607E+02 -0.13551881911E+02 -0.16894603029E+02  0.26054027574E+02  0.00000000000E+00 0.  1.
</event>
<event>
 7    1  0.7457761E-012  0.5930194E+02  0.7816164E-02  0.1266605E+00
        -11   -1    0    0    0    0  0.00000000000E+00  0.00000000000E+00  0.45593999997E+02  0.45594000000E+02  0.51100000000E-03 0.  1.
         11   -1    0    0    0    0 -0.00000000000E+00 -0.00000000000E+00 -0.45593999997E+02  0.45594000000E+02  0.51100000000E-03 0. -1.
    9900012    2    1    2    0    0 -0.37078127819E+01  0.28356660139E+01  0.31542542197E+02  0.59301939635E+02  0.49999991989E+02 0.  0.
         12    1    1    2    0    0  0.37078127819E+01 -0.28356660139E+01 -0.31542542197E+02  0.31886060365E+02  0.00000000000E+00 0. -1.
         11    1    3    3    0    0 -0.59490875420E+01  0.12918075095E+02 -0.87305479350E+01  0.16688042853E+02  0.51100000000E-03 0. -1.
        -11    1    3    3    0    0  0.32265919738E+01 -0.24186061946E+01  0.26639100058E+02  0.26942572332E+02  0.51100000000E-03 0.  1.
        -12    1    3    3    0    0 -0.98531721368E+00 -0.76638028867E+01  0.13633990074E+02  0.15671324451E+02  0.00000000000E+00 0.  1.
</event>
<event>
 7    1  0.7457761E-012  0.5930194E+02  0.7816164E-02  0.1266605E+00
        -11   -1    0    0    0    0  0.00000000000E+00  0.00000000000E+00  0.45593999997E+02  0.45594000000E+02  0.51100000000E-03 0.  1.
         11   -1    0    0    0    0 -0.00000000000E+00 -0.00000000000E+00 -0.45593999997E+02  0.45594000000E+02  0.51100000000E-03 0. -1.
    9900012    2    1    2    0    0  0.28807888320E+02 -0.72288846037E+01  0.11600427602E+02  0.59301935291E+02  0.49999984066E+02 0.  0.
         12    1    1    2    0    0 -0.28807888320E+02  0.72288846037E+01 -0.11600427602E+02  0.31886064709E+02  0.00000000000E+00 0. -1.
         11    1    3    3    0    0  0.23062642941E+02  0.14139925543E+02 -0.13872706899E+00  0.27052582857E+02  0.51100000000E-03 0. -1.
        -11    1    3    3    0    0  0.10941248787E+02 -0.19408027606E+02  0.13933564164E+02  0.26277874174E+02  0.51100000000E-03 0.  1.
         12    1    3    3    0    0 -0.51960034071E+01 -0.19607825411E+01 -0.21944094926E+01  0.59714782593E+01  0.00000000000E+00 0. -1.
</event>
<event>
 7    1  0.7457761E-012  0.5930194E+02  0.7816164E-02  0.1266605E+00
        -11   -1    0    0    0    0  0.00000000000E+00  0.00000000000E+00  0.45593999997E+02  0.45594000000E+02  0.51100000000E-03 0.  1.
         11   -1    0    0    0    0 -0.00000000000E+00 -0.00000000000E+00 -0.45593999997E+02  0.45594000000E+02  0.51100000000E-03 0. -1.
    9900012    2    1    2    0    0 -0.30330372548E+02  0.29069418383E+01 -0.93988914644E+01  0.59301937676E+02  0.49999988416E+02 0.  0.
         12    1    1    2    0    0  0.30330372548E+02 -0.29069418383E+01  0.93988914644E+01  0.31886062324E+02  0.00000000000E+00 0. -1.
         11    1    3    3    0    0 -0.33932090638E+02  0.17049746881E+02  0.19962474384E+01  0.38027169864E+02  0.51100000000E-03 0. -1.
        -11    1    3    3    0    0 -0.16316635013E+01 -0.65881391723E+01 -0.19943096499E+00  0.67901160893E+01  0.51100000000E-03 0.  1.
         12    1    3    3    0    0  0.52333815911E+01 -0.75546658706E+01 -0.11195707938E+02  0.14484651723E+02  0.00000000000E+00 0. -1.
</event>
<event>
 7    1  0.7457761E-012  0.5930194E+02  0.7816164E-02  0.1266605E+00
        -11   -1    0    0    0    0  0.00000000000E+00  0.00000000000E+00  0.45593999997E+02  0.45594000000E+02  0.51100000000E-03 0. -1.
         11   -1    0    0    0    0 -0.00000000000E+00 -0.00000000000E+00 -0.45593999997E+02  0.45594000000E+02  0.51100000000E-03 0.  1.
    9900012    2    1    2    0    0 -0.43524132183E+01 -0.31536829154E+02  0.17903709831E+01  0.59301944707E+02  0.50000001238E+02 0.  0.
         12    1    1    2    0    0  0.43524132183E+01  0.31536829154E+02 -0.17903709831E+01  0.31886055293E+02  0.00000000000E+00 0. -1.
         11    1    3    3    0    0 -0.88766985946E+01 -0.15171334907E+02  0.20340338609E+02  0.26882978923E+02  0.51100000000E-03 0. -1.
        -11    1    3    3    0    0 -0.16242550506E+01 -0.11990375670E+02 -0.21209102847E+02  0.24417890102E+02  0.51100000000E-03 0.  1.
         12    1    3    3    0    0  0.61485404269E+01 -0.43751185763E+01  0.26591352212E+01  0.80010756816E+01  0.00000000000E+00 0. -1.
</event>
<event>
 7    1  0.7457761E-012  0.5930230E+02  0.7816164E-02  0.1266604E+00
        -11   -1    0    0    0    0  0.00000000000E+00  0.00000000000E+00  0.45593999997E+02  0.45594000000E+02  0.51100000000E-03 0.  1.
         11   -1    0    0    0    0 -0.00000000000E+00 -0.00000000000E+00 -0.45593999997E+02  0.45594000000E+02  0.51100000000E-03 0. -1.
    9900012    2    1    2    0    0 -0.14145087916E+02  0.21717243794E+02  0.18573521644E+02  0.59302299499E+02  0.50000648291E+02 0.  0.
         12    1    1    2    0    0  0.14145087916E+02 -0.21717243794E+02 -0.18573521644E+02  0.31885700501E+02  0.00000000000E+00 0. -1.
         11    1    3    3    0    0 -0.22899453608E+02  0.61558956249E+01  0.87589612540E+01  0.25278438025E+02  0.51100000000E-03 0.  1.
        -11    1    3    3    0    0  0.10764612879E+02  0.22581905539E+02  0.93493689651E+01  0.26706367190E+02  0.51100000000E-03 0. -1.
         12    1    3    3    0    0 -0.20102471870E+01 -0.70205573699E+01  0.46519142487E+00  0.73174942841E+01  0.00000000000E+00 0. -1.
</event>
<event>
 7    1  0.7457761E-012  0.5930194E+02  0.7816164E-02  0.1266605E+00
        -11   -1    0    0    0    0  0.00000000000E+00  0.00000000000E+00  0.45593999997E+02  0.45594000000E+02  0.51100000000E-03 0. -1.
         11   -1    0    0    0    0 -0.00000000000E+00 -0.00000000000E+00 -0.45593999997E+02  0.45594000000E+02  0.51100000000E-03 0.  1.
    9900012    2    1    2    0    0  0.14934684401E+02 -0.17500273165E+02  0.22077514419E+02  0.59301937184E+02  0.49999987518E+02 0.  0.
         12    1    1    2    0    0 -0.14934684401E+02  0.17500273165E+02 -0.22077514419E+02  0.31886062816E+02  0.00000000000E+00 0. -1.
         11    1    3    3    0    0 -0.81777813874E+01 -0.20844880813E+02  0.32657363630E+01  0.22628526217E+02  0.51100000000E-03 0. -1.
        -11    1    3    3    0    0  0.88832935216E+01  0.10134704986E+02  0.15542637895E+02  0.20571794816E+02  0.51100000000E-03 0.  1.
        -12    1    3    3    0    0  0.14229172266E+02 -0.67900973389E+01  0.32691401607E+01  0.16101616150E+02  0.00000000000E+00 0.  1.
</event>
<event>
 7    1  0.7457761E-012  0.5930194E+02  0.7816164E-02  0.1266605E+00
        -11   -1    0    0    0    0  0.00000000000E+00  0.00000000000E+00  0.45593999997E+02  0.45594000000E+02  0.51100000000E-03 0. -1.
         11   -1    0    0    0    0 -0.00000000000E+00 -0.00000000000E+00 -0.45593999997E+02  0.45594000000E+02  0.51100000000E-03 0.  1.
    9900012    2    1    2    0    0  0.16011240971E+02  0.24467843964E+02  0.12715565582E+02  0.59301939820E+02  0.49999992327E+02 0.  0.
         12    1    1    2    0    0 -0.16011240971E+02 -0.24467843964E+02 -0.12715565582E+02  0.31886060180E+02  0.00000000000E+00 0. -1.
         11    1    3    3    0    0 -0.34783710512E+01 -0.60727368515E+01 -0.51796412249E+01  0.87066573102E+01  0.51100000000E-03 0. -1.
        -11    1    3    3    0    0  0.17516921462E+02  0.36800202085E+02  0.15671273079E+02  0.43665618181E+02  0.51100000000E-03 0.  1.
        -12    1    3    3    0    0  0.19726905609E+01 -0.62596212692E+01  0.22239337282E+01  0.69296643288E+01  0.00000000000E+00 0.  1.
</event>
<event>
 7    1  0.7457761E-012  0.5930199E+02  0.7816164E-02  0.1266605E+00
        -11   -1    0    0    0    0  0.00000000000E+00  0.00000000000E+00  0.45593999997E+02  0.45594000000E+02  0.51100000000E-03 0.  1.
         11   -1    0    0    0    0 -0.00000000000E+00 -0.00000000000E+00 -0.45593999997E+02  0.45594000000E+02  0.51100000000E-03 0. -1.
    9900012    2    1    2    0    0  0.35774305440E+01 -0.26661113981E+02  0.17120290221E+02  0.59301994523E+02  0.50000092092E+02 0.  0.
         12    1    1    2    0    0 -0.35774305440E+01  0.26661113981E+02 -0.17120290221E+02  0.31886005477E+02  0.00000000000E+00 0. -1.
         11    1    3    3    0    0  0.14440135769E+02 -0.20436745237E+02  0.74815773675E+01  0.26118041219E+02  0.51100000000E-03 0. -1.
        -11    1    3    3    0    0 -0.10026955834E+02 -0.55410292002E+01  0.19848436403E+02  0.22917313887E+02  0.51100000000E-03 0.  1.
         12    1    3    3    0    0 -0.83574939081E+00 -0.68333954348E+00 -0.10209723549E+02  0.10266639418E+02  0.00000000000E+00 0. -1.
</event>
<event>
 7    1  0.7457761E-012  0.5930195E+02  0.7816164E-02  0.1266605E+00
        -11   -1    0    0    0    0  0.00000000000E+00  0.00000000000E+00  0.45593999997E+02  0.45594000000E+02  0.51100000000E-03 0. -1.
         11   -1    0    0    0    0 -0.00000000000E+00 -0.00000000000E+00 -0.45593999997E+02  0.45594000000E+02  0.51100000000E-03 0.  1.
    9900012    2    1    2    0    0  0.27179329560E+01 -0.50479341639E+01 -0.31366406481E+02  0.59301948906E+02  0.50000008896E+02 0.  0.
         12    1    1    2    0    0 -0.27179329560E+01  0.50479341639E+01  0.31366406481E+02  0.31886051094E+02  0.00000000000E+00 0. -1.
         11    1    3    3    0    0  0.14221881427E+02  0.46492315006E+01 -0.93903878978E+00  0.14991966482E+02  0.51100000000E-03 0. -1.
        -11    1    3    3    0    0 -0.18346925055E+02  0.21701101164E+01 -0.16412059851E+02  0.24711834123E+02  0.51100000000E-03 0.  1.
         12    1    3    3    0    0  0.68429765839E+01 -0.11867275781E+02 -0.14015307840E+02  0.19598148301E+02  0.00000000000E+00 0. -1.
</event>
<event>
 7    1  0.7457761E-012  0.5930195E+02  0.7816164E-02  0.1266605E+00
        -11   -1    0    0    0    0  0.00000000000E+00  0.00000000000E+00  0.45593999997E+02  0.45594000000E+02  0.51100000000E-03 0.  1.
         11   -1    0    0    0    0 -0.00000000000E+00 -0.00000000000E+00 -0.45593999997E+02  0.45594000000E+02  0.51100000000E-03 0. -1.
    9900012    2    1    2    0    0  0.11202744091E+02  0.22063831944E+02  0.20109850238E+02  0.59301949260E+02  0.50000009543E+02 0.  0.
         12    1    1    2    0    0 -0.11202744091E+02 -0.22063831944E+02 -0.20109850238E+02  0.31886050740E+02  0.00000000000E+00 0. -1.
         11    1    3    3    0    0  0.29704789611E+02  0.18984147546E+02  0.11507828675E+02  0.37083722911E+02  0.51100000000E-03 0. -1.
        -11    1    3    3    0    0 -0.10253803623E+01  0.16739974334E+01  0.34062863051E+01  0.39314703290E+01  0.51100000000E-03 0.  1.
         12    1    3    3    0    0 -0.17476665157E+02  0.14056869640E+01  0.51957352575E+01  0.18286756020E+02  0.00000000000E+00 0. -1.
</event>
<event>
 7    1  0.7457761E-012  0.5930193E+02  0.7816164E-02  0.1266605E+00
        -11   -1    0    0    0    0  0.00000000000E+00  0.00000000000E+00  0.45593999997E+02  0.45594000000E+02  0.51100000000E-03 0.  1.
         11   -1    0    0    0    0 -0.00000000000E+00 -0.00000000000E+00 -0.45593999997E+02  0.45594000000E+02  0.51100000000E-03 0. -1.
    9900012    2    1    2    0    0 -0.18350186294E+02 -0.16699883080E+02  0.20027627467E+02  0.59301932606E+02  0.49999979169E+02 0.  0.
         12    1    1    2    0    0  0.18350186294E+02  0.16699883080E+02 -0.20027627467E+02  0.31886067394E+02  0.00000000000E+00 0. -1.
         11    1    3    3    0    0 -0.24138115838E+02 -0.52368052224E+01 -0.23648207153E+01  0.24812600476E+02  0.51100000000E-03 0. -1.
        -11    1    3    3    0    0  0.13758377607E+02 -0.25343126395E+01  0.95761613754E+01  0.16953423309E+02  0.51100000000E-03 0.  1.
        -12    1    3    3    0    0 -0.79704480638E+01 -0.89287652183E+01  0.12816286806E+02  0.17535908821E+02  0.00000000000E+00 0.  1.
</event>
<event>
 7    1  0.7457761E-012  0.5930197E+02  0.7816164E-02  0.1266605E+00
        -11   -1    0    0    0    0  0.00000000000E+00  0.00000000000E+00  0.45593999997E+02  0.45594000000E+02  0.51100000000E-03 0. -1.
         11   -1    0    0    0    0 -0.00000000000E+00 -0.00000000000E+00 -0.45593999997E+02  0.45594000000E+02  0.51100000000E-03 0.  1.
    9900012    2    1    2    0    0  0.99259541664E+01 -0.20750580583E+02 -0.22081841728E+02  0.59301970226E+02  0.50000047779E+02 0.  0.
         12    1    1    2    0    0 -0.99259541664E+01  0.20750580583E+02  0.22081841728E+02  0.31886029774E+02  0.00000000000E+00 0. -1.
         11    1    3    3    0    0  0.12928218580E+02  0.73466107364E+00 -0.12913336656E+02  0.18287504652E+02  0.51100000000E-03 0.  1.
        -11    1    3    3    0    0 -0.14976255413E+02 -0.18738048631E+02  0.24413149683E+01  0.24111464321E+02  0.51100000000E-03 0. -1.
         12    1    3    3    0    0  0.11973990999E+02 -0.27471930256E+01 -0.11609820040E+02  0.16903001252E+02  0.00000000000E+00 0. -1.
</event>
<event>
 7    1  0.7457761E-012  0.5930196E+02  0.7816164E-02  0.1266605E+00
        -11   -1    0    0    0    0  0.00000000000E+00  0.00000000000E+00  0.45593999997E+02  0.45594000000E+02  0.51100000000E-03 0.  1.
         11   -1    0    0    0    0 -0.00000000000E+00 -0.00000000000E+00 -0.45593999997E+02  0.45594000000E+02  0.51100000000E-03 0. -1.
    9900012    2    1    2    0    0 -0.74027377819E+01  0.47825216221E+01  0.30643862855E+02  0.59301962767E+02  0.50000034177E+02 0.  0.
         12    1    1    2    0    0  0.74027377819E+01 -0.47825216221E+01 -0.30643862855E+02  0.31886037233E+02  0.00000000000E+00 0. -1.
         11    1    3    3    0    0  0.68160314216E+01 -0.98162920658E+01  0.94445202713E+01  0.15232098926E+02  0.51100000000E-03 0. -1.
        -11    1    3    3    0    0 -0.81007659450E+01  0.23504489980E+02  0.22051286088E+02  0.33231651728E+02  0.51100000000E-03 0.  1.
        -12    1    3    3    0    0 -0.61180032585E+01 -0.89056762925E+01 -0.85194350487E+00  0.10838212114E+02  0.00000000000E+00 0.  1.
</event>
<event>
 7    1  0.7457761E-012  0.5930195E+02  0.7816164E-02  0.1266605E+00
        -11   -1    0    0    0    0  0.00000000000E+00  0.00000000000E+00  0.45593999997E+02  0.45594000000E+02  0.51100000000E-03 0.  1.
         11   -1    0    0    0    0 -0.00000000000E+00 -0.00000000000E+00 -0.45593999997E+02  0.45594000000E+02  0.51100000000E-03 0. -1.
    9900012    2    1    2    0    0 -0.18974558915E+02 -0.55048255465E+01  0.25027649011E+02  0.59301949675E+02  0.50000010299E+02 0.  0.
         12    1    1    2    0    0  0.18974558915E+02  0.55048255465E+01 -0.25027649011E+02  0.31886050325E+02  0.00000000000E+00 0. -1.
         11    1    3    3    0    0  0.64793677126E+01  0.71305400797E+01  0.70257757698E+01  0.11924274955E+02  0.51100000000E-03 0. -1.
        -11    1    3    3    0    0 -0.92321233360E+01 -0.22825924139E+02  0.90568940499E+01  0.26235133775E+02  0.51100000000E-03 0.  1.
        -12    1    3    3    0    0 -0.16221803292E+02  0.10190558513E+02  0.89449791909E+01  0.21142540944E+02  0.00000000000E+00 0.  1.
</event>
<event>
 7    1  0.7457761E-012  0.5930193E+02  0.7816164E-02  0.1266605E+00
        -11   -1    0    0    0    0  0.00000000000E+00  0.00000000000E+00  0.45593999997E+02  0.45594000000E+02  0.51100000000E-03 0. -1.
         11   -1    0    0    0    0 -0.00000000000E+00 -0.00000000000E+00 -0.45593999997E+02  0.45594000000E+02  0.51100000000E-03 0.  1.
    9900012    2    1    2    0    0 -0.19571172769E+02  0.19028735695E+02 -0.16480228185E+02  0.59301929268E+02  0.49999973082E+02 0.  0.
         12    1    1    2    0    0  0.19571172769E+02 -0.19028735695E+02  0.16480228185E+02  0.31886070732E+02  0.00000000000E+00 0. -1.
         11    1    3    3    0    0  0.34489912444E+01  0.13567516588E+02 -0.18081155621E+02  0.22867033822E+02  0.51100000000E-03 0. -1.
        -11    1    3    3    0    0 -0.20056323677E+02 -0.58734942992E+01 -0.68461481977E+01  0.21991448340E+02  0.51100000000E-03 0.  1.
         12    1    3    3    0    0 -0.29638403367E+01  0.11334713406E+02  0.84470756341E+01  0.14443447106E+02  0.00000000000E+00 0. -1.
</event>
<event>
 7    1  0.7457761E-012  0.5930195E+02  0.7816164E-02  0.1266605E+00
        -11   -1    0    0    0    0  0.00000000000E+00  0.00000000000E+00  0.45593999997E+02  0.45594000000E+02  0.51100000000E-03 0. -1.
         11   -1    0    0    0    0 -0.00000000000E+00 -0.00000000000E+00 -0.45593999997E+02  0.45594000000E+02  0.51100000000E-03 0.  1.
    9900012    2    1    2    0    0 -0.18488830225E+02  0.99450229988E+01 -0.23999579789E+02  0.59301950456E+02  0.50000011723E+02 0.  0.
         12    1    1    2    0    0  0.18488830225E+02 -0.99450229988E+01  0.23999579789E+02  0.31886049544E+02  0.00000000000E+00 0. -1.
         11    1    3    3    0    0  0.52044401727E+01 -0.11067021848E+02 -0.19334783947E+02  0.22877916003E+02  0.51100000000E-03 0. -1.
        -11    1    3    3    0    0 -0.21909405814E+02  0.22716443013E+02 -0.47759408416E+00  0.31564013412E+02  0.51100000000E-03 0.  1.
        -12    1    3    3    0    0 -0.17838645834E+01 -0.17043981660E+01 -0.41872017573E+01  0.48600210407E+01  0.00000000000E+00 0.  1.
</event>
<event>
 7    1  0.7457761E-012  0.5930193E+02  0.7816164E-02  0.1266605E+00
        -11   -1    0    0    0    0  0.00000000000E+00  0.00000000000E+00  0.45593999997E+02  0.45594000000E+02  0.51100000000E-03 0.  1.
         11   -1    0    0    0    0 -0.00000000000E+00 -0.00000000000E+00 -0.45593999997E+02  0.45594000000E+02  0.51100000000E-03 0. -1.
    9900012    2    1    2    0    0 -0.12719861521E+02 -0.11268973291E+02  0.26980300338E+02  0.59301933411E+02  0.49999980638E+02 0.  0.
         12    1    1    2    0    0  0.12719861521E+02  0.11268973291E+02 -0.26980300338E+02  0.31886066589E+02  0.00000000000E+00 0. -1.
         11    1    3    3    0    0 -0.15587235619E+02 -0.28174534949E+02  0.16704879314E+02  0.36274224002E+02  0.51100000000E-03 0. -1.
        -11    1    3    3    0    0  0.17787159784E+01  0.32105000891E+00  0.54190444537E+01  0.57125254216E+01  0.51100000000E-03 0.  1.
         12    1    3    3    0    0  0.10886581193E+01  0.16584511648E+02  0.48563765706E+01  0.17315183987E+02  0.00000000000E+00 0. -1.
</event>
<event>
 7    1  0.7457761E-012  0.5930193E+02  0.7816164E-02  0.1266605E+00
        -11   -1    0    0    0    0  0.00000000000E+00  0.00000000000E+00  0.45593999997E+02  0.45594000000E+02  0.51100000000E-03 0.  1.
         11   -1    0    0    0    0 -0.00000000000E+00 -0.00000000000E+00 -0.45593999997E+02  0.45594000000E+02  0.51100000000E-03 0. -1.
    9900012    2    1    2    0    0  0.27618122466E+02 -0.10617304920E+02  0.11884162386E+02  0.59301934581E+02  0.49999982771E+02 0.  0.
         12    1    1    2    0    0 -0.27618122466E+02  0.10617304920E+02 -0.11884162386E+02  0.31886065419E+02  0.00000000000E+00 0. -1.
         11    1    3    3    0    0 -0.38510229117E+01  0.46849918139E+01 -0.12152940172E+01  0.61851811269E+01  0.51100000000E-03 0. -1.
        -11    1    3    3    0    0  0.59941058082E+01 -0.10445544819E+02  0.22509265400E+02  0.25528527966E+02  0.51100000000E-03 0.  1.
        -12    1    3    3    0    0  0.25475039569E+02 -0.48567519142E+01 -0.94098089967E+01  0.27588225488E+02  0.00000000000E+00 0.  1.
</event>
<event>
 7    1  0.7457761E-012  0.5930194E+02  0.7816164E-02  0.1266605E+00
        -11   -1    0    0    0    0  0.00000000000E+00  0.00000000000E+00  0.45593999997E+02  0.45594000000E+02  0.51100000000E-03 0.  1.
         11   -1    0    0    0    0 -0.00000000000E+00 -0.00000000000E+00 -0.45593999997E+02  0.45594000000E+02  0.51100000000E-03 0. -1.
    9900012    2    1    2    0    0 -0.15757696504E+02 -0.80374961970E+01  0.26529496462E+02  0.59301944634E+02  0.50000001107E+02 0.  0.
         12    1    1    2    0    0  0.15757696504E+02  0.80374961970E+01 -0.26529496462E+02  0.31886055366E+02  0.00000000000E+00 0. -1.
         11    1    3    3    0    0  0.32822002244E+01 -0.47454239812E+01  0.17926894970E+02  0.18832563569E+02  0.51100000000E-03 0. -1.
        -11    1    3    3    0    0 -0.10595367973E+01  0.20336009802E+01 -0.12228122113E+02  0.12441266891E+02  0.51100000000E-03 0.  1.
        -12    1    3    3    0    0 -0.17980359931E+02 -0.53256731960E+01  0.20830723606E+02  0.28028114175E+02  0.00000000000E+00 0.  1.
</event>
<event>
 7    1  0.7457761E-012  0.5930194E+02  0.7816164E-02  0.1266605E+00
        -11   -1    0    0    0    0  0.00000000000E+00  0.00000000000E+00  0.45593999997E+02  0.45594000000E+02  0.51100000000E-03 0.  1.
         11   -1    0    0    0    0 -0.00000000000E+00 -0.00000000000E+00 -0.45593999997E+02  0.45594000000E+02  0.51100000000E-03 0. -1.
    9900012    2    1    2    0    0  0.23147606536E+02  0.15560707826E+01  0.21874369412E+02  0.59301935932E+02  0.49999985235E+02 0.  0.
         12    1    1    2    0    0 -0.23147606536E+02 -0.15560707826E+01 -0.21874369412E+02  0.31886064068E+02  0.00000000000E+00 0. -1.
         11    1    3    3    0    0  0.15995498548E+02 -0.55256415170E+01 -0.13734871240E+02  0.21795306289E+02  0.51100000000E-03 0. -1.
        -11    1    3    3    0    0  0.25535849529E+01 -0.78029634208E+00  0.81342026747E+01  0.85612447639E+01  0.51100000000E-03 0.  1.
         12    1    3    3    0    0  0.45985230348E+01  0.78620086417E+01  0.27475037977E+02  0.28945384879E+02  0.00000000000E+00 0. -1.
</event>
<event>
 7    1  0.7457761E-012  0.5930194E+02  0.7816164E-02  0.1266605E+00
        -11   -1    0    0    0    0  0.00000000000E+00  0.00000000000E+00  0.45593999997E+02  0.45594000000E+02  0.51100000000E-03 0. -1.
         11   -1    0    0    0    0 -0.00000000000E+00 -0.00000000000E+00 -0.45593999997E+02  0.45594000000E+02  0.51100000000E-03 0.  1.
    9900012    2    1    2    0    0 -0.26186278092E+02 -0.17026656624E+02 -0.64103450283E+01  0.59301941613E+02  0.49999995595E+02 0.  0.
         12    1    1    2    0    0  0.26186278092E+02  0.17026656624E+02  0.64103450283E+01  0.31886058387E+02  0.00000000000E+00 0. -1.
         11    1    3    3    0    0 -0.16432323820E+01 -0.17098298815E+02 -0.17222186619E+02  0.24323974742E+02  0.51100000000E-03 0. -1.
        -11    1    3    3    0    0 -0.13666506649E+02  0.11026374407E+02  0.79586094075E+01  0.19279362036E+02  0.51100000000E-03 0.  1.
        -12    1    3    3    0    0 -0.10876539061E+02 -0.10954732215E+02  0.28532321833E+01  0.15698604835E+02  0.00000000000E+00 0.  1.
</event>
<event>
 7    1  0.7457761E-012  0.5930193E+02  0.7816164E-02  0.1266605E+00
        -11   -1    0    0    0    0  0.00000000000E+00  0.00000000000E+00  0.45593999997E+02  0.45594000000E+02  0.51100000000E-03 0. -1.
         11   -1    0    0    0    0 -0.00000000000E+00 -0.00000000000E+00 -0.45593999997E+02  0.45594000000E+02  0.51100000000E-03 0.  1.
    9900012    2    1    2    0    0 -0.25164385942E+02  0.19194471077E+02  0.38791061303E+01  0.59301929309E+02  0.49999973157E+02 0.  0.
         12    1    1    2    0    0  0.25164385942E+02 -0.19194471077E+02 -0.38791061303E+01  0.31886070691E+02  0.00000000000E+00 0. -1.
         11    1    3    3    0    0 -0.13926868609E+01 -0.40696087844E+01  0.20802088640E+02  0.21242132294E+02  0.51100000000E-03 0. -1.
        -11    1    3    3    0    0 -0.94288409231E+01  0.68761873881E+01 -0.95121383164E+01  0.15055423267E+02  0.51100000000E-03 0.  1.
         12    1    3    3    0    0 -0.14342858158E+02  0.16387892473E+02 -0.74108441935E+01  0.23004373747E+02  0.00000000000E+00 0. -1.
</event>
<event>
 7    1  0.7457761E-012  0.5930196E+02  0.7816164E-02  0.1266605E+00
        -11   -1    0    0    0    0  0.00000000000E+00  0.00000000000E+00  0.45593999997E+02  0.45594000000E+02  0.51100000000E-03 0.  1.
         11   -1    0    0    0    0 -0.00000000000E+00 -0.00000000000E+00 -0.45593999997E+02  0.45594000000E+02  0.51100000000E-03 0. -1.
    9900012    2    1    2    0    0 -0.29342236916E+02  0.12269165297E+02 -0.22847382602E+01  0.59301963663E+02  0.50000035811E+02 0.  0.
         12    1    1    2    0    0  0.29342236916E+02 -0.12269165297E+02  0.22847382602E+01  0.31886036337E+02  0.00000000000E+00 0. -1.
         11    1    3    3    0    0 -0.15473761933E+02  0.17556433596E+02 -0.67967220108E+01  0.24369265466E+02  0.51100000000E-03 0.  1.
        -11    1    3    3    0    0  0.29716273782E+01 -0.10738727367E+02 -0.75977642869E+01  0.13486172814E+02  0.51100000000E-03 0. -1.
        -12    1    3    3    0    0 -0.16840102361E+02  0.54514590688E+01  0.12109748038E+02  0.21446525384E+02  0.00000000000E+00 0.  1.
</event>
<event>
 7    1  0.7457761E-012  0.5930196E+02  0.7816164E-02  0.1266605E+00
        -11   -1    0    0    0    0  0.00000000000E+00  0.00000000000E+00  0.45593999997E+02  0.45594000000E+02  0.51100000000E-03 0. -1.
         11   -1    0    0    0    0 -0.00000000000E+00 -0.00000000000E+00 -0.45593999997E+02  0.45594000000E+02  0.51100000000E-03 0.  1.
    9900012    2    1    2    0    0 -0.16002887014E+02  0.12214061388E+02 -0.24727396536E+02  0.59301955595E+02  0.50000021095E+02 0.  0.
         12    1    1    2    0    0  0.16002887014E+02 -0.12214061388E+02  0.24727396536E+02  0.31886044405E+02  0.00000000000E+00 0. -1.
         11    1    3    3    0    0 -0.16124161274E+02  0.39070465757E+01  0.12063491498E+02  0.20512957298E+02  0.51100000000E-03 0. -1.
        -11    1    3    3    0    0 -0.63321975487E+00  0.99781445038E+01 -0.26245938031E+02  0.28085825577E+02  0.51100000000E-03 0.  1.
         12    1    3    3    0    0  0.75449401540E+00 -0.16711296915E+01 -0.10544950004E+02  0.10703172719E+02  0.00000000000E+00 0. -1.
</event>
<event>
 7    1  0.7457761E-012  0.5930195E+02  0.7816164E-02  0.1266605E+00
        -11   -1    0    0    0    0  0.00000000000E+00  0.00000000000E+00  0.45593999997E+02  0.45594000000E+02  0.51100000000E-03 0.  1.
         11   -1    0    0    0    0 -0.00000000000E+00 -0.00000000000E+00 -0.45593999997E+02  0.45594000000E+02  0.51100000000E-03 0. -1.
    9900012    2    1    2    0    0 -0.24458588326E+01 -0.19884541084E+02  0.24806107134E+02  0.59301950532E+02  0.50000011862E+02 0.  0.
         12    1    1    2    0    0  0.24458588326E+01  0.19884541084E+02 -0.24806107134E+02  0.31886049468E+02  0.00000000000E+00 0. -1.
         11    1    3    3    0    0 -0.42229152278E+01 -0.33850085324E+01 -0.20979851146E+01  0.58045531773E+01  0.51100000000E-03 0. -1.
        -11    1    3    3    0    0  0.19489470373E+02 -0.13762267976E+02  0.26377475539E+02  0.35566988786E+02  0.51100000000E-03 0.  1.
        -12    1    3    3    0    0 -0.17712413977E+02 -0.27372645753E+01  0.52661670929E+00  0.17930408568E+02  0.00000000000E+00 0.  1.
</event>
<event>
 7    1  0.7457761E-012  0.5930192E+02  0.7816164E-02  0.1266605E+00
        -11   -1    0    0    0    0  0.00000000000E+00  0.00000000000E+00  0.45593999997E+02  0.45594000000E+02  0.51100000000E-03 0.  1.
         11   -1    0    0    0    0 -0.00000000000E+00 -0.00000000000E+00 -0.45593999997E+02  0.45594000000E+02  0.51100000000E-03 0. -1.
    9900012    2    1    2    0    0  0.23738385283E+01  0.11625853829E+01  0.31776337601E+02  0.59301916116E+02  0.49999949096E+02 0.  0.
         12    1    1    2    0    0 -0.23738385283E+01 -0.11625853829E+01 -0.31776337601E+02  0.31886083884E+02  0.00000000000E+00 0. -1.
         11    1    3    3    0    0 -0.83644696446E+01  0.75325652888E+01  0.64560960309E+01  0.12976327234E+02  0.51100000000E-03 0. -1.
        -11    1    3    3    0    0  0.24023955304E+02 -0.16969857370E+01  0.11865773492E+02  0.26848217256E+02  0.51100000000E-03 0.  1.
        -12    1    3    3    0    0 -0.13285647131E+02 -0.46729941688E+01  0.13454468078E+02  0.19477371626E+02  0.00000000000E+00 0.  1.
</event>
<event>
 7    1  0.7457761E-012  0.5930192E+02  0.7816164E-02  0.1266605E+00
        -11   -1    0    0    0    0  0.00000000000E+00  0.00000000000E+00  0.45593999997E+02  0.45594000000E+02  0.51100000000E-03 0. -1.
         11   -1    0    0    0    0 -0.00000000000E+00 -0.00000000000E+00 -0.45593999997E+02  0.45594000000E+02  0.51100000000E-03 0.  1.
    9900012    2    1    2    0    0  0.20989989961E+02 -0.10492362244E+02  0.21588249402E+02  0.59301923787E+02  0.49999963086E+02 0.  0.
         12    1    1    2    0    0 -0.20989989961E+02  0.10492362244E+02 -0.21588249402E+02  0.31886076213E+02  0.00000000000E+00 0. -1.
         11    1    3    3    0    0 -0.27348648136E+01  0.62660670454E+01  0.21450178016E+02  0.22513400874E+02  0.51100000000E-03 0. -1.
        -11    1    3    3    0    0  0.18914931200E+02 -0.31294944545E+01  0.74778447395E+01  0.20578788109E+02  0.51100000000E-03 0.  1.
         12    1    3    3    0    0  0.48099235744E+01 -0.13628934835E+02 -0.73397733531E+01  0.16209734804E+02  0.00000000000E+00 0. -1.
</event>
<event>
 7    1  0.7457761E-012  0.5930199E+02  0.7816164E-02  0.1266605E+00
        -11   -1    0    0    0    0  0.00000000000E+00  0.00000000000E+00  0.45593999997E+02  0.45594000000E+02  0.51100000000E-03 0.  1.
         11   -1    0    0    0    0 -0.00000000000E+00 -0.00000000000E+00 -0.45593999997E+02  0.45594000000E+02  0.51100000000E-03 0. -1.
    9900012    2    1    2    0    0  0.31567156773E+02  0.44967755748E+01 -0.10695182955E+00  0.59301987141E+02  0.50000078629E+02 0.  0.
         12    1    1    2    0    0 -0.31567156773E+02 -0.44967755748E+01  0.10695182955E+00  0.31886012859E+02  0.00000000000E+00 0. -1.
         11    1    3    3    0    0  0.21187462303E+00  0.14413333985E+02  0.86956920009E+01  0.16834611580E+02  0.51100000000E-03 0. -1.
        -11    1    3    3    0    0  0.27755890020E+02 -0.68866621549E+01  0.39551489184E+01  0.28869685653E+02  0.51100000000E-03 0.  1.
         12    1    3    3    0    0  0.35993921303E+01 -0.30298962553E+01 -0.12757792749E+02  0.13597689909E+02  0.00000000000E+00 0. -1.
</event>
<event>
 7    1  0.7457761E-012  0.5930192E+02  0.7816164E-02  0.1266605E+00
        -11   -1    0    0    0    0  0.00000000000E+00  0.00000000000E+00  0.45593999997E+02  0.45594000000E+02  0.51100000000E-03 0. -1.
         11   -1    0    0    0    0 -0.00000000000E+00 -0.00000000000E+00 -0.45593999997E+02  0.45594000000E+02  0.51100000000E-03 0.  1.
    9900012    2    1    2    0    0 -0.28465509160E+02 -0.91317728706E+01 -0.11092672614E+02  0.59301923521E+02  0.49999962601E+02 0.  0.
         12    1    1    2    0    0  0.28465509160E+02  0.91317728706E+01  0.11092672614E+02  0.31886076479E+02  0.00000000000E+00 0. -1.
         11    1    3    3    0    0 -0.29268818964E+02 -0.19581684413E+02  0.53185483437E+01  0.35614506661E+02  0.51100000000E-03 0. -1.
        -11    1    3    3    0    0  0.66638965698E-02  0.13005730019E+02 -0.90231885009E+01  0.15829307904E+02  0.51100000000E-03 0.  1.
         12    1    3    3    0    0  0.79664590782E+00 -0.25558184767E+01 -0.73880324566E+01  0.78581089562E+01  0.00000000000E+00 0. -1.
</event>
<event>
 7    1  0.7457761E-012  0.5930193E+02  0.7816164E-02  0.1266605E+00
        -11   -1    0    0    0    0  0.00000000000E+00  0.00000000000E+00  0.45593999997E+02  0.45594000000E+02  0.51100000000E-03 0. -1.
         11   -1    0    0    0    0 -0.00000000000E+00 -0.00000000000E+00 -0.45593999997E+02  0.45594000000E+02  0.51100000000E-03 0.  1.
    9900012    2    1    2    0    0 -0.25475608817E+02 -0.16884495350E+02 -0.90900256026E+01  0.59301931047E+02  0.49999976326E+02 0.  0.
         12    1    1    2    0    0  0.25475608817E+02  0.16884495350E+02  0.90900256026E+01  0.31886068953E+02  0.00000000000E+00 0. -1.
         11    1    3    3    0    0 -0.38629128540E+01  0.78276921694E+01 -0.46983265914E+01  0.99130789081E+01  0.51100000000E-03 0. -1.
        -11    1    3    3    0    0 -0.31750394112E+02 -0.14947462978E+02 -0.38404389834E+01  0.35302452430E+02  0.51100000000E-03 0.  1.
        -12    1    3    3    0    0  0.10137698149E+02 -0.97647245419E+01 -0.55126002771E+00  0.14086399709E+02  0.00000000000E+00 0.  1.
</event>
<event>
 7    1  0.7457761E-012  0.5930198E+02  0.7816164E-02  0.1266605E+00
        -11   -1    0    0    0    0  0.00000000000E+00  0.00000000000E+00  0.45593999997E+02  0.45594000000E+02  0.51100000000E-03 0.  1.
         11   -1    0    0    0    0 -0.00000000000E+00 -0.00000000000E+00 -0.45593999997E+02  0.45594000000E+02  0.51100000000E-03 0. -1.
    9900012    2    1    2    0    0 -0.10295612157E+02 -0.30098396893E+02  0.21921108628E+01  0.59301976804E+02  0.50000059776E+02 0.  0.
         12    1    1    2    0    0  0.10295612157E+02  0.30098396893E+02 -0.21921108628E+01  0.31886023196E+02  0.00000000000E+00 0. -1.
         11    1    3    3    0    0  0.18628500279E+02 -0.11811945595E+02 -0.77969098180E+01  0.23395189342E+02  0.51100000000E-03 0. -1.
        -11    1    3    3    0    0 -0.18289858699E+02 -0.13229586275E+02  0.80919556066E+01  0.23979587778E+02  0.51100000000E-03 0.  1.
         12    1    3    3    0    0 -0.10634253737E+02 -0.50568650233E+01  0.18970650742E+01  0.11927199684E+02  0.00000000000E+00 0. -1.
</event>
<event>
 7    1  0.7457761E-012  0.5930204E+02  0.7816164E-02  0.1266604E+00
        -11   -1    0    0    0    0  0.00000000000E+00  0.00000000000E+00  0.45593999997E+02  0.45594000000E+02  0.51100000000E-03 0. -1.
         11   -1    0    0    0    0 -0.00000000000E+00 -0.00000000000E+00 -0.45593999997E+02  0.45594000000E+02  0.51100000000E-03 0.  1.
    9900012    2    1    2    0    0 -0.33851386472E+01  0.14596563295E+02 -0.28145972383E+02  0.59302037805E+02  0.50000171028E+02 0.  0.
         12    1    1    2    0    0  0.33851386472E+01 -0.14596563295E+02  0.28145972383E+02  0.31885962195E+02  0.00000000000E+00 0. -1.
         11    1    3    3    0    0  0.11692790958E+02 -0.90999666026E+01  0.34447289815E+01  0.15211735949E+02  0.51100000000E-03 0. -1.
        -11    1    3    3    0    0 -0.14854458087E+02  0.12175579835E+02 -0.18844517930E+02  0.26907536596E+02  0.51100000000E-03 0.  1.
         12    1    3    3    0    0 -0.22347151800E+00  0.11520950062E+02 -0.12746183435E+02  0.17182765261E+02  0.00000000000E+00 0. -1.
</event>
<event>
 7    1  0.7457761E-012  0.5930202E+02  0.7816164E-02  0.1266604E+00
        -11   -1    0    0    0    0  0.00000000000E+00  0.00000000000E+00  0.45593999997E+02  0.45594000000E+02  0.51100000000E-03 0.  1.
         11   -1    0    0    0    0 -0.00000000000E+00 -0.00000000000E+00 -0.45593999997E+02  0.45594000000E+02  0.51100000000E-03 0. -1.
    9900012    2    1    2    0    0  0.11619558342E+02  0.82994298995E-01  0.29693340351E+02  0.59302023689E+02  0.50000145283E+02 0.  0.
         12    1    1    2    0    0 -0.11619558342E+02 -0.82994298995E-01 -0.29693340351E+02  0.31885976311E+02  0.00000000000E+00 0. -1.
         11    1    3    3    0    0 -0.15202436292E+02  0.75316880468E+00  0.18032657868E+02  0.23597840632E+02  0.51100000000E-03 0. -1.
        -11    1    3    3    0    0  0.11758635880E+02 -0.57387739201E+01 -0.37038400792E+01  0.13598436507E+02  0.51100000000E-03 0.  1.
         12    1    3    3    0    0  0.15063358754E+02  0.50685994144E+01  0.15364522562E+02  0.22105746550E+02  0.00000000000E+00 0. -1.
</event>
<event>
 7    1  0.7457761E-012  0.5930194E+02  0.7816164E-02  0.1266605E+00
        -11   -1    0    0    0    0  0.00000000000E+00  0.00000000000E+00  0.45593999997E+02  0.45594000000E+02  0.51100000000E-03 0. -1.
         11   -1    0    0    0    0 -0.00000000000E+00 -0.00000000000E+00 -0.45593999997E+02  0.45594000000E+02  0.51100000000E-03 0.  1.
    9900012    2    1    2    0    0  0.15730908575E+02 -0.19300313942E+02 -0.19918767171E+02  0.59301938963E+02  0.49999990763E+02 0.  0.
         12    1    1    2    0    0 -0.15730908575E+02  0.19300313942E+02  0.19918767171E+02  0.31886061037E+02  0.00000000000E+00 0. -1.
         11    1    3    3    0    0 -0.65284154643E+01 -0.55982570172E+01  0.50310028325E+01  0.99635174446E+01  0.51100000000E-03 0. -1.
        -11    1    3    3    0    0  0.31119173664E+02 -0.97654598683E+01 -0.16881817962E+02  0.36725508219E+02  0.51100000000E-03 0.  1.
        -12    1    3    3    0    0 -0.88598496243E+01 -0.39365970563E+01 -0.80679520420E+01  0.12612913299E+02  0.00000000000E+00 0.  1.
</event>
<event>
 7    1  0.7457761E-012  0.5930195E+02  0.7816164E-02  0.1266605E+00
        -11   -1    0    0    0    0  0.00000000000E+00  0.00000000000E+00  0.45593999997E+02  0.45594000000E+02  0.51100000000E-03 0. -1.
         11   -1    0    0    0    0 -0.00000000000E+00 -0.00000000000E+00 -0.45593999997E+02  0.45594000000E+02  0.51100000000E-03 0.  1.
    9900012    2    1    2    0    0  0.20067823223E+02  0.32299277313E+01 -0.24567662354E+02  0.59301952964E+02  0.50000016297E+02 0.  0.
         12    1    1    2    0    0 -0.20067823223E+02 -0.32299277313E+01  0.24567662354E+02  0.31886047036E+02  0.00000000000E+00 0. -1.
         11    1    3    3    0    0  0.13096431791E+02  0.22341002038E+01  0.10159102585E+02  0.16724685198E+02  0.51100000000E-03 0. -1.
        -11    1    3    3    0    0  0.46571210128E+01 -0.89552647573E+01 -0.29339465722E+02  0.31027242741E+02  0.51100000000E-03 0.  1.
        -12    1    3    3    0    0  0.23142704193E+01  0.99510922848E+01 -0.53872992171E+01  0.11550025025E+02  0.00000000000E+00 0.  1.
</event>
<event>
 7    1  0.7457761E-012  0.5930195E+02  0.7816164E-02  0.1266605E+00
        -11   -1    0    0    0    0  0.00000000000E+00  0.00000000000E+00  0.45593999997E+02  0.45594000000E+02  0.51100000000E-03 0. -1.
         11   -1    0    0    0    0 -0.00000000000E+00 -0.00000000000E+00 -0.45593999997E+02  0.45594000000E+02  0.51100000000E-03 0.  1.
    9900012    2    1    2    0    0  0.24409567394E+02  0.67962412230E+01  0.19357284124E+02  0.59301947817E+02  0.50000006911E+02 0.  0.
         12    1    1    2    0    0 -0.24409567394E+02 -0.67962412230E+01 -0.19357284124E+02  0.31886052183E+02  0.00000000000E+00 0. -1.
         11    1    3    3    0    0  0.85318974825E+01  0.74313525463E+01 -0.10801421589E+02  0.15642537644E+02  0.51100000000E-03 0. -1.
        -11    1    3    3    0    0  0.21663700247E+02 -0.68953049536E+01  0.24524464568E+02  0.33441149822E+02  0.51100000000E-03 0.  1.
         12    1    3    3    0    0 -0.57860303357E+01  0.62601936303E+01  0.56342411459E+01  0.10218260352E+02  0.00000000000E+00 0. -1.
</event>
<event>
 7    1  0.7457761E-012  0.5930194E+02  0.7816164E-02  0.1266605E+00
        -11   -1    0    0    0    0  0.00000000000E+00  0.00000000000E+00  0.45593999997E+02  0.45594000000E+02  0.51100000000E-03 0.  1.
         11   -1    0    0    0    0 -0.00000000000E+00 -0.00000000000E+00 -0.45593999997E+02  0.45594000000E+02  0.51100000000E-03 0. -1.
    9900012    2    1    2    0    0  0.29581583392E+02  0.81365966665E+01 -0.86860044442E+01  0.59301937927E+02  0.49999988874E+02 0.  0.
         12    1    1    2    0    0 -0.29581583392E+02 -0.81365966665E+01  0.86860044442E+01  0.31886062073E+02  0.00000000000E+00 0. -1.
         11    1    3    3    0    0  0.22664861419E+02  0.24385984189E+02 -0.18291705893E+02  0.37986295855E+02  0.51100000000E-03 0. -1.
        -11    1    3    3    0    0  0.46329284970E+01 -0.69713882397E+01  0.80904589850E+01  0.11641297492E+02  0.51100000000E-03 0.  1.
         12    1    3    3    0    0  0.22837934761E+01 -0.92779992829E+01  0.15152424637E+01  0.96743445803E+01  0.00000000000E+00 0. -1.
</event>
<event>
 7    1  0.7457761E-012  0.5930192E+02  0.7816164E-02  0.1266605E+00
        -11   -1    0    0    0    0  0.00000000000E+00  0.00000000000E+00  0.45593999997E+02  0.45594000000E+02  0.51100000000E-03 0.  1.
         11   -1    0    0    0    0 -0.00000000000E+00 -0.00000000000E+00 -0.45593999997E+02  0.45594000000E+02  0.51100000000E-03 0. -1.
    9900012    2    1    2    0    0  0.47276482816E+01 -0.28040567511E+02  0.14425599425E+02  0.59301921480E+02  0.49999958878E+02 0.  0.
         12    1    1    2    0    0 -0.47276482816E+01  0.28040567511E+02 -0.14425599425E+02  0.31886078520E+02  0.00000000000E+00 0. -1.
         11    1    3    3    0    0  0.10243553485E+02  0.75217187233E+01  0.83934387563E+01  0.15230116709E+02  0.51100000000E-03 0. -1.
        -11    1    3    3    0    0  0.49086672777E+01 -0.27749202405E+02 -0.28208905031E+01  0.28320852248E+02  0.51100000000E-03 0.  1.
        -12    1    3    3    0    0 -0.10424572481E+02 -0.78130838296E+01  0.88530511718E+01  0.15750952523E+02  0.00000000000E+00 0.  1.
</event>
<event>
 7    1  0.7457761E-012  0.5930189E+02  0.7816164E-02  0.1266605E+00
        -11   -1    0    0    0    0  0.00000000000E+00  0.00000000000E+00  0.45593999997E+02  0.45594000000E+02  0.51100000000E-03 0.  1.
         11   -1    0    0    0    0 -0.00000000000E+00 -0.00000000000E+00 -0.45593999997E+02  0.45594000000E+02  0.51100000000E-03 0. -1.
    9900012    2    1    2    0    0  0.17786925226E+02  0.26336168024E+02 -0.25991296353E+01  0.59301891268E+02  0.49999903779E+02 0.  0.
         12    1    1    2    0    0 -0.17786925226E+02 -0.26336168024E+02  0.25991296353E+01  0.31886108732E+02  0.00000000000E+00 0. -1.
         11    1    3    3    0    0 -0.21378290323E+01  0.23815996136E+02 -0.20003071936E+02  0.31175228501E+02  0.51100000000E-03 0. -1.
        -11    1    3    3    0    0  0.69079211829E+01  0.53053431973E+01  0.80202216219E+01  0.11840185667E+02  0.51100000000E-03 0.  1.
         12    1    3    3    0    0  0.13016833076E+02 -0.27851713092E+01  0.93837206792E+01  0.16286477100E+02  0.00000000000E+00 0. -1.
</event>
<event>
 7    1  0.7457761E-012  0.5930192E+02  0.7816164E-02  0.1266605E+00
        -11   -1    0    0    0    0  0.00000000000E+00  0.00000000000E+00  0.45593999997E+02  0.45594000000E+02  0.51100000000E-03 0. -1.
         11   -1    0    0    0    0 -0.00000000000E+00 -0.00000000000E+00 -0.45593999997E+02  0.45594000000E+02  0.51100000000E-03 0.  1.
    9900012    2    1    2    0    0  0.14786830064E+02 -0.26401077185E+02 -0.10052617554E+02  0.59301916209E+02  0.49999949265E+02 0.  0.
         12    1    1    2    0    0 -0.14786830064E+02  0.26401077185E+02  0.10052617554E+02  0.31886083791E+02  0.00000000000E+00 0. -1.
         11    1    3    3    0    0  0.22080233278E+01 -0.23528533490E+02  0.72082472719E+01  0.24706802387E+02  0.51100000000E-03 0. -1.
        -11    1    3    3    0    0 -0.46673929248E+01 -0.89397800276E+01 -0.11783690740E+02  0.15509983603E+02  0.51100000000E-03 0.  1.
         12    1    3    3    0    0  0.17246199661E+02  0.60672363332E+01 -0.54771740861E+01  0.19085130218E+02  0.00000000000E+00 0. -1.
</event>
<event>
 7    1  0.7457761E-012  0.5930193E+02  0.7816164E-02  0.1266605E+00
        -11   -1    0    0    0    0  0.00000000000E+00  0.00000000000E+00  0.45593999997E+02  0.45594000000E+02  0.51100000000E-03 0. -1.
         11   -1    0    0    0    0 -0.00000000000E+00 -0.00000000000E+00 -0.45593999997E+02  0.45594000000E+02  0.51100000000E-03 0.  1.
    9900012    2    1    2    0    0  0.92153952758E+01  0.17697882930E+00 -0.30524850017E+02  0.59301932508E+02  0.49999978990E+02 0.  0.
         12    1    1    2    0    0 -0.92153952758E+01 -0.17697882930E+00  0.30524850017E+02  0.31886067492E+02  0.00000000000E+00 0. -1.
         11    1    3    3    0    0  0.14945907973E+02  0.10884141977E+02 -0.15387665966E+02  0.24054624833E+02  0.51100000000E-03 0. -1.
        -11    1    3    3    0    0 -0.16052524739E+02 -0.90295886341E+01 -0.16466742319E+02  0.24705680000E+02  0.51100000000E-03 0.  1.
         12    1    3    3    0    0  0.10322012042E+02 -0.16775745136E+01  0.13295582681E+01  0.10541627675E+02  0.00000000000E+00 0. -1.
</event>
<event>
 7    1  0.7457761E-012  0.5930200E+02  0.7816164E-02  0.1266605E+00
        -11   -1    0    0    0    0  0.00000000000E+00  0.00000000000E+00  0.45593999997E+02  0.45594000000E+02  0.51100000000E-03 0. -1.
         11   -1    0    0    0    0 -0.00000000000E+00 -0.00000000000E+00 -0.45593999997E+02  0.45594000000E+02  0.51100000000E-03 0.  1.
    9900012    2    1    2    0    0 -0.35542406295E+01 -0.31680239491E+02 -0.66842824739E+00  0.59301999985E+02  0.50000102053E+02 0.  0.
         12    1    1    2    0    0  0.35542406295E+01  0.31680239491E+02  0.66842824739E+00  0.31886000015E+02  0.00000000000E+00 0. -1.
         11    1    3    3    0    0 -0.10359733511E+02 -0.37928069643E+02  0.31753200458E+01  0.39445471260E+02  0.51100000000E-03 0. -1.
        -11    1    3    3    0    0  0.10681101756E+02  0.12300496910E+01 -0.69437582794E+01  0.12799013098E+02  0.51100000000E-03 0.  1.
         12    1    3    3    0    0 -0.38756088748E+01  0.50177804618E+01  0.31000099862E+01  0.70575156272E+01  0.00000000000E+00 0. -1.
</event>
<event>
 7    1  0.7457761E-012  0.5930194E+02  0.7816164E-02  0.1266605E+00
        -11   -1    0    0    0    0  0.00000000000E+00  0.00000000000E+00  0.45593999997E+02  0.45594000000E+02  0.51100000000E-03 0. -1.
         11   -1    0    0    0    0 -0.00000000000E+00 -0.00000000000E+00 -0.45593999997E+02  0.45594000000E+02  0.51100000000E-03 0.  1.
    9900012    2    1    2    0    0 -0.14646416629E+02  0.10531788519E+02 -0.26292291965E+02  0.59301941820E+02  0.49999995974E+02 0.  0.
         12    1    1    2    0    0  0.14646416629E+02 -0.10531788519E+02  0.26292291965E+02  0.31886058180E+02  0.00000000000E+00 0. -1.
         11    1    3    3    0    0  0.40211650950E+01  0.13721372757E+00  0.86288059922E+01  0.95207609696E+01  0.51100000000E-03 0. -1.
        -11    1    3    3    0    0 -0.12691558406E+02  0.31282969178E+01 -0.37756476864E+02  0.39955142871E+02  0.51100000000E-03 0.  1.
        -12    1    3    3    0    0 -0.59760233179E+01  0.72662778734E+01  0.28353789073E+01  0.98260379797E+01  0.00000000000E+00 0.  1.
</event>
<event>
 7    1  0.7457761E-012  0.5930190E+02  0.7816164E-02  0.1266605E+00
        -11   -1    0    0    0    0  0.00000000000E+00  0.00000000000E+00  0.45593999997E+02  0.45594000000E+02  0.51100000000E-03 0.  1.
         11   -1    0    0    0    0 -0.00000000000E+00 -0.00000000000E+00 -0.45593999997E+02  0.45594000000E+02  0.51100000000E-03 0. -1.
    9900012    2    1    2    0    0 -0.15595327025E+02 -0.67503329085E+01  0.26980398641E+02  0.59301903810E+02  0.49999926653E+02 0.  0.
         12    1    1    2    0    0  0.15595327025E+02  0.67503329085E+01 -0.26980398641E+02  0.31886096190E+02  0.00000000000E+00 0. -1.
         11    1    3    3    0    0 -0.72899076767E+01  0.62832802391E+01  0.27071103592E+02  0.28730941760E+02  0.51100000000E-03 0.  1.
        -11    1    3    3    0    0 -0.36739093096E+01 -0.20744403723E+02  0.24883798481E+01  0.21213673184E+02  0.51100000000E-03 0. -1.
         12    1    3    3    0    0 -0.46315100385E+01  0.77107905749E+01 -0.25790847988E+01  0.93572888663E+01  0.00000000000E+00 0. -1.
</event>
<event>
 7    1  0.7457761E-012  0.5930195E+02  0.7816164E-02  0.1266605E+00
        -11   -1    0    0    0    0  0.00000000000E+00  0.00000000000E+00  0.45593999997E+02  0.45594000000E+02  0.51100000000E-03 0.  1.
         11   -1    0    0    0    0 -0.00000000000E+00 -0.00000000000E+00 -0.45593999997E+02  0.45594000000E+02  0.51100000000E-03 0. -1.
    9900012    2    1    2    0    0  0.63079158373E+01  0.30470916769E+02  0.69608834365E+01  0.59301945537E+02  0.50000002753E+02 0.  0.
         12    1    1    2    0    0 -0.63079158373E+01 -0.30470916769E+02 -0.69608834365E+01  0.31886054463E+02  0.00000000000E+00 0. -1.
         11    1    3    3    0    0  0.16922763990E+02  0.14590134004E+02 -0.14041444341E+02  0.26389659164E+02  0.51100000000E-03 0. -1.
        -11    1    3    3    0    0 -0.11452177810E+02  0.18959343664E+02  0.18351317685E+02  0.28764213005E+02  0.51100000000E-03 0.  1.
         12    1    3    3    0    0  0.83732965717E+00 -0.30785608986E+01  0.26510100928E+01  0.41480733689E+01  0.00000000000E+00 0. -1.
</event>
<event>
 7    1  0.7457761E-012  0.5930194E+02  0.7816164E-02  0.1266605E+00
        -11   -1    0    0    0    0  0.00000000000E+00  0.00000000000E+00  0.45593999997E+02  0.45594000000E+02  0.51100000000E-03 0. -1.
         11   -1    0    0    0    0 -0.00000000000E+00 -0.00000000000E+00 -0.45593999997E+02  0.45594000000E+02  0.51100000000E-03 0.  1.
    9900012    2    1    2    0    0  0.24878503250E+02  0.18014518439E+02 -0.85590789402E+01  0.59301943002E+02  0.49999998130E+02 0.  0.
         12    1    1    2    0    0 -0.24878503250E+02 -0.18014518439E+02  0.85590789402E+01  0.31886056998E+02  0.00000000000E+00 0. -1.
         11    1    3    3    0    0  0.22115706950E+02 -0.10702124443E+01  0.61932225045E+01  0.22991430008E+02  0.51100000000E-03 0. -1.
        -11    1    3    3    0    0  0.25085256746E+01  0.25240886400E+02 -0.68194237467E+01  0.26265939690E+02  0.51100000000E-03 0.  1.
         12    1    3    3    0    0  0.25427062519E+00 -0.61561555162E+01 -0.79328776981E+01  0.10044573304E+02  0.00000000000E+00 0. -1.
</event>
<event>
 7    1  0.7457761E-012  0.5930194E+02  0.7816164E-02  0.1266605E+00
        -11   -1    0    0    0    0  0.00000000000E+00  0.00000000000E+00  0.45593999997E+02  0.45594000000E+02  0.51100000000E-03 0.  1.
         11   -1    0    0    0    0 -0.00000000000E+00 -0.00000000000E+00 -0.45593999997E+02  0.45594000000E+02  0.51100000000E-03 0. -1.
    9900012    2    1    2    0    0 -0.52213247717E+00 -0.77403354651E+01  0.30927910183E+02  0.59301936528E+02  0.49999986323E+02 0.  0.
         12    1    1    2    0    0  0.52213247717E+00  0.77403354651E+01 -0.30927910183E+02  0.31886063472E+02  0.00000000000E+00 0. -1.
         11    1    3    3    0    0 -0.23460679573E+02 -0.71921005989E+01  0.22658881940E+02  0.33399921079E+02  0.51100000000E-03 0. -1.
        -11    1    3    3    0    0  0.46242829925E+01 -0.31531047126E+01  0.41038957418E+01  0.69403186559E+01  0.51100000000E-03 0.  1.
         12    1    3    3    0    0  0.18314264103E+02  0.26048698464E+01  0.41651325012E+01  0.18961696794E+02  0.00000000000E+00 0. -1.
</event>
<event>
 7    1  0.7457761E-012  0.5930191E+02  0.7816164E-02  0.1266605E+00
        -11   -1    0    0    0    0  0.00000000000E+00  0.00000000000E+00  0.45593999997E+02  0.45594000000E+02  0.51100000000E-03 0.  1.
         11   -1    0    0    0    0 -0.00000000000E+00 -0.00000000000E+00 -0.45593999997E+02  0.45594000000E+02  0.51100000000E-03 0. -1.
    9900012    2    1    2    0    0  0.14127118831E+02  0.25005034105E+02  0.13852635007E+02  0.59301910342E+02  0.49999938565E+02 0.  0.
         12    1    1    2    0    0 -0.14127118831E+02 -0.25005034105E+02 -0.13852635007E+02  0.31886089658E+02  0.00000000000E+00 0. -1.
         11    1    3    3    0    0 -0.56335464526E+01 -0.90999784666E+01  0.28921754094E+00  0.10706544763E+02  0.51100000000E-03 0. -1.
        -11    1    3    3    0    0  0.15728866388E+02  0.37955535437E+02  0.11748500447E+02  0.42732273180E+02  0.51100000000E-03 0.  1.
        -12    1    3    3    0    0  0.40317988960E+01 -0.38505228657E+01  0.18149170196E+01  0.58630923979E+01  0.00000000000E+00 0.  1.
</event>
<event>
 7    1  0.7457761E-012  0.5930193E+02  0.7816164E-02  0.1266605E+00
        -11   -1    0    0    0    0  0.00000000000E+00  0.00000000000E+00  0.45593999997E+02  0.45594000000E+02  0.51100000000E-03 0.  1.
         11   -1    0    0    0    0 -0.00000000000E+00 -0.00000000000E+00 -0.45593999997E+02  0.45594000000E+02  0.51100000000E-03 0. -1.
    9900012    2    1    2    0    0 -0.23471945452E+02  0.53012485273E+00  0.21575631825E+02  0.59301934951E+02  0.49999983447E+02 0.  0.
         12    1    1    2    0    0  0.23471945452E+02 -0.53012485273E+00 -0.21575631825E+02  0.31886065049E+02  0.00000000000E+00 0. -1.
         11    1    3    3    0    0  0.72513902381E+01  0.32534386876E+01 -0.31826351033E+01  0.85613486170E+01  0.51100000000E-03 0. -1.
        -11    1    3    3    0    0 -0.22117062202E+02 -0.51275194009E+01  0.32002013461E+02  0.39237542756E+02  0.51100000000E-03 0.  1.
        -12    1    3    3    0    0 -0.86062734874E+01  0.24042055660E+01 -0.72437465327E+01  0.11503043579E+02  0.00000000000E+00 0.  1.
</event>
<event>
 7    1  0.7457761E-012  0.5930194E+02  0.7816164E-02  0.1266605E+00
        -11   -1    0    0    0    0  0.00000000000E+00  0.00000000000E+00  0.45593999997E+02  0.45594000000E+02  0.51100000000E-03 0.  1.
         11   -1    0    0    0    0 -0.00000000000E+00 -0.00000000000E+00 -0.45593999997E+02  0.45594000000E+02  0.51100000000E-03 0. -1.
    9900012    2    1    2    0    0 -0.22805116869E+02 -0.71371177950E+01  0.21111820558E+02  0.59301940771E+02  0.49999994061E+02 0.  0.
         12    1    1    2    0    0  0.22805116869E+02  0.71371177950E+01 -0.21111820558E+02  0.31886059229E+02  0.00000000000E+00 0. -1.
         11    1    3    3    0    0  0.63203266686E+01 -0.81007826749E+01 -0.22433249974E+01  0.10516735066E+02  0.51100000000E-03 0. -1.
        -11    1    3    3    0    0 -0.22893215372E+02 -0.22577411282E+00  0.31198128115E+02  0.38697202511E+02  0.51100000000E-03 0.  1.
         12    1    3    3    0    0 -0.62322281657E+01  0.11894389927E+01 -0.78429825593E+01  0.10088003194E+02  0.00000000000E+00 0. -1.
</event>
<event>
 7    1  0.7457761E-012  0.5930193E+02  0.7816164E-02  0.1266605E+00
        -11   -1    0    0    0    0  0.00000000000E+00  0.00000000000E+00  0.45593999997E+02  0.45594000000E+02  0.51100000000E-03 0. -1.
         11   -1    0    0    0    0 -0.00000000000E+00 -0.00000000000E+00 -0.45593999997E+02  0.45594000000E+02  0.51100000000E-03 0.  1.
    9900012    2    1    2    0    0  0.17208788435E+02  0.23946066521E+02 -0.12131147333E+02  0.59301933500E+02  0.49999980800E+02 0.  0.
         12    1    1    2    0    0 -0.17208788435E+02 -0.23946066521E+02  0.12131147333E+02  0.31886066500E+02  0.00000000000E+00 0. -1.
         11    1    3    3    0    0  0.14703122487E+02  0.55306822688E+01 -0.27688017140E+02  0.31833889970E+02  0.51100000000E-03 0. -1.
        -11    1    3    3    0    0 -0.28961997111E+01  0.86916178266E+01  0.11002614702E+01  0.92272839327E+01  0.51100000000E-03 0.  1.
         12    1    3    3    0    0  0.54018656584E+01  0.97237664258E+01  0.14456608336E+02  0.18240759597E+02  0.00000000000E+00 0. -1.
</event>
<event>
 7    1  0.7457761E-012  0.5930195E+02  0.7816164E-02  0.1266605E+00
        -11   -1    0    0    0    0  0.00000000000E+00  0.00000000000E+00  0.45593999997E+02  0.45594000000E+02  0.51100000000E-03 0.  1.
         11   -1    0    0    0    0 -0.00000000000E+00 -0.00000000000E+00 -0.45593999997E+02  0.45594000000E+02  0.51100000000E-03 0. -1.
    9900012    2    1    2    0    0 -0.42318599626E+01  0.19285092114E+02  0.25037910041E+02  0.59301947315E+02  0.50000005995E+02 0.  0.
         12    1    1    2    0    0  0.42318599626E+01 -0.19285092114E+02 -0.25037910041E+02  0.31886052685E+02  0.00000000000E+00 0. -1.
         11    1    3    3    0    0 -0.17535521464E+02 -0.58817819729E+01  0.85946348916E+01  0.20395039136E+02  0.51100000000E-03 0. -1.
        -11    1    3    3    0    0  0.17079920747E+02  0.10737971555E+02  0.75467022352E+01  0.21540205216E+02  0.51100000000E-03 0.  1.
        -12    1    3    3    0    0 -0.37762592457E+01  0.14428902532E+02  0.88965729146E+01  0.17366702963E+02  0.00000000000E+00 0.  1.
</event>
<event>
 7    1  0.7457761E-012  0.5930191E+02  0.7816164E-02  0.1266605E+00
        -11   -1    0    0    0    0  0.00000000000E+00  0.00000000000E+00  0.45593999997E+02  0.45594000000E+02  0.51100000000E-03 0. -1.
         11   -1    0    0    0    0 -0.00000000000E+00 -0.00000000000E+00 -0.45593999997E+02  0.45594000000E+02  0.51100000000E-03 0.  1.
    9900012    2    1    2    0    0 -0.80228565225E+01 -0.13170892436E+02 -0.27908490558E+02  0.59301914014E+02  0.49999945261E+02 0.  0.
         12    1    1    2    0    0  0.80228565225E+01  0.13170892436E+02  0.27908490558E+02  0.31886085986E+02  0.00000000000E+00 0. -1.
         11    1    3    3    0    0  0.12629341428E+02 -0.91557541023E+01 -0.10748595185E+02  0.18943610976E+02  0.51100000000E-03 0. -1.
        -11    1    3    3    0    0 -0.11105323474E+02 -0.32169240591E+00 -0.25070196009E+02  0.27421641520E+02  0.51100000000E-03 0.  1.
         12    1    3    3    0    0 -0.95468744759E+01 -0.36934459276E+01  0.79103006361E+01  0.12936661518E+02  0.00000000000E+00 0. -1.
</event>
<event>
 7    1  0.7457761E-012  0.5930195E+02  0.7816164E-02  0.1266605E+00
        -11   -1    0    0    0    0  0.00000000000E+00  0.00000000000E+00  0.45593999997E+02  0.45594000000E+02  0.51100000000E-03 0. -1.
         11   -1    0    0    0    0 -0.00000000000E+00 -0.00000000000E+00 -0.45593999997E+02  0.45594000000E+02  0.51100000000E-03 0.  1.
    9900012    2    1    2    0    0  0.12062954521E+02 -0.11823053923E+02 -0.27044793969E+02  0.59301947302E+02  0.50000005971E+02 0.  0.
         12    1    1    2    0    0 -0.12062954521E+02  0.11823053923E+02  0.27044793969E+02  0.31886052698E+02  0.00000000000E+00 0. -1.
         11    1    3    3    0    0  0.18068139080E+02  0.15072671694E+01 -0.73422999815E+01  0.19561157262E+02  0.51100000000E-03 0. -1.
        -11    1    3    3    0    0 -0.80060166987E+01 -0.23091802064E+02 -0.15397510948E+02  0.28886172636E+02  0.51100000000E-03 0.  1.
        -12    1    3    3    0    0  0.20008321402E+01  0.97614809711E+01 -0.43049830400E+01  0.10854617404E+02  0.00000000000E+00 0.  1.
</event>
<event>
 7    1  0.7457761E-012  0.5930195E+02  0.7816164E-02  0.1266605E+00
        -11   -1    0    0    0    0  0.00000000000E+00  0.00000000000E+00  0.45593999997E+02  0.45594000000E+02  0.51100000000E-03 0.  1.
         11   -1    0    0    0    0 -0.00000000000E+00 -0.00000000000E+00 -0.45593999997E+02  0.45594000000E+02  0.51100000000E-03 0. -1.
    9900012    2    1    2    0    0 -0.62316409565E+01 -0.19264839107E+02  0.24632353505E+02  0.59301949538E+02  0.50000010050E+02 0.  0.
         12    1    1    2    0    0  0.62316409565E+01  0.19264839107E+02 -0.24632353505E+02  0.31886050462E+02  0.00000000000E+00 0. -1.
         11    1    3    3    0    0  0.11325493505E+02  0.72489685282E+00 -0.31592313358E+01  0.11780196156E+02  0.51100000000E-03 0. -1.
        -11    1    3    3    0    0 -0.88299034810E+01 -0.10239211729E+02  0.31196343399E+02  0.34000301382E+02  0.51100000000E-03 0.  1.
         12    1    3    3    0    0 -0.87272309809E+01 -0.97505242305E+01 -0.34047585577E+01  0.13521452000E+02  0.00000000000E+00 0. -1.
</event>
<event>
 7    1  0.7457761E-012  0.5930194E+02  0.7816164E-02  0.1266605E+00
        -11   -1    0    0    0    0  0.00000000000E+00  0.00000000000E+00  0.45593999997E+02  0.45594000000E+02  0.51100000000E-03 0. -1.
         11   -1    0    0    0    0 -0.00000000000E+00 -0.00000000000E+00 -0.45593999997E+02  0.45594000000E+02  0.51100000000E-03 0.  1.
    9900012    2    1    2    0    0 -0.25422950393E+02  0.18284861062E+02  0.60048701640E+01  0.59301936956E+02  0.49999987103E+02 0.  0.
         12    1    1    2    0    0  0.25422950393E+02 -0.18284861062E+02 -0.60048701640E+01  0.31886063044E+02  0.00000000000E+00 0. -1.
         11    1    3    3    0    0 -0.14586947566E+02  0.85129226328E+01 -0.12159585877E+00  0.16889750646E+02  0.51100000000E-03 0. -1.
        -11    1    3    3    0    0  0.49274065596E+01  0.61285759744E+01  0.19752119057E+02  0.21259938532E+02  0.51100000000E-03 0.  1.
        -12    1    3    3    0    0 -0.15763409387E+02  0.36433624544E+01 -0.13625653034E+02  0.21152247778E+02  0.00000000000E+00 0.  1.
</event>
<event>
 7    1  0.7457761E-012  0.5930183E+02  0.7816164E-02  0.1266605E+00
        -11   -1    0    0    0    0  0.00000000000E+00  0.00000000000E+00  0.45593999997E+02  0.45594000000E+02  0.51100000000E-03 0.  1.
         11   -1    0    0    0    0 -0.00000000000E+00 -0.00000000000E+00 -0.45593999997E+02  0.45594000000E+02  0.51100000000E-03 0. -1.
    9900012    2    1    2    0    0 -0.16796589217E+02 -0.24889643858E+02  0.10728855375E+02  0.59301825592E+02  0.49999784002E+02 0.  0.
         12    1    1    2    0    0  0.16796589217E+02  0.24889643858E+02 -0.10728855375E+02  0.31886174408E+02  0.00000000000E+00 0. -1.
         11    1    3    3    0    0  0.10738950870E+02 -0.20756813409E+02  0.19927330078E+01  0.23455092279E+02  0.51100000000E-03 0.  1.
        -11    1    3    3    0    0 -0.21094207072E+02  0.32323116766E+01 -0.18633164687E+01  0.21421609634E+02  0.51100000000E-03 0. -1.
         12    1    3    3    0    0 -0.64413330152E+01 -0.73651421249E+01  0.10599438836E+02  0.14425123679E+02  0.00000000000E+00 0. -1.
</event>
<event>
 7    1  0.7457761E-012  0.5930196E+02  0.7816164E-02  0.1266605E+00
        -11   -1    0    0    0    0  0.00000000000E+00  0.00000000000E+00  0.45593999997E+02  0.45594000000E+02  0.51100000000E-03 0.  1.
         11   -1    0    0    0    0 -0.00000000000E+00 -0.00000000000E+00 -0.45593999997E+02  0.45594000000E+02  0.51100000000E-03 0. -1.
    9900012    2    1    2    0    0 -0.31221179126E+02  0.13721419708E+01  0.63304690002E+01  0.59301958581E+02  0.50000026543E+02 0.  0.
         12    1    1    2    0    0  0.31221179126E+02 -0.13721419708E+01 -0.63304690002E+01  0.31886041419E+02  0.00000000000E+00 0. -1.
         11    1    3    3    0    0 -0.23785251372E+02 -0.12891657482E+01  0.68327435067E+00  0.23829960035E+02  0.51100000000E-03 0. -1.
        -11    1    3    3    0    0  0.13237568002E+02 -0.29744811123E+01  0.15499430905E+01  0.13655880358E+02  0.51100000000E-03 0.  1.
        -12    1    3    3    0    0 -0.20673495755E+02  0.56357888313E+01  0.40972515591E+01  0.21816118189E+02  0.00000000000E+00 0.  1.
</event>
<event>
 7    1  0.7457761E-012  0.5930200E+02  0.7816164E-02  0.1266605E+00
        -11   -1    0    0    0    0  0.00000000000E+00  0.00000000000E+00  0.45593999997E+02  0.45594000000E+02  0.51100000000E-03 0.  1.
         11   -1    0    0    0    0 -0.00000000000E+00 -0.00000000000E+00 -0.45593999997E+02  0.45594000000E+02  0.51100000000E-03 0. -1.
    9900012    2    1    2    0    0  0.19939554902E+02 -0.62590543678E+01  0.24082265638E+02  0.59301997906E+02  0.50000098262E+02 0.  0.
         12    1    1    2    0    0 -0.19939554902E+02  0.62590543678E+01 -0.24082265638E+02  0.31886002094E+02  0.00000000000E+00 0. -1.
         11    1    3    3    0    0 -0.22774640381E+01 -0.15150163345E+02  0.29357896875E+02  0.33114957361E+02  0.51100000000E-03 0. -1.
        -11    1    3    3    0    0  0.13516887611E+02  0.90932109524E+01 -0.58602075336E+00  0.16301415788E+02  0.51100000000E-03 0.  1.
         12    1    3    3    0    0  0.87001313291E+01 -0.20210197513E+00 -0.46896104838E+01  0.98856247573E+01  0.00000000000E+00 0. -1.
</event>
<event>
 7    1  0.7457761E-012  0.5930192E+02  0.7816164E-02  0.1266605E+00
        -11   -1    0    0    0    0  0.00000000000E+00  0.00000000000E+00  0.45593999997E+02  0.45594000000E+02  0.51100000000E-03 0. -1.
         11   -1    0    0    0    0 -0.00000000000E+00 -0.00000000000E+00 -0.45593999997E+02  0.45594000000E+02  0.51100000000E-03 0.  1.
    9900012    2    1    2    0    0 -0.99844203291E+01  0.29054529220E+02  0.85362704921E+01  0.59301917904E+02  0.49999952357E+02 0.  0.
         12    1    1    2    0    0  0.99844203291E+01 -0.29054529220E+02 -0.85362704921E+01  0.31886082096E+02  0.00000000000E+00 0. -1.
         11    1    3    3    0    0 -0.16541871420E+02  0.30257377858E+02  0.20850839543E+02  0.40297641802E+02  0.51100000000E-03 0. -1.
        -11    1    3    3    0    0 -0.20749424940E+01 -0.10333937996E+01 -0.97144833399E+01  0.99872156240E+01  0.51100000000E-03 0.  1.
         12    1    3    3    0    0  0.86323935854E+01 -0.16945483841E+00 -0.26000857113E+01  0.90170604779E+01  0.00000000000E+00 0. -1.
</event>
<event>
 7    1  0.7457761E-012  0.5930192E+02  0.7816164E-02  0.1266605E+00
        -11   -1    0    0    0    0  0.00000000000E+00  0.00000000000E+00  0.45593999997E+02  0.45594000000E+02  0.51100000000E-03 0.  1.
         11   -1    0    0    0    0 -0.00000000000E+00 -0.00000000000E+00 -0.45593999997E+02  0.45594000000E+02  0.51100000000E-03 0. -1.
    9900012    2    1    2    0    0  0.16408029353E+02 -0.27020912604E+02  0.41676230713E+01  0.59301917970E+02  0.49999952477E+02 0.  0.
         12    1    1    2    0    0 -0.16408029353E+02  0.27020912604E+02 -0.41676230713E+01  0.31886082030E+02  0.00000000000E+00 0. -1.
         11    1    3    3    0    0 -0.12634202312E+02 -0.47282198040E+01 -0.10586058823E+02  0.17147704577E+02  0.51100000000E-03 0. -1.
        -11    1    3    3    0    0  0.59986161462E+01 -0.33009697098E+01  0.96927383578E+01  0.11867138401E+02  0.51100000000E-03 0.  1.
         12    1    3    3    0    0  0.23043615519E+02 -0.18991723090E+02  0.50609435364E+01  0.30287074992E+02  0.00000000000E+00 0. -1.
</event>
<event>
 7    1  0.7457761E-012  0.5930194E+02  0.7816164E-02  0.1266605E+00
        -11   -1    0    0    0    0  0.00000000000E+00  0.00000000000E+00  0.45593999997E+02  0.45594000000E+02  0.51100000000E-03 0. -1.
         11   -1    0    0    0    0 -0.00000000000E+00 -0.00000000000E+00 -0.45593999997E+02  0.45594000000E+02  0.51100000000E-03 0.  1.
    9900012    2    1    2    0    0  0.10230784076E+02  0.12227138221E+02 -0.27614288128E+02  0.59301940967E+02  0.49999994418E+02 0.  0.
         12    1    1    2    0    0 -0.10230784076E+02 -0.12227138221E+02  0.27614288128E+02  0.31886059033E+02  0.00000000000E+00 0. -1.
         11    1    3    3    0    0  0.17453206940E+02 -0.12337270463E+02 -0.14616893317E+02  0.25893556061E+02  0.51100000000E-03 0.  1.
        -11    1    3    3    0    0  0.23054267173E+01  0.71436489473E+01  0.28237311604E+01  0.80199856957E+01  0.51100000000E-03 0. -1.
         12    1    3    3    0    0 -0.95278495818E+01  0.17420759737E+02 -0.15821125971E+02  0.25388399210E+02  0.00000000000E+00 0. -1.
</event>
<event>
 7    1  0.7457761E-012  0.5930197E+02  0.7816164E-02  0.1266605E+00
        -11   -1    0    0    0    0  0.00000000000E+00  0.00000000000E+00  0.45593999997E+02  0.45594000000E+02  0.51100000000E-03 0.  1.
         11   -1    0    0    0    0 -0.00000000000E+00 -0.00000000000E+00 -0.45593999997E+02  0.45594000000E+02  0.51100000000E-03 0. -1.
    9900012    2    1    2    0    0 -0.27890865671E+02  0.15301235177E+02  0.21658623828E+01  0.59301966291E+02  0.50000040604E+02 0.  0.
         12    1    1    2    0    0  0.27890865671E+02 -0.15301235177E+02 -0.21658623828E+01  0.31886033709E+02  0.00000000000E+00 0. -1.
         11    1    3    3    0    0 -0.97699603684E+01 -0.57929891455E+01 -0.19680185333E+01  0.11527529920E+02  0.51100000000E-03 0. -1.
        -11    1    3    3    0    0 -0.22950799473E+02  0.20477025832E+02  0.16199706139E+02  0.34763173944E+02  0.51100000000E-03 0.  1.
        -12    1    3    3    0    0  0.48298941707E+01  0.61719849002E+00 -0.12065825222E+02  0.13011262428E+02  0.00000000000E+00 0.  1.
</event>
<event>
 7    1  0.7457761E-012  0.5930193E+02  0.7816164E-02  0.1266605E+00
        -11   -1    0    0    0    0  0.00000000000E+00  0.00000000000E+00  0.45593999997E+02  0.45594000000E+02  0.51100000000E-03 0. -1.
         11   -1    0    0    0    0 -0.00000000000E+00 -0.00000000000E+00 -0.45593999997E+02  0.45594000000E+02  0.51100000000E-03 0.  1.
    9900012    2    1    2    0    0 -0.11400504365E+02 -0.28798877424E+02  0.75745905634E+01  0.59301933091E+02  0.49999980055E+02 0.  0.
         12    1    1    2    0    0  0.11400504365E+02  0.28798877424E+02 -0.75745905634E+01  0.31886066909E+02  0.00000000000E+00 0. -1.
         11    1    3    3    0    0  0.61848750374E+01 -0.29779494070E+02  0.70806126014E+01  0.31228288800E+02  0.51100000000E-03 0. -1.
        -11    1    3    3    0    0 -0.18821912791E+02  0.17549353544E+01  0.79273371371E+01  0.20498460273E+02  0.51100000000E-03 0.  1.
        -12    1    3    3    0    0  0.12365333888E+01 -0.77431870864E+00 -0.74333591751E+01  0.75751840182E+01  0.00000000000E+00 0.  1.
</event>
<event>
 7    1  0.7457761E-012  0.5930196E+02  0.7816164E-02  0.1266605E+00
        -11   -1    0    0    0    0  0.00000000000E+00  0.00000000000E+00  0.45593999997E+02  0.45594000000E+02  0.51100000000E-03 0.  1.
         11   -1    0    0    0    0 -0.00000000000E+00 -0.00000000000E+00 -0.45593999997E+02  0.45594000000E+02  0.51100000000E-03 0. -1.
    9900012    2    1    2    0    0  0.59925514509E+01  0.17746941032E+02  0.25804166738E+02  0.59301959011E+02  0.50000027326E+02 0.  0.
         12    1    1    2    0    0 -0.59925514509E+01 -0.17746941032E+02 -0.25804166738E+02  0.31886040989E+02  0.00000000000E+00 0. -1.
         11    1    3    3    0    0  0.79791658085E+01 -0.11336470846E+02  0.13887190740E+02  0.19622352691E+02  0.51100000000E-03 0. -1.
        -11    1    3    3    0    0 -0.14792337737E+01  0.14469196011E+02  0.18591895817E+02  0.23605176469E+02  0.51100000000E-03 0.  1.
         12    1    3    3    0    0 -0.50738058393E+00  0.14614215866E+02 -0.66749198192E+01  0.16074429851E+02  0.00000000000E+00 0. -1.
</event>
<event>
 7    1  0.7457761E-012  0.5930199E+02  0.7816164E-02  0.1266605E+00
        -11   -1    0    0    0    0  0.00000000000E+00  0.00000000000E+00  0.45593999997E+02  0.45594000000E+02  0.51100000000E-03 0.  1.
         11   -1    0    0    0    0 -0.00000000000E+00 -0.00000000000E+00 -0.45593999997E+02  0.45594000000E+02  0.51100000000E-03 0. -1.
    9900012    2    1    2    0    0  0.81000405976E+01  0.30736755873E+02  0.25216450656E+01  0.59301991891E+02  0.50000087292E+02 0.  0.
         12    1    1    2    0    0 -0.81000405976E+01 -0.30736755873E+02 -0.25216450656E+01  0.31886008109E+02  0.00000000000E+00 0. -1.
         11    1    3    3    0    0  0.31413947865E+01  0.12025138784E+02 -0.14922712723E+02  0.19420599354E+02  0.51100000000E-03 0. -1.
        -11    1    3    3    0    0  0.80371074910E+01  0.10419102617E+02  0.24997805360E+02  0.28249656090E+02  0.51100000000E-03 0.  1.
        -12    1    3    3    0    0 -0.30784616799E+01  0.82925144714E+01 -0.75534475708E+01  0.11631736447E+02  0.00000000000E+00 0.  1.
</event>
<event>
 7    1  0.7457761E-012  0.5930164E+02  0.7816164E-02  0.1266606E+00
        -11   -1    0    0    0    0  0.00000000000E+00  0.00000000000E+00  0.45593999997E+02  0.45594000000E+02  0.51100000000E-03 0.  1.
         11   -1    0    0    0    0 -0.00000000000E+00 -0.00000000000E+00 -0.45593999997E+02  0.45594000000E+02  0.51100000000E-03 0. -1.
    9900012    2    1    2    0    0 -0.18018206130E+01  0.29686132692E+02 -0.11499008610E+02  0.59301635662E+02  0.49999437611E+02 0.  0.
         12    1    1    2    0    0  0.18018206130E+01 -0.29686132692E+02  0.11499008610E+02  0.31886364338E+02  0.00000000000E+00 0. -1.
         11    1    3    3    0    0 -0.22627763778E+01  0.30945985217E+02 -0.21181256754E+01  0.31100813730E+02  0.51100000000E-03 0.  1.
        -11    1    3    3    0    0  0.19223075961E+01 -0.98045380524E+01 -0.14888673202E+02  0.17930332481E+02  0.51100000000E-03 0. -1.
        -12    1    3    3    0    0 -0.14613518313E+01  0.85446855270E+01  0.55077902675E+01  0.10270489451E+02  0.00000000000E+00 0.  1.
</event>
<event>
 7    1  0.7457761E-012  0.5930189E+02  0.7816164E-02  0.1266605E+00
        -11   -1    0    0    0    0  0.00000000000E+00  0.00000000000E+00  0.45593999997E+02  0.45594000000E+02  0.51100000000E-03 0.  1.
         11   -1    0    0    0    0 -0.00000000000E+00 -0.00000000000E+00 -0.45593999997E+02  0.45594000000E+02  0.51100000000E-03 0. -1.
    9900012    2    1    2    0    0 -0.45696330845E+01 -0.30422453550E+02  0.83855276034E+01  0.59301885471E+02  0.49999893207E+02 0.  0.
         12    1    1    2    0    0  0.45696330845E+01  0.30422453550E+02 -0.83855276034E+01  0.31886114529E+02  0.00000000000E+00 0. -1.
         11    1    3    3    0    0 -0.18462703041E+02 -0.76091073670E+01 -0.21418964708E+01  0.20083765565E+02  0.51100000000E-03 0. -1.
        -11    1    3    3    0    0  0.20391415671E+02 -0.17306985359E+02  0.14720132594E+01  0.26786347242E+02  0.51100000000E-03 0.  1.
         12    1    3    3    0    0 -0.64983457141E+01 -0.55063608247E+01  0.90554108148E+01  0.12431772664E+02  0.00000000000E+00 0. -1.
</event>
<event>
 7    1  0.7457761E-012  0.5930192E+02  0.7816164E-02  0.1266605E+00
        -11   -1    0    0    0    0  0.00000000000E+00  0.00000000000E+00  0.45593999997E+02  0.45594000000E+02  0.51100000000E-03 0. -1.
         11   -1    0    0    0    0 -0.00000000000E+00 -0.00000000000E+00 -0.45593999997E+02  0.45594000000E+02  0.51100000000E-03 0.  1.
    9900012    2    1    2    0    0 -0.25820932954E+02 -0.69815298499E+01 -0.17356842550E+02  0.59301916500E+02  0.49999949796E+02 0.  0.
         12    1    1    2    0    0  0.25820932954E+02  0.69815298499E+01  0.17356842550E+02  0.31886083500E+02  0.00000000000E+00 0. -1.
         11    1    3    3    0    0 -0.19339155514E+01  0.49877530989E+01  0.13419817021E+01  0.55153082856E+01  0.51100000000E-03 0. -1.
        -11    1    3    3    0    0  0.25397670611E+01 -0.21956729772E+02 -0.67326520652E+01  0.23105778565E+02  0.51100000000E-03 0.  1.
        -12    1    3    3    0    0 -0.26426784464E+02  0.99874468234E+01 -0.11966172187E+02  0.30680829649E+02  0.00000000000E+00 0.  1.
</event>
<event>
 7    1  0.7457761E-012  0.5930193E+02  0.7816164E-02  0.1266605E+00
        -11   -1    0    0    0    0  0.00000000000E+00  0.00000000000E+00  0.45593999997E+02  0.45594000000E+02  0.51100000000E-03 0.  1.
         11   -1    0    0    0    0 -0.00000000000E+00 -0.00000000000E+00 -0.45593999997E+02  0.45594000000E+02  0.51100000000E-03 0. -1.
    9900012    2    1    2    0    0  0.49609750692E+01  0.16760711643E+02  0.26668127303E+02  0.59301925574E+02  0.49999966345E+02 0.  0.
         12    1    1    2    0    0 -0.49609750692E+01 -0.16760711643E+02 -0.26668127303E+02  0.31886074426E+02  0.00000000000E+00 0. -1.
         11    1    3    3    0    0  0.39324357569E+00 -0.13824442459E+02  0.73176917227E+01  0.15646675756E+02  0.51100000000E-03 0. -1.
        -11    1    3    3    0    0 -0.65405297995E+01  0.25031098455E+02  0.87017885147E+01  0.27295705588E+02  0.51100000000E-03 0.  1.
         12    1    3    3    0    0  0.11108261293E+02  0.55540556469E+01  0.10648647066E+02  0.16359544230E+02  0.00000000000E+00 0. -1.
</event>
<event>
 7    1  0.7457761E-012  0.5930194E+02  0.7816164E-02  0.1266605E+00
        -11   -1    0    0    0    0  0.00000000000E+00  0.00000000000E+00  0.45593999997E+02  0.45594000000E+02  0.51100000000E-03 0.  1.
         11   -1    0    0    0    0 -0.00000000000E+00 -0.00000000000E+00 -0.45593999997E+02  0.45594000000E+02  0.51100000000E-03 0. -1.
    9900012    2    1    2    0    0  0.21311708027E+02 -0.21738992929E+02  0.94840964448E+01  0.59301940382E+02  0.49999993351E+02 0.  0.
         12    1    1    2    0    0 -0.21311708027E+02  0.21738992929E+02 -0.94840964448E+01  0.31886059618E+02  0.00000000000E+00 0. -1.
         11    1    3    3    0    0 -0.91719110319E+01 -0.13917253954E+02  0.13469868615E+01  0.16722089686E+02  0.51100000000E-03 0. -1.
        -11    1    3    3    0    0  0.25505398520E+02 -0.17087581346E+02  0.90913418560E+01  0.32018171199E+02  0.51100000000E-03 0.  1.
         12    1    3    3    0    0  0.49782205386E+01  0.92658423711E+01 -0.95423227268E+00  0.10561679497E+02  0.00000000000E+00 0. -1.
</event>
<event>
 7    1  0.7457761E-012  0.5930194E+02  0.7816164E-02  0.1266605E+00
        -11   -1    0    0    0    0  0.00000000000E+00  0.00000000000E+00  0.45593999997E+02  0.45594000000E+02  0.51100000000E-03 0. -1.
         11   -1    0    0    0    0 -0.00000000000E+00 -0.00000000000E+00 -0.45593999997E+02  0.45594000000E+02  0.51100000000E-03 0.  1.
    9900012    2    1    2    0    0 -0.25574468789E+02 -0.18564758281E+02  0.42446448473E+01  0.59301941703E+02  0.49999995760E+02 0.  0.
         12    1    1    2    0    0  0.25574468789E+02  0.18564758281E+02 -0.42446448473E+01  0.31886058297E+02  0.00000000000E+00 0. -1.
         11    1    3    3    0    0 -0.33587015354E+01 -0.17456748503E+02  0.12243476276E+02  0.21585218458E+02  0.51100000000E-03 0. -1.
        -11    1    3    3    0    0 -0.22495729915E+02  0.79716717124E+01  0.23084187886E+01  0.23977785800E+02  0.51100000000E-03 0.  1.
         12    1    3    3    0    0  0.27996266184E+00 -0.90796814903E+01 -0.10307250218E+02  0.13738937445E+02  0.00000000000E+00 0. -1.
</event>
<event>
 7    1  0.7457761E-012  0.5930187E+02  0.7816164E-02  0.1266605E+00
        -11   -1    0    0    0    0  0.00000000000E+00  0.00000000000E+00  0.45593999997E+02  0.45594000000E+02  0.51100000000E-03 0. -1.
         11   -1    0    0    0    0 -0.00000000000E+00 -0.00000000000E+00 -0.45593999997E+02  0.45594000000E+02  0.51100000000E-03 0.  1.
    9900012    2    1    2    0    0 -0.27756153236E+01  0.30645556251E+02  0.83588767570E+01  0.59301874820E+02  0.49999873782E+02 0.  0.
         12    1    1    2    0    0  0.27756153236E+01 -0.30645556251E+02 -0.83588767570E+01  0.31886125180E+02  0.00000000000E+00 0. -1.
         11    1    3    3    0    0 -0.18386657629E+02  0.36527569485E+01 -0.13151516985E+01  0.18792057800E+02  0.51100000000E-03 0. -1.
        -11    1    3    3    0    0  0.77130261106E+01  0.28146983818E+02  0.12889897235E+02  0.31904434187E+02  0.51100000000E-03 0.  1.
         12    1    3    3    0    0  0.78980161949E+01 -0.11541845155E+01 -0.32158687790E+01  0.86053828337E+01  0.00000000000E+00 0. -1.
</event>
<event>
 7    1  0.7457761E-012  0.5930196E+02  0.7816164E-02  0.1266605E+00
        -11   -1    0    0    0    0  0.00000000000E+00  0.00000000000E+00  0.45593999997E+02  0.45594000000E+02  0.51100000000E-03 0.  1.
         11   -1    0    0    0    0 -0.00000000000E+00 -0.00000000000E+00 -0.45593999997E+02  0.45594000000E+02  0.51100000000E-03 0. -1.
    9900012    2    1    2    0    0 -0.15003345193E+02 -0.94907521278E+01  0.26486694571E+02  0.59301957093E+02  0.50000023828E+02 0.  0.
         12    1    1    2    0    0  0.15003345193E+02  0.94907521278E+01 -0.26486694571E+02  0.31886042907E+02  0.00000000000E+00 0. -1.
         11    1    3    3    0    0 -0.40730412924E+01 -0.20601801459E+02  0.13114067287E+02  0.24758890318E+02  0.51100000000E-03 0. -1.
        -11    1    3    3    0    0 -0.20157255894E+02  0.50532262604E+01  0.94521405861E+01  0.22829652269E+02  0.51100000000E-03 0.  1.
        -12    1    3    3    0    0  0.92269519932E+01  0.60578230705E+01  0.39204866982E+01  0.11713414506E+02  0.00000000000E+00 0.  1.
</event>
<event>
 7    1  0.7457761E-012  0.5930194E+02  0.7816164E-02  0.1266605E+00
        -11   -1    0    0    0    0  0.00000000000E+00  0.00000000000E+00  0.45593999997E+02  0.45594000000E+02  0.51100000000E-03 0.  1.
         11   -1    0    0    0    0 -0.00000000000E+00 -0.00000000000E+00 -0.45593999997E+02  0.45594000000E+02  0.51100000000E-03 0. -1.
    9900012    2    1    2    0    0 -0.26487022037E+02  0.11776218596E+02  0.13284541080E+02  0.59301942035E+02  0.49999996366E+02 0.  0.
         12    1    1    2    0    0  0.26487022037E+02 -0.11776218596E+02 -0.13284541080E+02  0.31886057965E+02  0.00000000000E+00 0. -1.
         11    1    3    3    0    0 -0.24382934213E+02  0.67785069269E+01  0.14413324523E+02  0.29124209192E+02  0.51100000000E-03 0. -1.
        -11    1    3    3    0    0  0.94883674331E+01  0.40472725749E+01 -0.10884999969E+02  0.14996424788E+02  0.51100000000E-03 0.  1.
        -12    1    3    3    0    0 -0.11592455258E+02  0.95043909453E+00  0.97562165258E+01  0.15181308056E+02  0.00000000000E+00 0.  1.
</event>
<event>
 7    1  0.7457761E-012  0.5930191E+02  0.7816164E-02  0.1266605E+00
        -11   -1    0    0    0    0  0.00000000000E+00  0.00000000000E+00  0.45593999997E+02  0.45594000000E+02  0.51100000000E-03 0.  1.
         11   -1    0    0    0    0 -0.00000000000E+00 -0.00000000000E+00 -0.45593999997E+02  0.45594000000E+02  0.51100000000E-03 0. -1.
    9900012    2    1    2    0    0  0.13344338831E+02  0.14626164900E+02  0.24994528622E+02  0.59301913073E+02  0.49999943545E+02 0.  0.
         12    1    1    2    0    0 -0.13344338831E+02 -0.14626164900E+02 -0.24994528622E+02  0.31886086927E+02  0.00000000000E+00 0. -1.
         11    1    3    3    0    0 -0.58045015519E+01 -0.22703760741E+01 -0.10553823457E+02  0.12256836280E+02  0.51100000000E-03 0. -1.
        -11    1    3    3    0    0  0.33513340466E+01  0.11338352977E+02  0.23841441969E+02  0.26612103328E+02  0.51100000000E-03 0.  1.
         12    1    3    3    0    0  0.15797506336E+02  0.55581879968E+01  0.11706910110E+02  0.20432973464E+02  0.00000000000E+00 0. -1.
</event>
<event>
 7    1  0.7457761E-012  0.5930200E+02  0.7816164E-02  0.1266605E+00
        -11   -1    0    0    0    0  0.00000000000E+00  0.00000000000E+00  0.45593999997E+02  0.45594000000E+02  0.51100000000E-03 0.  1.
         11   -1    0    0    0    0 -0.00000000000E+00 -0.00000000000E+00 -0.45593999997E+02  0.45594000000E+02  0.51100000000E-03 0. -1.
    9900012    2    1    2    0    0 -0.23589635832E+02 -0.19605799085E+02 -0.87096858480E+01  0.59302001442E+02  0.50000104710E+02 0.  0.
         12    1    1    2    0    0  0.23589635832E+02  0.19605799085E+02  0.87096858480E+01  0.31885998558E+02  0.00000000000E+00 0. -1.
         11    1    3    3    0    0  0.86869936987E+01  0.58122087805E+01  0.45489789921E+01  0.11399071917E+02  0.51100000000E-03 0. -1.
        -11    1    3    3    0    0 -0.19740487676E+01 -0.12644281951E+02 -0.64077200688E+01  0.14312009340E+02  0.51100000000E-03 0.  1.
         12    1    3    3    0    0 -0.30302580764E+02 -0.12773725914E+02 -0.68509447713E+01  0.33590920186E+02  0.00000000000E+00 0. -1.
</event>
<event>
 7    1  0.7457761E-012  0.5930198E+02  0.7816164E-02  0.1266605E+00
        -11   -1    0    0    0    0  0.00000000000E+00  0.00000000000E+00  0.45593999997E+02  0.45594000000E+02  0.51100000000E-03 0.  1.
         11   -1    0    0    0    0 -0.00000000000E+00 -0.00000000000E+00 -0.45593999997E+02  0.45594000000E+02  0.51100000000E-03 0. -1.
    9900012    2    1    2    0    0 -0.30388336466E+01  0.30455175374E+02  0.89423725465E+01  0.59301980434E+02  0.50000066396E+02 0.  0.
         12    1    1    2    0    0  0.30388336466E+01 -0.30455175374E+02 -0.89423725465E+01  0.31886019566E+02  0.00000000000E+00 0. -1.
         11    1    3    3    0    0 -0.12339056259E+02 -0.55532930240E+01 -0.49662924052E+01  0.14413723783E+02  0.51100000000E-03 0. -1.
        -11    1    3    3    0    0 -0.31349323221E+01  0.20861600294E+02  0.13949471384E+02  0.25290747709E+02  0.51100000000E-03 0.  1.
         12    1    3    3    0    0  0.12435154934E+02  0.15146868104E+02 -0.40806432418E-01  0.19597508943E+02  0.00000000000E+00 0. -1.
</event>
<event>
 7    1  0.7457761E-012  0.5930192E+02  0.7816164E-02  0.1266605E+00
        -11   -1    0    0    0    0  0.00000000000E+00  0.00000000000E+00  0.45593999997E+02  0.45594000000E+02  0.51100000000E-03 0.  1.
         11   -1    0    0    0    0 -0.00000000000E+00 -0.00000000000E+00 -0.45593999997E+02  0.45594000000E+02  0.51100000000E-03 0. -1.
    9900012    2    1    2    0    0  0.57142312114E+01  0.72474073582E+01  0.30521219388E+02  0.59301918637E+02  0.49999953694E+02 0.  0.
         12    1    1    2    0    0 -0.57142312114E+01 -0.72474073582E+01 -0.30521219388E+02  0.31886081363E+02  0.00000000000E+00 0. -1.
         11    1    3    3    0    0 -0.31998849626E+01  0.14133342750E+01  0.15520409548E+01  0.38269581828E+01  0.51100000000E-03 0. -1.
        -11    1    3    3    0    0  0.19711144991E+02 -0.12746011994E+02  0.64403289535E+01  0.24340663424E+02  0.51100000000E-03 0.  1.
        -12    1    3    3    0    0 -0.10797028817E+02  0.18580085077E+02  0.22528849479E+02  0.31134297031E+02  0.00000000000E+00 0.  1.
</event>
<event>
 7    1  0.7457761E-012  0.5930197E+02  0.7816164E-02  0.1266605E+00
        -11   -1    0    0    0    0  0.00000000000E+00  0.00000000000E+00  0.45593999997E+02  0.45594000000E+02  0.51100000000E-03 0.  1.
         11   -1    0    0    0    0 -0.00000000000E+00 -0.00000000000E+00 -0.45593999997E+02  0.45594000000E+02  0.51100000000E-03 0. -1.
    9900012    2    1    2    0    0  0.72496114602E+01 -0.25692755064E+02  0.17436874524E+02  0.59301966658E+02  0.50000041273E+02 0.  0.
         12    1    1    2    0    0 -0.72496114602E+01  0.25692755064E+02 -0.17436874524E+02  0.31886033342E+02  0.00000000000E+00 0. -1.
         11    1    3    3    0    0 -0.75333002502E+00  0.29267585733E+00 -0.10513270221E+02  0.10544288325E+02  0.51100000000E-03 0. -1.
        -11    1    3    3    0    0 -0.10786528532E+02 -0.75272731261E+01  0.12893382957E+02  0.18418696013E+02  0.51100000000E-03 0.  1.
         12    1    3    3    0    0  0.18789470017E+02 -0.18458157795E+02  0.15056761788E+02  0.30338982321E+02  0.00000000000E+00 0. -1.
</event>
<event>
 7    1  0.7457761E-012  0.5930195E+02  0.7816164E-02  0.1266605E+00
        -11   -1    0    0    0    0  0.00000000000E+00  0.00000000000E+00  0.45593999997E+02  0.45594000000E+02  0.51100000000E-03 0.  1.
         11   -1    0    0    0    0 -0.00000000000E+00 -0.00000000000E+00 -0.45593999997E+02  0.45594000000E+02  0.51100000000E-03 0. -1.
    9900012    2    1    2    0    0  0.10775849775E+02 -0.28973016791E+02  0.78208479929E+01  0.59301948133E+02  0.50000007487E+02 0.  0.
         12    1    1    2    0    0 -0.10775849775E+02  0.28973016791E+02 -0.78208479929E+01  0.31886051867E+02  0.00000000000E+00 0. -1.
         11    1    3    3    0    0  0.92713745872E+01 -0.14002438123E+02 -0.43045165518E+01  0.17336537231E+02  0.51100000000E-03 0. -1.
        -11    1    3    3    0    0 -0.17553026203E+02 -0.55425924823E+01  0.89490594362E+01  0.20467406415E+02  0.51100000000E-03 0.  1.
        -12    1    3    3    0    0  0.19057501391E+02 -0.94279861849E+01  0.31763051085E+01  0.21498004487E+02  0.00000000000E+00 0.  1.
</event>
<event>
 7    1  0.7457761E-012  0.5930194E+02  0.7816164E-02  0.1266605E+00
        -11   -1    0    0    0    0  0.00000000000E+00  0.00000000000E+00  0.45593999997E+02  0.45594000000E+02  0.51100000000E-03 0. -1.
         11   -1    0    0    0    0 -0.00000000000E+00 -0.00000000000E+00 -0.45593999997E+02  0.45594000000E+02  0.51100000000E-03 0.  1.
    9900012    2    1    2    0    0  0.13558869557E+02 -0.15119846677E+02 -0.24581863442E+02  0.59301941644E+02  0.49999995653E+02 0.  0.
         12    1    1    2    0    0 -0.13558869557E+02  0.15119846677E+02  0.24581863442E+02  0.31886058356E+02  0.00000000000E+00 0. -1.
         11    1    3    3    0    0 -0.11731229743E+02 -0.99150982345E+01 -0.15606020117E+02  0.21897004098E+02  0.51100000000E-03 0. -1.
        -11    1    3    3    0    0  0.24633735048E+02 -0.13375226713E+02 -0.58649222347E+01  0.28637648386E+02  0.51100000000E-03 0.  1.
        -12    1    3    3    0    0  0.65636425238E+00  0.81704782703E+01 -0.31109210894E+01  0.87672891604E+01  0.00000000000E+00 0.  1.
</event>
<event>
 7    1  0.7457761E-012  0.5930196E+02  0.7816164E-02  0.1266605E+00
        -11   -1    0    0    0    0  0.00000000000E+00  0.00000000000E+00  0.45593999997E+02  0.45594000000E+02  0.51100000000E-03 0.  1.
         11   -1    0    0    0    0 -0.00000000000E+00 -0.00000000000E+00 -0.45593999997E+02  0.45594000000E+02  0.51100000000E-03 0. -1.
    9900012    2    1    2    0    0 -0.53077216221E+01  0.23627563848E+02  0.20743338040E+02  0.59301956732E+02  0.50000023170E+02 0.  0.
         12    1    1    2    0    0  0.53077216221E+01 -0.23627563848E+02 -0.20743338040E+02  0.31886043268E+02  0.00000000000E+00 0. -1.
         11    1    3    3    0    0  0.69667120959E+00  0.73618162033E+01  0.83737076756E-01  0.73951809136E+01  0.51100000000E-03 0.  1.
        -11    1    3    3    0    0  0.42336298011E+00 -0.68470799754E+01  0.26369005470E+02  0.27246764764E+02  0.51100000000E-03 0. -1.
        -12    1    3    3    0    0 -0.64277558118E+01  0.23112827620E+02 -0.57094045061E+01  0.24660011054E+02  0.00000000000E+00 0.  1.
</event>
<event>
 7    1  0.7457761E-012  0.5930195E+02  0.7816164E-02  0.1266605E+00
        -11   -1    0    0    0    0  0.00000000000E+00  0.00000000000E+00  0.45593999997E+02  0.45594000000E+02  0.51100000000E-03 0. -1.
         11   -1    0    0    0    0 -0.00000000000E+00 -0.00000000000E+00 -0.45593999997E+02  0.45594000000E+02  0.51100000000E-03 0.  1.
    9900012    2    1    2    0    0  0.11937199619E+02 -0.21560982038E+02  0.20232336313E+02  0.59301951109E+02  0.50000012914E+02 0.  0.
         12    1    1    2    0    0 -0.11937199619E+02  0.21560982038E+02 -0.20232336313E+02  0.31886048891E+02  0.00000000000E+00 0. -1.
         11    1    3    3    0    0  0.39973716005E+01  0.16093615751E+01 -0.12514556095E+02  0.13235676745E+02  0.51100000000E-03 0. -1.
        -11    1    3    3    0    0  0.11680685466E+01 -0.14163686143E+02  0.31711461705E+02  0.34750412846E+02  0.51100000000E-03 0.  1.
         12    1    3    3    0    0  0.67717594718E+01 -0.90066574704E+01  0.10354307034E+01  0.11315861517E+02  0.00000000000E+00 0. -1.
</event>
<event>
 7    1  0.7457761E-012  0.5930194E+02  0.7816164E-02  0.1266605E+00
        -11   -1    0    0    0    0  0.00000000000E+00  0.00000000000E+00  0.45593999997E+02  0.45594000000E+02  0.51100000000E-03 0. -1.
         11   -1    0    0    0    0 -0.00000000000E+00 -0.00000000000E+00 -0.45593999997E+02  0.45594000000E+02  0.51100000000E-03 0.  1.
    9900012    2    1    2    0    0  0.10557044660E+02  0.28883328651E+02  0.84275033235E+01  0.59301942260E+02  0.49999996777E+02 0.  0.
         12    1    1    2    0    0 -0.10557044660E+02 -0.28883328651E+02 -0.84275033235E+01  0.31886057740E+02  0.00000000000E+00 0. -1.
         11    1    3    3    0    0  0.81145708142E+01 -0.96152880646E+00  0.17687447045E+02  0.19483751702E+02  0.51100000000E-03 0. -1.
        -11    1    3    3    0    0  0.37353510656E+01  0.29155040615E+02  0.10427111861E+01  0.29411842644E+02  0.51100000000E-03 0.  1.
        -12    1    3    3    0    0 -0.12928772197E+01  0.68981684245E+00 -0.10302654907E+02  0.10406347915E+02  0.00000000000E+00 0.  1.
</event>
<event>
 7    1  0.7457761E-012  0.5930193E+02  0.7816164E-02  0.1266605E+00
        -11   -1    0    0    0    0  0.00000000000E+00  0.00000000000E+00  0.45593999997E+02  0.45594000000E+02  0.51100000000E-03 0. -1.
         11   -1    0    0    0    0 -0.00000000000E+00 -0.00000000000E+00 -0.45593999997E+02  0.45594000000E+02  0.51100000000E-03 0.  1.
    9900012    2    1    2    0    0 -0.28146128735E+01  0.28181796467E+02 -0.14648743794E+02  0.59301931059E+02  0.49999976349E+02 0.  0.
         12    1    1    2    0    0  0.28146128735E+01 -0.28181796467E+02  0.14648743794E+02  0.31886068941E+02  0.00000000000E+00 0. -1.
         11    1    3    3    0    0 -0.15581042954E+02  0.11664615712E+02  0.71372015563E+01  0.20730938367E+02  0.51100000000E-03 0. -1.
        -11    1    3    3    0    0  0.51492480758E+00 -0.41836507472E+01 -0.11792276430E+02  0.12523013407E+02  0.51100000000E-03 0.  1.
         12    1    3    3    0    0  0.12251505273E+02  0.20700831502E+02 -0.99936689199E+01  0.26047979285E+02  0.00000000000E+00 0. -1.
</event>
<event>
 7    1  0.7457761E-012  0.5930196E+02  0.7816164E-02  0.1266605E+00
        -11   -1    0    0    0    0  0.00000000000E+00  0.00000000000E+00  0.45593999997E+02  0.45594000000E+02  0.51100000000E-03 0.  1.
         11   -1    0    0    0    0 -0.00000000000E+00 -0.00000000000E+00 -0.45593999997E+02  0.45594000000E+02  0.51100000000E-03 0. -1.
    9900012    2    1    2    0    0  0.17647216150E+02  0.24856584765E+02  0.93512372699E+01  0.59301957874E+02  0.50000025252E+02 0.  0.
         12    1    1    2    0    0 -0.17647216150E+02 -0.24856584765E+02 -0.93512372699E+01  0.31886042126E+02  0.00000000000E+00 0. -1.
         11    1    3    3    0    0 -0.12763961798E+02  0.10500926255E+02  0.95624966795E+01  0.19095274703E+02  0.51100000000E-03 0. -1.
        -11    1    3    3    0    0  0.14465181104E+02  0.92447499590E+01 -0.10905478775E+02  0.20338051376E+02  0.51100000000E-03 0.  1.
        -12    1    3    3    0    0  0.15945996843E+02  0.51109085507E+01  0.10694219366E+02  0.19868631794E+02  0.00000000000E+00 0.  1.
</event>
<event>
 7    1  0.7457761E-012  0.5930194E+02  0.7816164E-02  0.1266605E+00
        -11   -1    0    0    0    0  0.00000000000E+00  0.00000000000E+00  0.45593999997E+02  0.45594000000E+02  0.51100000000E-03 0.  1.
         11   -1    0    0    0    0 -0.00000000000E+00 -0.00000000000E+00 -0.45593999997E+02  0.45594000000E+02  0.51100000000E-03 0. -1.
    9900012    2    1    2    0    0 -0.89737134153E+01 -0.19224615958E+02  0.23803513581E+02  0.59301942702E+02  0.49999997583E+02 0.  0.
         12    1    1    2    0    0  0.89737134153E+01  0.19224615958E+02 -0.23803513581E+02  0.31886057298E+02  0.00000000000E+00 0. -1.
         11    1    3    3    0    0  0.81041121192E+01 -0.24225290656E+02  0.25066319232E+02  0.35789128247E+02  0.51100000000E-03 0. -1.
        -11    1    3    3    0    0 -0.53105721356E+01  0.15999904611E+01  0.68553194362E+01  0.88180241957E+01  0.51100000000E-03 0.  1.
         12    1    3    3    0    0 -0.11767253399E+02  0.34006842372E+01 -0.81181250868E+01  0.14694790259E+02  0.00000000000E+00 0. -1.
</event>
<event>
 7    1  0.7457761E-012  0.5930195E+02  0.7816164E-02  0.1266605E+00
        -11   -1    0    0    0    0  0.00000000000E+00  0.00000000000E+00  0.45593999997E+02  0.45594000000E+02  0.51100000000E-03 0. -1.
         11   -1    0    0    0    0 -0.00000000000E+00 -0.00000000000E+00 -0.45593999997E+02  0.45594000000E+02  0.51100000000E-03 0.  1.
    9900012    2    1    2    0    0 -0.27367004942E+02 -0.16350917708E+02  0.64402208975E+00  0.59301949228E+02  0.50000009484E+02 0.  0.
         12    1    1    2    0    0  0.27367004942E+02  0.16350917708E+02 -0.64402208975E+00  0.31886050772E+02  0.00000000000E+00 0. -1.
         11    1    3    3    0    0 -0.34811369882E+02 -0.22013236366E+02 -0.10450294239E+01  0.41200802603E+02  0.51100000000E-03 0. -1.
        -11    1    3    3    0    0 -0.12602517906E-01  0.87065337480E+01 -0.24510676290E+01  0.90449776955E+01  0.51100000000E-03 0.  1.
         12    1    3    3    0    0  0.74569674570E+01 -0.30442150897E+01  0.41401191426E+01  0.90561689297E+01  0.00000000000E+00 0. -1.
</event>
<event>
 7    1  0.7457761E-012  0.5930196E+02  0.7816164E-02  0.1266605E+00
        -11   -1    0    0    0    0  0.00000000000E+00  0.00000000000E+00  0.45593999997E+02  0.45594000000E+02  0.51100000000E-03 0. -1.
         11   -1    0    0    0    0 -0.00000000000E+00 -0.00000000000E+00 -0.45593999997E+02  0.45594000000E+02  0.51100000000E-03 0.  1.
    9900012    2    1    2    0    0 -0.27069214793E+02  0.14478313809E+02  0.86229509733E+01  0.59301964753E+02  0.50000037798E+02 0.  0.
         12    1    1    2    0    0  0.27069214793E+02 -0.14478313809E+02 -0.86229509733E+01  0.31886035247E+02  0.00000000000E+00 0. -1.
         11    1    3    3    0    0 -0.74180136224E+01 -0.13983048350E+02  0.16217764931E+02  0.22662049044E+02  0.51100000000E-03 0. -1.
        -11    1    3    3    0    0 -0.14964276131E+02  0.19389423732E+02 -0.10571970674E+01  0.24515239723E+02  0.51100000000E-03 0.  1.
         12    1    3    3    0    0 -0.46869250401E+01  0.90719384274E+01 -0.65376168905E+01  0.12124675986E+02  0.00000000000E+00 0. -1.
</event>
<event>
 7    1  0.7457761E-012  0.5930195E+02  0.7816164E-02  0.1266605E+00
        -11   -1    0    0    0    0  0.00000000000E+00  0.00000000000E+00  0.45593999997E+02  0.45594000000E+02  0.51100000000E-03 0.  1.
         11   -1    0    0    0    0 -0.00000000000E+00 -0.00000000000E+00 -0.45593999997E+02  0.45594000000E+02  0.51100000000E-03 0. -1.
    9900012    2    1    2    0    0 -0.41117001268E+01 -0.15472234829E+02  0.27575783827E+02  0.59301953173E+02  0.50000016679E+02 0.  0.
         12    1    1    2    0    0  0.41117001268E+01  0.15472234829E+02 -0.27575783827E+02  0.31886046827E+02  0.00000000000E+00 0. -1.
         11    1    3    3    0    0 -0.28559712130E+01 -0.15841508623E+02  0.28812983113E+01  0.16352732103E+02  0.51100000000E-03 0. -1.
        -11    1    3    3    0    0 -0.34157898878E+01 -0.18758078311E+01  0.33439507737E+02  0.33665812830E+02  0.51100000000E-03 0.  1.
        -12    1    3    3    0    0  0.21600609740E+01  0.22450816248E+01 -0.87450222206E+01  0.92834082401E+01  0.00000000000E+00 0.  1.
</event>
<event>
 7    1  0.7457761E-012  0.5930192E+02  0.7816164E-02  0.1266605E+00
        -11   -1    0    0    0    0  0.00000000000E+00  0.00000000000E+00  0.45593999997E+02  0.45594000000E+02  0.51100000000E-03 0.  1.
         11   -1    0    0    0    0 -0.00000000000E+00 -0.00000000000E+00 -0.45593999997E+02  0.45594000000E+02  0.51100000000E-03 0. -1.
    9900012    2    1    2    0    0  0.19799227078E+02 -0.18177668176E+02  0.17154743987E+02  0.59301917543E+02  0.49999951698E+02 0.  0.
         12    1    1    2    0    0 -0.19799227078E+02  0.18177668176E+02 -0.17154743987E+02  0.31886082457E+02  0.00000000000E+00 0. -1.
         11    1    3    3    0    0  0.37113495747E+01 -0.17348807037E+02 -0.92991553569E+01  0.20030714213E+02  0.51100000000E-03 0. -1.
        -11    1    3    3    0    0 -0.31927780166E+01  0.22107078497E+01  0.17267326266E+02  0.17698633205E+02  0.51100000000E-03 0.  1.
         12    1    3    3    0    0  0.19280655520E+02 -0.30395689888E+01  0.91865730773E+01  0.21572570126E+02  0.00000000000E+00 0. -1.
</event>
<event>
 7    1  0.7457761E-012  0.5930202E+02  0.7816164E-02  0.1266605E+00
        -11   -1    0    0    0    0  0.00000000000E+00  0.00000000000E+00  0.45593999997E+02  0.45594000000E+02  0.51100000000E-03 0.  1.
         11   -1    0    0    0    0 -0.00000000000E+00 -0.00000000000E+00 -0.45593999997E+02  0.45594000000E+02  0.51100000000E-03 0. -1.
    9900012    2    1    2    0    0 -0.18164367561E+02 -0.22042200262E+02  0.14174378580E+02  0.59302017980E+02  0.50000134871E+02 0.  0.
         12    1    1    2    0    0  0.18164367561E+02  0.22042200262E+02 -0.14174378580E+02  0.31885982020E+02  0.00000000000E+00 0. -1.
         11    1    3    3    0    0  0.58095210036E+00 -0.24697178161E+02 -0.69272535853E+01  0.25656869586E+02  0.51100000000E-03 0. -1.
        -11    1    3    3    0    0 -0.17815436764E+02 -0.49852807734E+01  0.14500768300E+02  0.23505639601E+02  0.51100000000E-03 0.  1.
         12    1    3    3    0    0 -0.92988289662E+00  0.76402586732E+01  0.66008638654E+01  0.10139508793E+02  0.00000000000E+00 0. -1.
</event>
<event>
 7    1  0.7457761E-012  0.5930171E+02  0.7816164E-02  0.1266606E+00
        -11   -1    0    0    0    0  0.00000000000E+00  0.00000000000E+00  0.45593999997E+02  0.45594000000E+02  0.51100000000E-03 0.  1.
         11   -1    0    0    0    0 -0.00000000000E+00 -0.00000000000E+00 -0.45593999997E+02  0.45594000000E+02  0.51100000000E-03 0. -1.
    9900012    2    1    2    0    0  0.29942008058E+02  0.60465687133E+01  0.91460823864E+01  0.59301707291E+02  0.49999568246E+02 0.  0.
         12    1    1    2    0    0 -0.29942008058E+02 -0.60465687133E+01 -0.91460823864E+01  0.31886292709E+02  0.00000000000E+00 0. -1.
         11    1    3    3    0    0 -0.50612625416E+00  0.14034701539E+01 -0.16743294069E+01  0.22426037283E+01  0.51100000000E-03 0. -1.
        -11    1    3    3    0    0  0.33543281527E+01 -0.16978586322E+02  0.13985446194E+02  0.22251216065E+02  0.51100000000E-03 0.  1.
        -12    1    3    3    0    0  0.27093806159E+02  0.21621684881E+02 -0.31650344008E+01  0.34807887498E+02  0.00000000000E+00 0.  1.
</event>
<event>
 7    1  0.7457761E-012  0.5930194E+02  0.7816164E-02  0.1266605E+00
        -11   -1    0    0    0    0  0.00000000000E+00  0.00000000000E+00  0.45593999997E+02  0.45594000000E+02  0.51100000000E-03 0.  1.
         11   -1    0    0    0    0 -0.00000000000E+00 -0.00000000000E+00 -0.45593999997E+02  0.45594000000E+02  0.51100000000E-03 0. -1.
    9900012    2    1    2    0    0  0.15641396711E+02 -0.79041960034E+01  0.26638150637E+02  0.59301942312E+02  0.49999996871E+02 0.  0.
         12    1    1    2    0    0 -0.15641396711E+02  0.79041960034E+01 -0.26638150637E+02  0.31886057688E+02  0.00000000000E+00 0. -1.
         11    1    3    3    0    0  0.66395631925E+01  0.40161914098E+01  0.11562440713E+01  0.78454122544E+01  0.51100000000E-03 0. -1.
        -11    1    3    3    0    0  0.56550070327E+00 -0.40294853362E+01  0.35762204670E+02  0.35992941339E+02  0.51100000000E-03 0.  1.
        -12    1    3    3    0    0  0.84363328151E+01 -0.78909020770E+01 -0.10280298104E+02  0.15463588719E+02  0.00000000000E+00 0.  1.
</event>
<event>
 7    1  0.7457761E-012  0.5930195E+02  0.7816164E-02  0.1266605E+00
        -11   -1    0    0    0    0  0.00000000000E+00  0.00000000000E+00  0.45593999997E+02  0.45594000000E+02  0.51100000000E-03 0. -1.
         11   -1    0    0    0    0 -0.00000000000E+00 -0.00000000000E+00 -0.45593999997E+02  0.45594000000E+02  0.51100000000E-03 0.  1.
    9900012    2    1    2    0    0 -0.27051392340E+02  0.14453526549E+02  0.87199813220E+01  0.59301947697E+02  0.50000006691E+02 0.  0.
         12    1    1    2    0    0  0.27051392340E+02 -0.14453526549E+02 -0.87199813220E+01  0.31886052303E+02  0.00000000000E+00 0. -1.
         11    1    3    3    0    0  0.63012687341E+01 -0.51625630919E+01  0.12168014294E+02  0.14643039898E+02  0.51100000000E-03 0. -1.
        -11    1    3    3    0    0 -0.32457102905E+02  0.94498743925E+01  0.24502743352E+00  0.33805675466E+02  0.51100000000E-03 0.  1.
         12    1    3    3    0    0 -0.89555816942E+00  0.10166215248E+02 -0.36930604055E+01  0.10853232332E+02  0.00000000000E+00 0. -1.
</event>
<event>
 7    1  0.7457761E-012  0.5930196E+02  0.7816164E-02  0.1266605E+00
        -11   -1    0    0    0    0  0.00000000000E+00  0.00000000000E+00  0.45593999997E+02  0.45594000000E+02  0.51100000000E-03 0.  1.
         11   -1    0    0    0    0 -0.00000000000E+00 -0.00000000000E+00 -0.45593999997E+02  0.45594000000E+02  0.51100000000E-03 0. -1.
    9900012    2    1    2    0    0 -0.10463224909E+01 -0.76125008037E+01  0.30946316245E+02  0.59301961544E+02  0.50000031946E+02 0.  0.
         12    1    1    2    0    0  0.10463224909E+01  0.76125008037E+01 -0.30946316245E+02  0.31886038456E+02  0.00000000000E+00 0. -1.
         11    1    3    3    0    0 -0.12702294159E+02 -0.10862867382E+02 -0.53002035905E+01  0.17534033279E+02  0.51100000000E-03 0. -1.
        -11    1    3    3    0    0  0.23357182418E+01  0.87237234119E+01  0.22749393328E+02  0.24476393259E+02  0.51100000000E-03 0.  1.
         12    1    3    3    0    0  0.93202534259E+01 -0.54733568336E+01  0.13497126507E+02  0.17291535007E+02  0.00000000000E+00 0. -1.
</event>
<event>
 7    1  0.7457761E-012  0.5930194E+02  0.7816164E-02  0.1266605E+00
        -11   -1    0    0    0    0  0.00000000000E+00  0.00000000000E+00  0.45593999997E+02  0.45594000000E+02  0.51100000000E-03 0.  1.
         11   -1    0    0    0    0 -0.00000000000E+00 -0.00000000000E+00 -0.45593999997E+02  0.45594000000E+02  0.51100000000E-03 0. -1.
    9900012    2    1    2    0    0 -0.25350638738E+02  0.18291410455E+02  0.62841264724E+01  0.59301939936E+02  0.49999992539E+02 0.  0.
         12    1    1    2    0    0  0.25350638738E+02 -0.18291410455E+02 -0.62841264724E+01  0.31886060064E+02  0.00000000000E+00 0. -1.
         11    1    3    3    0    0 -0.31289582216E+01 -0.15387845530E+02 -0.69046989815E+00  0.15717917118E+02  0.51100000000E-03 0. -1.
        -11    1    3    3    0    0 -0.10122639139E+02  0.44613092778E+01  0.42221204369E+01  0.11840498506E+02  0.51100000000E-03 0.  1.
         12    1    3    3    0    0 -0.12099041377E+02  0.29217946707E+02  0.27524759336E+01  0.31743524312E+02  0.00000000000E+00 0. -1.
</event>
<event>
 7    1  0.7457761E-012  0.5930192E+02  0.7816164E-02  0.1266605E+00
        -11   -1    0    0    0    0  0.00000000000E+00  0.00000000000E+00  0.45593999997E+02  0.45594000000E+02  0.51100000000E-03 0.  1.
         11   -1    0    0    0    0 -0.00000000000E+00 -0.00000000000E+00 -0.45593999997E+02  0.45594000000E+02  0.51100000000E-03 0. -1.
    9900012    2    1    2    0    0 -0.28861533407E+02  0.13076414914E+02 -0.35695109479E+01  0.59301919243E+02  0.49999954799E+02 0.  0.
         12    1    1    2    0    0  0.28861533407E+02 -0.13076414914E+02  0.35695109479E+01  0.31886080757E+02  0.00000000000E+00 0. -1.
         11    1    3    3    0    0  0.57339939626E+01  0.56726171480E+01  0.11376764601E+02  0.13945897071E+02  0.51100000000E-03 0. -1.
        -11    1    3    3    0    0 -0.24478018660E+02 -0.53321241752E+01 -0.14785298238E+02  0.29089688723E+02  0.51100000000E-03 0.  1.
        -12    1    3    3    0    0 -0.10117508709E+02  0.12735921941E+02 -0.16097731080E+00  0.16266333449E+02  0.00000000000E+00 0.  1.
</event>
<event>
 7    1  0.7457761E-012  0.5930193E+02  0.7816164E-02  0.1266605E+00
        -11   -1    0    0    0    0  0.00000000000E+00  0.00000000000E+00  0.45593999997E+02  0.45594000000E+02  0.51100000000E-03 0.  1.
         11   -1    0    0    0    0 -0.00000000000E+00 -0.00000000000E+00 -0.45593999997E+02  0.45594000000E+02  0.51100000000E-03 0. -1.
    9900012    2    1    2    0    0 -0.31161201169E+02 -0.43254519038E+00  0.67463939768E+01  0.59301931172E+02  0.49999976553E+02 0.  0.
         12    1    1    2    0    0  0.31161201169E+02  0.43254519038E+00 -0.67463939768E+01  0.31886068828E+02  0.00000000000E+00 0. -1.
         11    1    3    3    0    0 -0.14645356901E+01  0.13850449310E+02  0.14653257306E+02  0.20216274653E+02  0.51100000000E-03 0. -1.
        -11    1    3    3    0    0 -0.20255405022E+02 -0.18558317166E+02 -0.83481994497E+01  0.28712105512E+02  0.51100000000E-03 0.  1.
        -12    1    3    3    0    0 -0.94412604573E+01  0.42753226654E+01  0.44133612031E+00  0.10373551007E+02  0.00000000000E+00 0.  1.
</event>
<event>
 7    1  0.7457761E-012  0.5930192E+02  0.7816164E-02  0.1266605E+00
        -11   -1    0    0    0    0  0.00000000000E+00  0.00000000000E+00  0.45593999997E+02  0.45594000000E+02  0.51100000000E-03 0.  1.
         11   -1    0    0    0    0 -0.00000000000E+00 -0.00000000000E+00 -0.45593999997E+02  0.45594000000E+02  0.51100000000E-03 0. -1.
    9900012    2    1    2    0    0 -0.15000217257E+01  0.57422740651E+00  0.31845599849E+02  0.59301921030E+02  0.49999958058E+02 0.  0.
         12    1    1    2    0    0  0.15000217257E+01 -0.57422740651E+00 -0.31845599849E+02  0.31886078970E+02  0.00000000000E+00 0. -1.
         11    1    3    3    0    0  0.12504099723E+02  0.96483879130E+01  0.19253800904E+02  0.24902866275E+02  0.51100000000E-03 0.  1.
        -11    1    3    3    0    0 -0.95909534358E+01 -0.15864990798E+01 -0.76498779569E+01  0.12370286988E+02  0.51100000000E-03 0. -1.
        -12    1    3    3    0    0 -0.44131680124E+01 -0.74876614266E+01  0.20241676903E+02  0.22028767768E+02  0.00000000000E+00 0.  1.
</event>
<event>
 7    1  0.7457761E-012  0.5930193E+02  0.7816164E-02  0.1266605E+00
        -11   -1    0    0    0    0  0.00000000000E+00  0.00000000000E+00  0.45593999997E+02  0.45594000000E+02  0.51100000000E-03 0. -1.
         11   -1    0    0    0    0 -0.00000000000E+00 -0.00000000000E+00 -0.45593999997E+02  0.45594000000E+02  0.51100000000E-03 0.  1.
    9900012    2    1    2    0    0  0.18011094342E+01 -0.24135366122E+02 -0.20759609339E+02  0.59301932934E+02  0.49999979768E+02 0.  0.
         12    1    1    2    0    0 -0.18011094342E+01  0.24135366122E+02  0.20759609339E+02  0.31886067066E+02  0.00000000000E+00 0. -1.
         11    1    3    3    0    0 -0.19506008500E+02 -0.87044483909E+01  0.15747456189E+01  0.21418020763E+02  0.51100000000E-03 0.  1.
        -11    1    3    3    0    0  0.21067548724E+02 -0.14760706153E+02 -0.13556899765E+02  0.29077647547E+02  0.51100000000E-03 0. -1.
        -12    1    3    3    0    0  0.23956920955E+00 -0.67021157826E+00 -0.87774551924E+01  0.88062646236E+01  0.00000000000E+00 0.  1.
</event>
<event>
 7    1  0.7457761E-012  0.5930195E+02  0.7816164E-02  0.1266605E+00
        -11   -1    0    0    0    0  0.00000000000E+00  0.00000000000E+00  0.45593999997E+02  0.45594000000E+02  0.51100000000E-03 0.  1.
         11   -1    0    0    0    0 -0.00000000000E+00 -0.00000000000E+00 -0.45593999997E+02  0.45594000000E+02  0.51100000000E-03 0. -1.
    9900012    2    1    2    0    0 -0.25672595289E+01  0.28129301026E+02  0.14794321771E+02  0.59301947338E+02  0.50000006037E+02 0.  0.
         12    1    1    2    0    0  0.25672595289E+01 -0.28129301026E+02 -0.14794321771E+02  0.31886052662E+02  0.00000000000E+00 0. -1.
         11    1    3    3    0    0  0.13402275919E+02  0.95945182898E+01  0.13635666437E+02  0.21391754964E+02  0.51100000000E-03 0. -1.
        -11    1    3    3    0    0 -0.93493948158E+01  0.25829276198E+02 -0.20614704954E+01  0.27546548844E+02  0.51100000000E-03 0.  1.
         12    1    3    3    0    0 -0.66201406318E+01 -0.72944934618E+01  0.32201258303E+01  0.10363643530E+02  0.00000000000E+00 0. -1.
</event>
<event>
 7    1  0.7457761E-012  0.5930196E+02  0.7816164E-02  0.1266605E+00
        -11   -1    0    0    0    0  0.00000000000E+00  0.00000000000E+00  0.45593999997E+02  0.45594000000E+02  0.51100000000E-03 0.  1.
         11   -1    0    0    0    0 -0.00000000000E+00 -0.00000000000E+00 -0.45593999997E+02  0.45594000000E+02  0.51100000000E-03 0. -1.
    9900012    2    1    2    0    0  0.88424556598E+01  0.23115502176E+02  0.20104827756E+02  0.59301959762E+02  0.50000028696E+02 0.  0.
         12    1    1    2    0    0 -0.88424556598E+01 -0.23115502176E+02 -0.20104827756E+02  0.31886040238E+02  0.00000000000E+00 0. -1.
         11    1    3    3    0    0 -0.17516316343E+01  0.87804226461E+00 -0.59843247134E+01  0.62969289450E+01  0.51100000000E-03 0. -1.
        -11    1    3    3    0    0 -0.13212339390E+02  0.16410929422E+02  0.16197057958E+02  0.26574973253E+02  0.51100000000E-03 0.  1.
        -12    1    3    3    0    0  0.23806426684E+02  0.58265304890E+01  0.98920945121E+01  0.26430057564E+02  0.00000000000E+00 0.  1.
</event>
<event>
 7    1  0.7457761E-012  0.5930196E+02  0.7816164E-02  0.1266605E+00
        -11   -1    0    0    0    0  0.00000000000E+00  0.00000000000E+00  0.45593999997E+02  0.45594000000E+02  0.51100000000E-03 0. -1.
         11   -1    0    0    0    0 -0.00000000000E+00 -0.00000000000E+00 -0.45593999997E+02  0.45594000000E+02  0.51100000000E-03 0.  1.
    9900012    2    1    2    0    0  0.68366069839E+01  0.30669349085E+02 -0.54195236766E+01  0.59301962222E+02  0.50000033181E+02 0.  0.
         12    1    1    2    0    0 -0.68366069839E+01 -0.30669349085E+02  0.54195236766E+01  0.31886037778E+02  0.00000000000E+00 0. -1.
         11    1    3    3    0    0 -0.87476214139E+01  0.11493211610E+01  0.10247566107E+02  0.13522367799E+02  0.51100000000E-03 0. -1.
        -11    1    3    3    0    0  0.90458750633E+01  0.33181806050E+02 -0.85387020913E+01  0.35436838771E+02  0.51100000000E-03 0.  1.
        -12    1    3    3    0    0  0.65383533345E+01 -0.36617781264E+01 -0.71283876919E+01  0.10342755651E+02  0.00000000000E+00 0.  1.
</event>
<event>
 7    1  0.7457761E-012  0.5930189E+02  0.7816164E-02  0.1266605E+00
        -11   -1    0    0    0    0  0.00000000000E+00  0.00000000000E+00  0.45593999997E+02  0.45594000000E+02  0.51100000000E-03 0.  1.
         11   -1    0    0    0    0 -0.00000000000E+00 -0.00000000000E+00 -0.45593999997E+02  0.45594000000E+02  0.51100000000E-03 0. -1.
    9900012    2    1    2    0    0  0.95539008381E-01  0.19984854243E+02  0.24845937074E+02  0.59301888354E+02  0.49999898464E+02 0.  0.
         12    1    1    2    0    0 -0.95539008381E-01 -0.19984854243E+02 -0.24845937074E+02  0.31886111646E+02  0.00000000000E+00 0. -1.
         11    1    3    3    0    0  0.11207537898E+02  0.55415407124E+00 -0.14080220067E+01  0.11309222728E+02  0.51100000000E-03 0. -1.
        -11    1    3    3    0    0 -0.10924612730E+02  0.24887223552E+02  0.71221740182E+01  0.28097089216E+02  0.51100000000E-03 0.  1.
        -12    1    3    3    0    0 -0.18738616000E+00 -0.54565233803E+01  0.19131785063E+02  0.19895576409E+02  0.00000000000E+00 0.  1.
</event>
<event>
 7    1  0.7457761E-012  0.5930208E+02  0.7816164E-02  0.1266604E+00
        -11   -1    0    0    0    0  0.00000000000E+00  0.00000000000E+00  0.45593999997E+02  0.45594000000E+02  0.51100000000E-03 0. -1.
         11   -1    0    0    0    0 -0.00000000000E+00 -0.00000000000E+00 -0.45593999997E+02  0.45594000000E+02  0.51100000000E-03 0.  1.
    9900012    2    1    2    0    0  0.15580298156E+02 -0.26827375460E+02  0.73659911878E+01  0.59302084757E+02  0.50000256656E+02 0.  0.
         12    1    1    2    0    0 -0.15580298156E+02  0.26827375460E+02 -0.73659911878E+01  0.31885915243E+02  0.00000000000E+00 0. -1.
         11    1    3    3    0    0  0.38395493856E+01  0.78125547267E+01  0.11980587047E+02  0.14809207173E+02  0.51100000000E-03 0. -1.
        -11    1    3    3    0    0  0.13448665789E+02 -0.36115845254E+02 -0.89866681709E+01  0.39572479010E+02  0.51100000000E-03 0.  1.
        -12    1    3    3    0    0 -0.17079170183E+01  0.14759150677E+01  0.43720723118E+01  0.49203985741E+01  0.00000000000E+00 0.  1.
</event>
<event>
 7    1  0.7457761E-012  0.5930195E+02  0.7816164E-02  0.1266605E+00
        -11   -1    0    0    0    0  0.00000000000E+00  0.00000000000E+00  0.45593999997E+02  0.45594000000E+02  0.51100000000E-03 0.  1.
         11   -1    0    0    0    0 -0.00000000000E+00 -0.00000000000E+00 -0.45593999997E+02  0.45594000000E+02  0.51100000000E-03 0. -1.
    9900012    2    1    2    0    0 -0.22219127510E+02  0.18274749133E+02 -0.13750057378E+02  0.59301950369E+02  0.50000011565E+02 0.  0.
         12    1    1    2    0    0  0.22219127510E+02 -0.18274749133E+02  0.13750057378E+02  0.31886049631E+02  0.00000000000E+00 0. -1.
         11    1    3    3    0    0  0.52907210901E+01 -0.12782300135E+01 -0.14163420273E+02  0.15173268458E+02  0.51100000000E-03 0. -1.
        -11    1    3    3    0    0 -0.28634510735E+02  0.11302958154E+02 -0.84947664683E+01  0.31935139356E+02  0.51100000000E-03 0.  1.
        -12    1    3    3    0    0  0.11246621347E+01  0.82500209920E+01  0.89081293632E+01  0.12193542555E+02  0.00000000000E+00 0.  1.
</event>
<event>
 7    1  0.7457761E-012  0.5930190E+02  0.7816164E-02  0.1266605E+00
        -11   -1    0    0    0    0  0.00000000000E+00  0.00000000000E+00  0.45593999997E+02  0.45594000000E+02  0.51100000000E-03 0. -1.
         11   -1    0    0    0    0 -0.00000000000E+00 -0.00000000000E+00 -0.45593999997E+02  0.45594000000E+02  0.51100000000E-03 0.  1.
    9900012    2    1    2    0    0  0.25002446895E+02  0.14384812386E+02 -0.13589646857E+02  0.59301895193E+02  0.49999910936E+02 0.  0.
         12    1    1    2    0    0 -0.25002446895E+02 -0.14384812386E+02  0.13589646857E+02  0.31886104807E+02  0.00000000000E+00 0. -1.
         11    1    3    3    0    0  0.10473089368E+02  0.25775110591E+01 -0.20047191042E+02  0.22764424726E+02  0.51100000000E-03 0.  1.
        -11    1    3    3    0    0  0.52966134103E+01  0.15388401411E+02  0.15973359009E+02  0.22803622736E+02  0.51100000000E-03 0. -1.
         12    1    3    3    0    0  0.92327441160E+01 -0.35811000844E+01 -0.95158148243E+01  0.13733847731E+02  0.00000000000E+00 0. -1.
</event>
<event>
 7    1  0.7457761E-012  0.5930203E+02  0.7816164E-02  0.1266604E+00
        -11   -1    0    0    0    0  0.00000000000E+00  0.00000000000E+00  0.45593999997E+02  0.45594000000E+02  0.51100000000E-03 0. -1.
         11   -1    0    0    0    0 -0.00000000000E+00 -0.00000000000E+00 -0.45593999997E+02  0.45594000000E+02  0.51100000000E-03 0.  1.
    9900012    2    1    2    0    0 -0.18192482219E+01  0.88592592403E+01 -0.30576446984E+02  0.59302027401E+02  0.50000152053E+02 0.  0.
         12    1    1    2    0    0  0.18192482219E+01 -0.88592592403E+01  0.30576446984E+02  0.31885972599E+02  0.00000000000E+00 0. -1.
         11    1    3    3    0    0  0.15868427002E+02  0.30690902971E+01  0.59152126227E+01  0.17210927674E+02  0.51100000000E-03 0. -1.
        -11    1    3    3    0    0 -0.11770179039E+01 -0.48600573502E+00 -0.11026023297E+02  0.11099313616E+02  0.51100000000E-03 0.  1.
         12    1    3    3    0    0 -0.16510657320E+02  0.62761746782E+01 -0.25465636309E+02  0.30991786112E+02  0.00000000000E+00 0. -1.
</event>
<event>
 7    1  0.7457761E-012  0.5930201E+02  0.7816164E-02  0.1266605E+00
        -11   -1    0    0    0    0  0.00000000000E+00  0.00000000000E+00  0.45593999997E+02  0.45594000000E+02  0.51100000000E-03 0. -1.
         11   -1    0    0    0    0 -0.00000000000E+00 -0.00000000000E+00 -0.45593999997E+02  0.45594000000E+02  0.51100000000E-03 0.  1.
    9900012    2    1    2    0    0  0.10388866904E+02 -0.18866609134E+02 -0.23512523231E+02  0.59302011785E+02  0.50000123573E+02 0.  0.
         12    1    1    2    0    0 -0.10388866904E+02  0.18866609134E+02  0.23512523231E+02  0.31885988215E+02  0.00000000000E+00 0. -1.
         11    1    3    3    0    0  0.25565028052E+02 -0.21823094844E+02 -0.74614520389E+01  0.34430965637E+02  0.51100000000E-03 0. -1.
        -11    1    3    3    0    0 -0.64689831653E+01  0.68720254512E+01 -0.75137082916E+01  0.12063510664E+02  0.51100000000E-03 0.  1.
         12    1    3    3    0    0 -0.87071779823E+01 -0.39155397408E+01 -0.85373629006E+01  0.12807535484E+02  0.00000000000E+00 0. -1.
</event>
<event>
 7    1  0.7457761E-012  0.5930193E+02  0.7816164E-02  0.1266605E+00
        -11   -1    0    0    0    0  0.00000000000E+00  0.00000000000E+00  0.45593999997E+02  0.45594000000E+02  0.51100000000E-03 0. -1.
         11   -1    0    0    0    0 -0.00000000000E+00 -0.00000000000E+00 -0.45593999997E+02  0.45594000000E+02  0.51100000000E-03 0.  1.
    9900012    2    1    2    0    0 -0.13516728734E+02  0.25937377035E+01 -0.28762689158E+02  0.59301925946E+02  0.49999967024E+02 0.  0.
         12    1    1    2    0    0  0.13516728734E+02 -0.25937377035E+01  0.28762689158E+02  0.31886074054E+02  0.00000000000E+00 0. -1.
         11    1    3    3    0    0 -0.10129516838E+02 -0.11579192647E+02  0.23339924262E+01  0.15560602001E+02  0.51100000000E-03 0. -1.
        -11    1    3    3    0    0 -0.90911645921E+01  0.17307708264E+01 -0.28295312486E+02  0.29770279647E+02  0.51100000000E-03 0.  1.
         12    1    3    3    0    0  0.57039526957E+01  0.12442159524E+02 -0.28013690981E+01  0.13971044299E+02  0.00000000000E+00 0. -1.
</event>
<event>
 7    1  0.7457761E-012  0.5930193E+02  0.7816164E-02  0.1266605E+00
        -11   -1    0    0    0    0  0.00000000000E+00  0.00000000000E+00  0.45593999997E+02  0.45594000000E+02  0.51100000000E-03 0. -1.
         11   -1    0    0    0    0 -0.00000000000E+00 -0.00000000000E+00 -0.45593999997E+02  0.45594000000E+02  0.51100000000E-03 0.  1.
    9900012    2    1    2    0    0 -0.36698213952E+01  0.31575003153E+02 -0.25045520956E+01  0.59301934166E+02  0.49999982015E+02 0.  0.
         12    1    1    2    0    0  0.36698213952E+01 -0.31575003153E+02  0.25045520956E+01  0.31886065834E+02  0.00000000000E+00 0. -1.
         11    1    3    3    0    0  0.16795299766E+02  0.11863664649E+02 -0.13164174535E+02  0.24415653270E+02  0.51100000000E-03 0.  1.
        -11    1    3    3    0    0 -0.10633173116E+02  0.20726881523E+02  0.82457353240E+01  0.24711538590E+02  0.51100000000E-03 0. -1.
         12    1    3    3    0    0 -0.98319480452E+01 -0.10155430198E+01  0.24138871153E+01  0.10174742306E+02  0.00000000000E+00 0. -1.
</event>
<event>
 7    1  0.7457761E-012  0.5930194E+02  0.7816164E-02  0.1266605E+00
        -11   -1    0    0    0    0  0.00000000000E+00  0.00000000000E+00  0.45593999997E+02  0.45594000000E+02  0.51100000000E-03 0.  1.
         11   -1    0    0    0    0 -0.00000000000E+00 -0.00000000000E+00 -0.45593999997E+02  0.45594000000E+02  0.51100000000E-03 0. -1.
    9900012    2    1    2    0    0 -0.97065038526E+01  0.80853926427E+01  0.29276799493E+02  0.59301940667E+02  0.49999993872E+02 0.  0.
         12    1    1    2    0    0  0.97065038526E+01 -0.80853926427E+01 -0.29276799493E+02  0.31886059333E+02  0.00000000000E+00 0. -1.
         11    1    3    3    0    0  0.12111891481E+02 -0.15321326835E+01 -0.48534344357E+01  0.13137776520E+02  0.51100000000E-03 0. -1.
        -11    1    3    3    0    0 -0.58305251544E+01  0.98545887058E+01  0.25594130376E+02  0.28038677788E+02  0.51100000000E-03 0.  1.
         12    1    3    3    0    0 -0.15987870179E+02 -0.23706337955E+00  0.85361035525E+01  0.18125486360E+02  0.00000000000E+00 0. -1.
</event>
<event>
 7    1  0.7457761E-012  0.5930186E+02  0.7816164E-02  0.1266605E+00
        -11   -1    0    0    0    0  0.00000000000E+00  0.00000000000E+00  0.45593999997E+02  0.45594000000E+02  0.51100000000E-03 0. -1.
         11   -1    0    0    0    0 -0.00000000000E+00 -0.00000000000E+00 -0.45593999997E+02  0.45594000000E+02  0.51100000000E-03 0.  1.
    9900012    2    1    2    0    0 -0.16121986359E+02 -0.13287102235E+02 -0.24088600884E+02  0.59301855320E+02  0.49999838219E+02 0.  0.
         12    1    1    2    0    0  0.16121986359E+02  0.13287102235E+02  0.24088600884E+02  0.31886144680E+02  0.00000000000E+00 0. -1.
         11    1    3    3    0    0  0.81854139676E+00  0.13356101154E+02 -0.17973805122E+01  0.13501334194E+02  0.51100000000E-03 0. -1.
        -11    1    3    3    0    0 -0.17730671200E+02 -0.12272311102E+02 -0.22822274273E+02  0.31398129311E+02  0.51100000000E-03 0.  1.
         12    1    3    3    0    0  0.79014344349E+00 -0.14370892287E+02  0.53105390078E+00  0.14402391816E+02  0.00000000000E+00 0. -1.
</event>
<event>
 7    1  0.7457761E-012  0.5930193E+02  0.7816164E-02  0.1266605E+00
        -11   -1    0    0    0    0  0.00000000000E+00  0.00000000000E+00  0.45593999997E+02  0.45594000000E+02  0.51100000000E-03 0.  1.
         11   -1    0    0    0    0 -0.00000000000E+00 -0.00000000000E+00 -0.45593999997E+02  0.45594000000E+02  0.51100000000E-03 0. -1.
    9900012    2    1    2    0    0  0.23671284890E+02  0.10075557987E+02  0.18838127411E+02  0.59301927155E+02  0.49999969229E+02 0.  0.
         12    1    1    2    0    0 -0.23671284890E+02 -0.10075557987E+02 -0.18838127411E+02  0.31886072845E+02  0.00000000000E+00 0. -1.
         11    1    3    3    0    0  0.78096863921E+01  0.14464133707E+02  0.30729517044E+02  0.34849757294E+02  0.51100000000E-03 0. -1.
        -11    1    3    3    0    0  0.11895372032E+02  0.34566815620E+01 -0.53439774369E+01  0.13490982852E+02  0.51100000000E-03 0.  1.
         12    1    3    3    0    0  0.39662264656E+01 -0.78452572817E+01 -0.65474121956E+01  0.10961187009E+02  0.00000000000E+00 0. -1.
</event>
<event>
 7    1  0.7457761E-012  0.5930199E+02  0.7816164E-02  0.1266605E+00
        -11   -1    0    0    0    0  0.00000000000E+00  0.00000000000E+00  0.45593999997E+02  0.45594000000E+02  0.51100000000E-03 0. -1.
         11   -1    0    0    0    0 -0.00000000000E+00 -0.00000000000E+00 -0.45593999997E+02  0.45594000000E+02  0.51100000000E-03 0.  1.
    9900012    2    1    2    0    0  0.26857021711E+02  0.93690738911E+01 -0.14409664270E+02  0.59301990761E+02  0.50000085231E+02 0.  0.
         12    1    1    2    0    0 -0.26857021711E+02 -0.93690738911E+01  0.14409664270E+02  0.31886009239E+02  0.00000000000E+00 0. -1.
         11    1    3    3    0    0 -0.47652383128E+01 -0.34615282790E+01  0.22073873952E+01  0.62898516339E+01  0.51100000000E-03 0. -1.
        -11    1    3    3    0    0  0.32730927180E+02 -0.27861338751E+01 -0.17707847864E+02  0.37318145884E+02  0.51100000000E-03 0.  1.
        -12    1    3    3    0    0 -0.11086671555E+01  0.15616736045E+02  0.10907961984E+01  0.15693993243E+02  0.00000000000E+00 0.  1.
</event>
<event>
 7    1  0.7457761E-012  0.5930194E+02  0.7816164E-02  0.1266605E+00
        -11   -1    0    0    0    0  0.00000000000E+00  0.00000000000E+00  0.45593999997E+02  0.45594000000E+02  0.51100000000E-03 0.  1.
         11   -1    0    0    0    0 -0.00000000000E+00 -0.00000000000E+00 -0.45593999997E+02  0.45594000000E+02  0.51100000000E-03 0. -1.
    9900012    2    1    2    0    0 -0.92348074954E+01  0.22838883086E+01  0.30433911253E+02  0.59301940829E+02  0.49999994167E+02 0.  0.
         12    1    1    2    0    0  0.92348074954E+01 -0.22838883086E+01 -0.30433911253E+02  0.31886059171E+02  0.00000000000E+00 0. -1.
         11    1    3    3    0    0  0.11660715002E+02  0.23243575877E+01 -0.25302752262E+01  0.12156364816E+02  0.51100000000E-03 0. -1.
        -11    1    3    3    0    0 -0.19827411986E+02  0.86102091212E+01  0.12662820523E+02  0.25052125479E+02  0.51100000000E-03 0.  1.
         12    1    3    3    0    0 -0.10681105113E+01 -0.86506784003E+01  0.20301365956E+02  0.22093450535E+02  0.00000000000E+00 0. -1.
</event>
<event>
 7    1  0.7457761E-012  0.5930177E+02  0.7816164E-02  0.1266605E+00
        -11   -1    0    0    0    0  0.00000000000E+00  0.00000000000E+00  0.45593999997E+02  0.45594000000E+02  0.51100000000E-03 0.  1.
         11   -1    0    0    0    0 -0.00000000000E+00 -0.00000000000E+00 -0.45593999997E+02  0.45594000000E+02  0.51100000000E-03 0. -1.
    9900012    2    1    2    0    0  0.99787253117E+01 -0.23150009219E+02 -0.19525214155E+02  0.59301766709E+02  0.49999676612E+02 0.  0.
         12    1    1    2    0    0 -0.99787253117E+01  0.23150009219E+02  0.19525214155E+02  0.31886233291E+02  0.00000000000E+00 0. -1.
         11    1    3    3    0    0  0.28362891879E+02 -0.99041317453E+01 -0.10137263325E+02  0.31706617123E+02  0.51100000000E-03 0. -1.
        -11    1    3    3    0    0 -0.12139065253E+02 -0.79100498435E+01 -0.12170883075E+02  0.18922372706E+02  0.51100000000E-03 0.  1.
         12    1    3    3    0    0 -0.62451013142E+01 -0.53358276306E+01  0.27829322454E+01  0.86727768801E+01  0.00000000000E+00 0. -1.
</event>
<event>
 7    1  0.7457761E-012  0.5930193E+02  0.7816164E-02  0.1266605E+00
        -11   -1    0    0    0    0  0.00000000000E+00  0.00000000000E+00  0.45593999997E+02  0.45594000000E+02  0.51100000000E-03 0. -1.
         11   -1    0    0    0    0 -0.00000000000E+00 -0.00000000000E+00 -0.45593999997E+02  0.45594000000E+02  0.51100000000E-03 0.  1.
    9900012    2    1    2    0    0 -0.20364458999E+02 -0.69827904100E+01 -0.23521292283E+02  0.59301925565E+02  0.49999966328E+02 0.  0.
         12    1    1    2    0    0  0.20364458999E+02  0.69827904100E+01  0.23521292283E+02  0.31886074435E+02  0.00000000000E+00 0. -1.
         11    1    3    3    0    0 -0.21765766247E+02 -0.13756324216E+02 -0.23550442133E+02  0.34894245388E+02  0.51100000000E-03 0. -1.
        -11    1    3    3    0    0 -0.10936792939E+02  0.28521497241E+01  0.14003563167E+01  0.11388994508E+02  0.51100000000E-03 0.  1.
         12    1    3    3    0    0  0.12338100188E+02  0.39213840820E+01 -0.13712064669E+01  0.13018685668E+02  0.00000000000E+00 0. -1.
</event>
<event>
 7    1  0.7457761E-012  0.5930198E+02  0.7816164E-02  0.1266605E+00
        -11   -1    0    0    0    0  0.00000000000E+00  0.00000000000E+00  0.45593999997E+02  0.45594000000E+02  0.51100000000E-03 0.  1.
         11   -1    0    0    0    0 -0.00000000000E+00 -0.00000000000E+00 -0.45593999997E+02  0.45594000000E+02  0.51100000000E-03 0. -1.
    9900012    2    1    2    0    0 -0.27699654613E+02  0.38975604621E+01  0.15305440420E+02  0.59301978773E+02  0.50000063367E+02 0.  0.
         12    1    1    2    0    0  0.27699654613E+02 -0.38975604621E+01 -0.15305440420E+02  0.31886021227E+02  0.00000000000E+00 0. -1.
         11    1    3    3    0    0  0.21606416670E+01 -0.14306896713E+01  0.33168609619E+00  0.26125201007E+01  0.51100000000E-03 0. -1.
        -11    1    3    3    0    0 -0.34003863743E+02  0.27563099217E+01 -0.64481552073E+01  0.34719428274E+02  0.51100000000E-03 0.  1.
        -12    1    3    3    0    0  0.41435674625E+01  0.25719402116E+01  0.21421909531E+02  0.21970030399E+02  0.00000000000E+00 0.  1.
</event>
<event>
 7    1  0.7457761E-012  0.5930198E+02  0.7816164E-02  0.1266605E+00
        -11   -1    0    0    0    0  0.00000000000E+00  0.00000000000E+00  0.45593999997E+02  0.45594000000E+02  0.51100000000E-03 0.  1.
         11   -1    0    0    0    0 -0.00000000000E+00 -0.00000000000E+00 -0.45593999997E+02  0.45594000000E+02  0.51100000000E-03 0. -1.
    9900012    2    1    2    0    0  0.12370435826E+01  0.27208642902E+01  0.31745626869E+02  0.59301981048E+02  0.50000067516E+02 0.  0.
         12    1    1    2    0    0 -0.12370435826E+01 -0.27208642902E+01 -0.31745626869E+02  0.31886018952E+02  0.00000000000E+00 0. -1.
         11    1    3    3    0    0  0.15870498710E+02  0.15459080045E+02  0.26963543518E+02  0.34898260193E+02  0.51100000000E-03 0. -1.
        -11    1    3    3    0    0 -0.96546479939E+01 -0.13855601285E+01  0.67370284541E+01  0.11854094542E+02  0.51100000000E-03 0.  1.
         12    1    3    3    0    0 -0.49788071333E+01 -0.11352655627E+02 -0.19549451038E+01  0.12549626313E+02  0.00000000000E+00 0. -1.
</event>
<event>
 7    1  0.7457761E-012  0.5930195E+02  0.7816164E-02  0.1266605E+00
        -11   -1    0    0    0    0  0.00000000000E+00  0.00000000000E+00  0.45593999997E+02  0.45594000000E+02  0.51100000000E-03 0.  1.
         11   -1    0    0    0    0 -0.00000000000E+00 -0.00000000000E+00 -0.45593999997E+02  0.45594000000E+02  0.51100000000E-03 0. -1.
    9900012    2    1    2    0    0 -0.63004845545E+01 -0.26469489513E+02 -0.16624990751E+02  0.59301948219E+02  0.50000007644E+02 0.  0.
         12    1    1    2    0    0  0.63004845545E+01  0.26469489513E+02  0.16624990751E+02  0.31886051781E+02  0.00000000000E+00 0. -1.
         11    1    3    3    0    0 -0.17324065293E+02  0.12004626686E+01 -0.13559553254E+01  0.17418466178E+02  0.51100000000E-03 0. -1.
        -11    1    3    3    0    0  0.12352738985E+02 -0.89377532888E+01 -0.17223606410E+02  0.23002743582E+02  0.51100000000E-03 0.  1.
         12    1    3    3    0    0 -0.13291582462E+01 -0.18732198893E+02  0.19545709845E+01  0.18880738458E+02  0.00000000000E+00 0. -1.
</event>
<event>
 7    1  0.7457761E-012  0.5930195E+02  0.7816164E-02  0.1266605E+00
        -11   -1    0    0    0    0  0.00000000000E+00  0.00000000000E+00  0.45593999997E+02  0.45594000000E+02  0.51100000000E-03 0. -1.
         11   -1    0    0    0    0 -0.00000000000E+00 -0.00000000000E+00 -0.45593999997E+02  0.45594000000E+02  0.51100000000E-03 0.  1.
    9900012    2    1    2    0    0  0.21477693408E+02 -0.21905807316E+02 -0.86927991132E+01  0.59301945607E+02  0.50000002881E+02 0.  0.
         12    1    1    2    0    0 -0.21477693408E+02  0.21905807316E+02  0.86927991132E+01  0.31886054393E+02  0.00000000000E+00 0. -1.
         11    1    3    3    0    0  0.30411786855E+02 -0.23953531636E+02 -0.31453590319E+01  0.38839950325E+02  0.51100000000E-03 0. -1.
        -11    1    3    3    0    0 -0.12281557973E+02 -0.38503587496E+01 -0.42711036384E+01  0.13561130311E+02  0.51100000000E-03 0.  1.
         12    1    3    3    0    0  0.33474645268E+01  0.58980830692E+01 -0.12763364429E+01  0.69008649722E+01  0.00000000000E+00 0. -1.
</event>
<event>
 7    1  0.7457761E-012  0.5930189E+02  0.7816164E-02  0.1266605E+00
        -11   -1    0    0    0    0  0.00000000000E+00  0.00000000000E+00  0.45593999997E+02  0.45594000000E+02  0.51100000000E-03 0.  1.
         11   -1    0    0    0    0 -0.00000000000E+00 -0.00000000000E+00 -0.45593999997E+02  0.45594000000E+02  0.51100000000E-03 0. -1.
    9900012    2    1    2    0    0  0.13257266482E+01  0.16568000208E+01  0.31815427984E+02  0.59301890245E+02  0.49999901914E+02 0.  0.
         12    1    1    2    0    0 -0.13257266482E+01 -0.16568000208E+01 -0.31815427984E+02  0.31886109755E+02  0.00000000000E+00 0. -1.
         11    1    3    3    0    0  0.22309675101E+01  0.10433587128E+02 -0.77909109931E+01  0.13211179007E+02  0.51100000000E-03 0. -1.
        -11    1    3    3    0    0 -0.10149188875E+02 -0.89474228701E+01  0.17435987255E+02  0.22069799787E+02  0.51100000000E-03 0.  1.
        -12    1    3    3    0    0  0.92439480131E+01  0.17063576256E+00  0.22170351723E+02  0.24020911451E+02  0.00000000000E+00 0.  1.
</event>
<event>
 7    1  0.7457761E-012  0.5930196E+02  0.7816164E-02  0.1266605E+00
        -11   -1    0    0    0    0  0.00000000000E+00  0.00000000000E+00  0.45593999997E+02  0.45594000000E+02  0.51100000000E-03 0. -1.
         11   -1    0    0    0    0 -0.00000000000E+00 -0.00000000000E+00 -0.45593999997E+02  0.45594000000E+02  0.51100000000E-03 0.  1.
    9900012    2    1    2    0    0  0.17892896519E+02  0.59617696872E+00 -0.26385762550E+02  0.59301958569E+02  0.50000026520E+02 0.  0.
         12    1    1    2    0    0 -0.17892896519E+02 -0.59617696872E+00  0.26385762550E+02  0.31886041431E+02  0.00000000000E+00 0. -1.
         11    1    3    3    0    0  0.35638648794E+00  0.10765499450E+01 -0.32081550780E+02  0.32101586749E+02  0.51100000000E-03 0. -1.
        -11    1    3    3    0    0  0.99310461341E+01  0.97014750026E+01  0.27019821549E+01  0.14143726608E+02  0.51100000000E-03 0.  1.
         12    1    3    3    0    0  0.76054638970E+01 -0.10181847979E+02  0.29938060755E+01  0.13056645211E+02  0.00000000000E+00 0. -1.
</event>
<event>
 7    1  0.7457761E-012  0.5930195E+02  0.7816164E-02  0.1266605E+00
        -11   -1    0    0    0    0  0.00000000000E+00  0.00000000000E+00  0.45593999997E+02  0.45594000000E+02  0.51100000000E-03 0.  1.
         11   -1    0    0    0    0 -0.00000000000E+00 -0.00000000000E+00 -0.45593999997E+02  0.45594000000E+02  0.51100000000E-03 0. -1.
    9900012    2    1    2    0    0 -0.81039703504E+01 -0.10094555142E+02  0.29140110602E+02  0.59301946232E+02  0.50000004021E+02 0.  0.
         12    1    1    2    0    0  0.81039703504E+01  0.10094555142E+02 -0.29140110602E+02  0.31886053768E+02  0.00000000000E+00 0. -1.
         11    1    3    3    0    0 -0.57556116932E+01  0.13358641872E+02  0.71220817806E+01  0.16195815132E+02  0.51100000000E-03 0.  1.
        -11    1    3    3    0    0  0.77891972921E+01 -0.22508680511E+02  0.22698590422E+02  0.32901949794E+02  0.51100000000E-03 0. -1.
         12    1    3    3    0    0 -0.10137555949E+02 -0.94451650337E+00 -0.68056160022E+00  0.10204181307E+02  0.00000000000E+00 0. -1.
</event>
<event>
 7    1  0.7457761E-012  0.5930196E+02  0.7816164E-02  0.1266605E+00
        -11   -1    0    0    0    0  0.00000000000E+00  0.00000000000E+00  0.45593999997E+02  0.45594000000E+02  0.51100000000E-03 0.  1.
         11   -1    0    0    0    0 -0.00000000000E+00 -0.00000000000E+00 -0.45593999997E+02  0.45594000000E+02  0.51100000000E-03 0. -1.
    9900012    2    1    2    0    0  0.22713400202E+02  0.92328271172E+01  0.20385676878E+02  0.59301961251E+02  0.50000031412E+02 0.  0.
         12    1    1    2    0    0 -0.22713400202E+02 -0.92328271172E+01 -0.20385676878E+02  0.31886038749E+02  0.00000000000E+00 0. -1.
         11    1    3    3    0    0 -0.13996638898E+02  0.89701476879E+01 -0.75038951341E-01  0.16624532508E+02  0.51100000000E-03 0. -1.
        -11    1    3    3    0    0  0.17564358565E+02 -0.25526271222E+01  0.68786549370E+01  0.19035190859E+02  0.51100000000E-03 0.  1.
         12    1    3    3    0    0  0.19145680535E+02  0.28153065515E+01  0.13582060892E+02  0.23642237885E+02  0.00000000000E+00 0. -1.
</event>
<event>
 7    1  0.7457761E-012  0.5930199E+02  0.7816164E-02  0.1266605E+00
        -11   -1    0    0    0    0  0.00000000000E+00  0.00000000000E+00  0.45593999997E+02  0.45594000000E+02  0.51100000000E-03 0.  1.
         11   -1    0    0    0    0 -0.00000000000E+00 -0.00000000000E+00 -0.45593999997E+02  0.45594000000E+02  0.51100000000E-03 0. -1.
    9900012    2    1    2    0    0  0.24341937067E+02 -0.79178533263E+01  0.19013034997E+02  0.59301987373E+02  0.50000079051E+02 0.  0.
         12    1    1    2    0    0 -0.24341937067E+02  0.79178533263E+01 -0.19013034997E+02  0.31886012627E+02  0.00000000000E+00 0. -1.
         11    1    3    3    0    0 -0.80279776095E+01  0.93609222666E+00  0.61122578563E+01  0.10133330623E+02  0.51100000000E-03 0. -1.
        -11    1    3    3    0    0  0.28633555218E+02 -0.14774829174E+02  0.21002130566E+02  0.38461221381E+02  0.51100000000E-03 0.  1.
        -12    1    3    3    0    0  0.37363594580E+01  0.59208836208E+01 -0.81013534256E+01  0.10707435369E+02  0.00000000000E+00 0.  1.
</event>
<event>
 7    1  0.7457761E-012  0.5930197E+02  0.7816164E-02  0.1266605E+00
        -11   -1    0    0    0    0  0.00000000000E+00  0.00000000000E+00  0.45593999997E+02  0.45594000000E+02  0.51100000000E-03 0.  1.
         11   -1    0    0    0    0 -0.00000000000E+00 -0.00000000000E+00 -0.45593999997E+02  0.45594000000E+02  0.51100000000E-03 0. -1.
    9900012    2    1    2    0    0 -0.76368504878E+01  0.30313169436E+02  0.62856336030E+01  0.59301969887E+02  0.50000047160E+02 0.  0.
         12    1    1    2    0    0  0.76368504878E+01 -0.30313169436E+02 -0.62856336030E+01  0.31886030113E+02  0.00000000000E+00 0. -1.
         11    1    3    3    0    0  0.21673074017E+01  0.20872771189E+02 -0.18555656771E+02  0.28012179440E+02  0.51100000000E-03 0. -1.
        -11    1    3    3    0    0  0.30406266577E+00  0.48686145021E+01  0.17047630704E+02  0.17731823768E+02  0.51100000000E-03 0.  1.
         12    1    3    3    0    0 -0.10108220555E+02  0.45717837447E+01  0.77936596707E+01  0.13557966679E+02  0.00000000000E+00 0. -1.
</event>
<event>
 7    1  0.7457761E-012  0.5930194E+02  0.7816164E-02  0.1266605E+00
        -11   -1    0    0    0    0  0.00000000000E+00  0.00000000000E+00  0.45593999997E+02  0.45594000000E+02  0.51100000000E-03 0. -1.
         11   -1    0    0    0    0 -0.00000000000E+00 -0.00000000000E+00 -0.45593999997E+02  0.45594000000E+02  0.51100000000E-03 0.  1.
    9900012    2    1    2    0    0 -0.28831837931E+02 -0.32793722537E+01 -0.13217089272E+02  0.59301943335E+02  0.49999998736E+02 0.  0.
         12    1    1    2    0    0  0.28831837931E+02  0.32793722537E+01  0.13217089272E+02  0.31886056665E+02  0.00000000000E+00 0. -1.
         11    1    3    3    0    0 -0.75263856390E+01  0.35812939040E+01  0.10533081900E+02  0.13431975334E+02  0.51100000000E-03 0. -1.
        -11    1    3    3    0    0 -0.24771591653E+02 -0.15252304385E+02 -0.22346422544E+02  0.36682790826E+02  0.51100000000E-03 0.  1.
        -12    1    3    3    0    0  0.34661393608E+01  0.83916382275E+01 -0.14037486284E+01  0.91871771738E+01  0.00000000000E+00 0.  1.
</event>
<event>
 7    1  0.7457761E-012  0.5930204E+02  0.7816164E-02  0.1266604E+00
        -11   -1    0    0    0    0  0.00000000000E+00  0.00000000000E+00  0.45593999997E+02  0.45594000000E+02  0.51100000000E-03 0.  1.
         11   -1    0    0    0    0 -0.00000000000E+00 -0.00000000000E+00 -0.45593999997E+02  0.45594000000E+02  0.51100000000E-03 0. -1.
    9900012    2    1    2    0    0 -0.91248207765E+01 -0.29962102671E+02  0.59769971158E+01  0.59302039999E+02  0.50000175029E+02 0.  0.
         12    1    1    2    0    0  0.91248207765E+01  0.29962102671E+02 -0.59769971158E+01  0.31885960001E+02  0.00000000000E+00 0. -1.
         11    1    3    3    0    0 -0.32860668291E+01  0.91311749809E+01 -0.91570813724E+01  0.13342740770E+02  0.51100000000E-03 0. -1.
        -11    1    3    3    0    0  0.60126644597E+01 -0.19793906847E+02  0.60059243589E+01  0.21541170113E+02  0.51100000000E-03 0.  1.
         12    1    3    3    0    0 -0.11851418407E+02 -0.19299370805E+02  0.91281541294E+01  0.24418129116E+02  0.00000000000E+00 0. -1.
</event>
<event>
 7    1  0.7457761E-012  0.5930196E+02  0.7816164E-02  0.1266605E+00
        -11   -1    0    0    0    0  0.00000000000E+00  0.00000000000E+00  0.45593999997E+02  0.45594000000E+02  0.51100000000E-03 0. -1.
         11   -1    0    0    0    0 -0.00000000000E+00 -0.00000000000E+00 -0.45593999997E+02  0.45594000000E+02  0.51100000000E-03 0.  1.
    9900012    2    1    2    0    0  0.13358475581E+01  0.31752053975E+02 -0.25966106358E+01  0.59301955919E+02  0.50000021686E+02 0.  0.
         12    1    1    2    0    0 -0.13358475581E+01 -0.31752053975E+02  0.25966106358E+01  0.31886044081E+02  0.00000000000E+00 0. -1.
         11    1    3    3    0    0  0.45080097659E+01  0.28538712751E+02  0.11874536330E+02  0.31237555776E+02  0.51100000000E-03 0. -1.
        -11    1    3    3    0    0 -0.61749668953E+01 -0.91226455771E+01 -0.44137877786E+01  0.11867367075E+02  0.51100000000E-03 0.  1.
         12    1    3    3    0    0  0.30028046875E+01  0.12335986801E+02 -0.10057359188E+02  0.16197033067E+02  0.00000000000E+00 0. -1.
</event>
<event>
 7    1  0.7457761E-012  0.5930196E+02  0.7816164E-02  0.1266605E+00
        -11   -1    0    0    0    0  0.00000000000E+00  0.00000000000E+00  0.45593999997E+02  0.45594000000E+02  0.51100000000E-03 0. -1.
         11   -1    0    0    0    0 -0.00000000000E+00 -0.00000000000E+00 -0.45593999997E+02  0.45594000000E+02  0.51100000000E-03 0.  1.
    9900012    2    1    2    0    0 -0.20941892938E+02  0.64481926115E+01 -0.23164148951E+02  0.59301955021E+02  0.50000020049E+02 0.  0.
         12    1    1    2    0    0  0.20941892938E+02 -0.64481926115E+01  0.23164148951E+02  0.31886044979E+02  0.00000000000E+00 0. -1.
         11    1    3    3    0    0 -0.51654842227E+01  0.22045575788E+02 -0.89829525340E+01  0.24359455568E+02  0.51100000000E-03 0. -1.
        -11    1    3    3    0    0 -0.50399179098E+01 -0.96973007535E+01 -0.18885296232E+02  0.21819551519E+02  0.51100000000E-03 0.  1.
         12    1    3    3    0    0 -0.10736490806E+02 -0.59000824229E+01  0.47040998153E+01  0.13122947935E+02  0.00000000000E+00 0. -1.
</event>
<event>
 7    1  0.7457761E-012  0.5930197E+02  0.7816164E-02  0.1266605E+00
        -11   -1    0    0    0    0  0.00000000000E+00  0.00000000000E+00  0.45593999997E+02  0.45594000000E+02  0.51100000000E-03 0.  1.
         11   -1    0    0    0    0 -0.00000000000E+00 -0.00000000000E+00 -0.45593999997E+02  0.45594000000E+02  0.51100000000E-03 0. -1.
    9900012    2    1    2    0    0 -0.14759478915E+01 -0.62664734407E+01  0.31229347019E+02  0.59301965019E+02  0.50000038283E+02 0.  0.
         12    1    1    2    0    0  0.14759478915E+01  0.62664734407E+01 -0.31229347019E+02  0.31886034981E+02  0.00000000000E+00 0. -1.
         11    1    3    3    0    0 -0.38404226399E+00 -0.19357189096E+02  0.28735752089E+02  0.34649555647E+02  0.51100000000E-03 0. -1.
        -11    1    3    3    0    0 -0.80591590814E+01  0.15106701589E+02  0.49546288522E+00  0.17129155313E+02  0.51100000000E-03 0.  1.
        -12    1    3    3    0    0  0.69672534538E+01 -0.20159859331E+01  0.19981320450E+01  0.75232540594E+01  0.00000000000E+00 0.  1.
</event>
<event>
 7    1  0.7457761E-012  0.5930193E+02  0.7816164E-02  0.1266605E+00
        -11   -1    0    0    0    0  0.00000000000E+00  0.00000000000E+00  0.45593999997E+02  0.45594000000E+02  0.51100000000E-03 0.  1.
         11   -1    0    0    0    0 -0.00000000000E+00 -0.00000000000E+00 -0.45593999997E+02  0.45594000000E+02  0.51100000000E-03 0. -1.
    9900012    2    1    2    0    0  0.12352924344E+02 -0.13180903477E+02  0.26275284313E+02  0.59301929028E+02  0.49999972644E+02 0.  0.
         12    1    1    2    0    0 -0.12352924344E+02  0.13180903477E+02 -0.26275284313E+02  0.31886070972E+02  0.00000000000E+00 0. -1.
         11    1    3    3    0    0 -0.14712419939E+02 -0.11231038559E+02 -0.10788192816E+01  0.18540641275E+02  0.51100000000E-03 0. -1.
        -11    1    3    3    0    0  0.14713520424E+02 -0.16995701301E+01  0.57779595948E+01  0.15898460279E+02  0.51100000000E-03 0.  1.
         12    1    3    3    0    0  0.12351823860E+02 -0.25029478770E+00  0.21576143999E+02  0.24862827474E+02  0.00000000000E+00 0. -1.
</event>
<event>
 7    1  0.7457761E-012  0.5930193E+02  0.7816164E-02  0.1266605E+00
        -11   -1    0    0    0    0  0.00000000000E+00  0.00000000000E+00  0.45593999997E+02  0.45594000000E+02  0.51100000000E-03 0.  1.
         11   -1    0    0    0    0 -0.00000000000E+00 -0.00000000000E+00 -0.45593999997E+02  0.45594000000E+02  0.51100000000E-03 0. -1.
    9900012    2    1    2    0    0 -0.12263486083E+02  0.27428883576E+02  0.10676350704E+02  0.59301933929E+02  0.49999981582E+02 0.  0.
         12    1    1    2    0    0  0.12263486083E+02 -0.27428883576E+02 -0.10676350704E+02  0.31886066071E+02  0.00000000000E+00 0. -1.
         11    1    3    3    0    0 -0.71057012168E+01  0.32535454551E+01 -0.18787746535E+02  0.20348365240E+02  0.51100000000E-03 0. -1.
        -11    1    3    3    0    0 -0.23738864598E+01  0.35980725438E+01  0.80108165498E+01  0.90969580086E+01  0.51100000000E-03 0.  1.
         12    1    3    3    0    0 -0.27838984063E+01  0.20577265577E+02  0.21453280690E+02  0.29856610680E+02  0.00000000000E+00 0. -1.
</event>
<event>
 7    1  0.7457761E-012  0.5930188E+02  0.7816164E-02  0.1266605E+00
        -11   -1    0    0    0    0  0.00000000000E+00  0.00000000000E+00  0.45593999997E+02  0.45594000000E+02  0.51100000000E-03 0.  1.
         11   -1    0    0    0    0 -0.00000000000E+00 -0.00000000000E+00 -0.45593999997E+02  0.45594000000E+02  0.51100000000E-03 0. -1.
    9900012    2    1    2    0    0 -0.49572572078E+00 -0.18525955492E+02  0.25947409796E+02  0.59301876906E+02  0.49999877586E+02 0.  0.
         12    1    1    2    0    0  0.49572572078E+00  0.18525955492E+02 -0.25947409796E+02  0.31886123094E+02  0.00000000000E+00 0. -1.
         11    1    3    3    0    0 -0.10082433490E+02 -0.11076942229E+01 -0.70550879331E+01  0.12355432715E+02  0.51100000000E-03 0. -1.
        -11    1    3    3    0    0  0.56644907105E+01 -0.15964845126E+02  0.37289488190E+02  0.40956912293E+02  0.51100000000E-03 0.  1.
         12    1    3    3    0    0  0.39222170586E+01 -0.14534161432E+01 -0.42869904608E+01  0.59895318975E+01  0.00000000000E+00 0. -1.
</event>
<event>
 7    1  0.7457761E-012  0.5930192E+02  0.7816164E-02  0.1266605E+00
        -11   -1    0    0    0    0  0.00000000000E+00  0.00000000000E+00  0.45593999997E+02  0.45594000000E+02  0.51100000000E-03 0.  1.
         11   -1    0    0    0    0 -0.00000000000E+00 -0.00000000000E+00 -0.45593999997E+02  0.45594000000E+02  0.51100000000E-03 0. -1.
    9900012    2    1    2    0    0  0.25457049768E+02 -0.15425367434E+02  0.11433219435E+02  0.59301923885E+02  0.49999963265E+02 0.  0.
         12    1    1    2    0    0 -0.25457049768E+02  0.15425367434E+02 -0.11433219435E+02  0.31886076115E+02  0.00000000000E+00 0. -1.
         11    1    3    3    0    0  0.17208655383E+02  0.30143564538E+01  0.16310682681E+02  0.23901099027E+02  0.51100000000E-03 0. -1.
        -11    1    3    3    0    0  0.79190653131E+01 -0.20071565678E+02 -0.14265288264E+02  0.25866538108E+02  0.51100000000E-03 0.  1.
        -12    1    3    3    0    0  0.32932907191E+00  0.16318417900E+01  0.93878250182E+01  0.95342867503E+01  0.00000000000E+00 0.  1.
</event>
<event>
 7    1  0.7457761E-012  0.5930197E+02  0.7816164E-02  0.1266605E+00
        -11   -1    0    0    0    0  0.00000000000E+00  0.00000000000E+00  0.45593999997E+02  0.45594000000E+02  0.51100000000E-03 0.  1.
         11   -1    0    0    0    0 -0.00000000000E+00 -0.00000000000E+00 -0.45593999997E+02  0.45594000000E+02  0.51100000000E-03 0. -1.
    9900012    2    1    2    0    0 -0.25530718334E+02 -0.16514435590E+02  0.96007519693E+01  0.59301974850E+02  0.50000056212E+02 0.  0.
         12    1    1    2    0    0  0.25530718334E+02  0.16514435590E+02 -0.96007519693E+01  0.31886025150E+02  0.00000000000E+00 0. -1.
         11    1    3    3    0    0 -0.96034865848E+01  0.14513357191E+02 -0.71083738918E+00  0.17417513646E+02  0.51100000000E-03 0.  1.
        -11    1    3    3    0    0 -0.41277282569E+01 -0.19286005771E+02 -0.37714117953E+01  0.20080132130E+02  0.51100000000E-03 0. -1.
        -12    1    3    3    0    0 -0.11799503493E+02 -0.11741787010E+02  0.14083001154E+02  0.21804329074E+02  0.00000000000E+00 0.  1.
</event>
<event>
 7    1  0.7457761E-012  0.5930193E+02  0.7816164E-02  0.1266605E+00
        -11   -1    0    0    0    0  0.00000000000E+00  0.00000000000E+00  0.45593999997E+02  0.45594000000E+02  0.51100000000E-03 0.  1.
         11   -1    0    0    0    0 -0.00000000000E+00 -0.00000000000E+00 -0.45593999997E+02  0.45594000000E+02  0.51100000000E-03 0. -1.
    9900012    2    1    2    0    0 -0.17200981835E+02  0.15091546957E+02  0.22205692858E+02  0.59301931554E+02  0.49999977251E+02 0.  0.
         12    1    1    2    0    0  0.17200981835E+02 -0.15091546957E+02 -0.22205692858E+02  0.31886068446E+02  0.00000000000E+00 0. -1.
         11    1    3    3    0    0  0.11259416358E+02  0.81931874494E+00  0.34337654336E+00  0.11294407804E+02  0.51100000000E-03 0. -1.
        -11    1    3    3    0    0 -0.10969867179E+02  0.18392522116E+02  0.24501982721E+01  0.21555192589E+02  0.51100000000E-03 0.  1.
        -12    1    3    3    0    0 -0.17490531014E+02 -0.41202939040E+01  0.19412118042E+02  0.26452331162E+02  0.00000000000E+00 0.  1.
</event>
<event>
 7    1  0.7457761E-012  0.5930196E+02  0.7816164E-02  0.1266605E+00
        -11   -1    0    0    0    0  0.00000000000E+00  0.00000000000E+00  0.45593999997E+02  0.45594000000E+02  0.51100000000E-03 0.  1.
         11   -1    0    0    0    0 -0.00000000000E+00 -0.00000000000E+00 -0.45593999997E+02  0.45594000000E+02  0.51100000000E-03 0. -1.
    9900012    2    1    2    0    0  0.30186207917E+02 -0.97667782113E+01  0.31815992255E+01  0.59301957933E+02  0.50000025360E+02 0.  0.
         12    1    1    2    0    0 -0.30186207917E+02  0.97667782113E+01 -0.31815992255E+01  0.31886042067E+02  0.00000000000E+00 0. -1.
         11    1    3    3    0    0  0.94098407895E+00 -0.46280652093E+01  0.11376138686E+02  0.12317506659E+02  0.51100000000E-03 0. -1.
        -11    1    3    3    0    0  0.36178596120E+02  0.12398571901E+01 -0.96195371238E+01  0.37456155139E+02  0.51100000000E-03 0.  1.
        -12    1    3    3    0    0 -0.69333722819E+01 -0.63785701922E+01  0.14249976629E+01  0.95282961349E+01  0.00000000000E+00 0.  1.
</event>
<event>
 7    1  0.7457761E-012  0.5930192E+02  0.7816164E-02  0.1266605E+00
        -11   -1    0    0    0    0  0.00000000000E+00  0.00000000000E+00  0.45593999997E+02  0.45594000000E+02  0.51100000000E-03 0. -1.
         11   -1    0    0    0    0 -0.00000000000E+00 -0.00000000000E+00 -0.45593999997E+02  0.45594000000E+02  0.51100000000E-03 0.  1.
    9900012    2    1    2    0    0 -0.40416730351E+01  0.21774738205E+02 -0.22940084073E+02  0.59301924637E+02  0.49999964635E+02 0.  0.
         12    1    1    2    0    0  0.40416730351E+01 -0.21774738205E+02  0.22940084073E+02  0.31886075363E+02  0.00000000000E+00 0. -1.
         11    1    3    3    0    0 -0.10395704690E+02  0.78093303174E+01  0.73829764456E+01  0.14952078701E+02  0.51100000000E-03 0. -1.
        -11    1    3    3    0    0  0.36343248468E+01 -0.82209271525E+01 -0.14136570583E+02  0.16752151756E+02  0.51100000000E-03 0.  1.
         12    1    3    3    0    0  0.27197068083E+01  0.22186335040E+02 -0.16186489935E+02  0.27597694180E+02  0.00000000000E+00 0. -1.
</event>
<event>
 7    1  0.7457761E-012  0.5930157E+02  0.7816164E-02  0.1266606E+00
        -11   -1    0    0    0    0  0.00000000000E+00  0.00000000000E+00  0.45593999997E+02  0.45594000000E+02  0.51100000000E-03 0.  1.
         11   -1    0    0    0    0 -0.00000000000E+00 -0.00000000000E+00 -0.45593999997E+02  0.45594000000E+02  0.51100000000E-03 0. -1.
    9900012    2    1    2    0    0  0.16144851303E+02  0.22630676821E+02  0.15618601158E+02  0.59301569358E+02  0.49999316687E+02 0.  0.
         12    1    1    2    0    0 -0.16144851303E+02 -0.22630676821E+02 -0.15618601158E+02  0.31886430642E+02  0.00000000000E+00 0. -1.
         11    1    3    3    0    0 -0.46984853078E+01  0.85718327374E+00 -0.98722803863E+01  0.10966879576E+02  0.51100000000E-03 0. -1.
        -11    1    3    3    0    0  0.52705537233E+01  0.19486869961E+01  0.22212922487E+02  0.22912661199E+02  0.51100000000E-03 0.  1.
        -12    1    3    3    0    0  0.15572782888E+02  0.19824806551E+02  0.32779590580E+01  0.25422028582E+02  0.00000000000E+00 0.  1.
</event>
<event>
 7    1  0.7457761E-012  0.5930195E+02  0.7816164E-02  0.1266605E+00
        -11   -1    0    0    0    0  0.00000000000E+00  0.00000000000E+00  0.45593999997E+02  0.45594000000E+02  0.51100000000E-03 0.  1.
         11   -1    0    0    0    0 -0.00000000000E+00 -0.00000000000E+00 -0.45593999997E+02  0.45594000000E+02  0.51100000000E-03 0. -1.
    9900012    2    1    2    0    0 -0.25141813074E+02  0.41590252577E+01  0.19165388432E+02  0.59301947101E+02  0.50000005604E+02 0.  0.
         12    1    1    2    0    0  0.25141813074E+02 -0.41590252577E+01 -0.19165388432E+02  0.31886052899E+02  0.00000000000E+00 0. -1.
         11    1    3    3    0    0 -0.65507487664E+00  0.81294587560E+01 -0.11097789122E+02  0.13772368947E+02  0.51100000000E-03 0. -1.
        -11    1    3    3    0    0 -0.19887226117E+02 -0.78884317788E+00  0.62313156130E+01  0.20855534774E+02  0.51100000000E-03 0.  1.
         12    1    3    3    0    0 -0.45995120813E+01 -0.31815903205E+01  0.24031861941E+02  0.24674043380E+02  0.00000000000E+00 0. -1.
</event>
<event>
 7    1  0.7457761E-012  0.5930197E+02  0.7816164E-02  0.1266605E+00
        -11   -1    0    0    0    0  0.00000000000E+00  0.00000000000E+00  0.45593999997E+02  0.45594000000E+02  0.51100000000E-03 0.  1.
         11   -1    0    0    0    0 -0.00000000000E+00 -0.00000000000E+00 -0.45593999997E+02  0.45594000000E+02  0.51100000000E-03 0. -1.
    9900012    2    1    2    0    0 -0.19089016536E+02  0.18966139374E+02  0.17105961785E+02  0.59301969773E+02  0.50000046953E+02 0.  0.
         12    1    1    2    0    0  0.19089016536E+02 -0.18966139374E+02 -0.17105961785E+02  0.31886030227E+02  0.00000000000E+00 0. -1.
         11    1    3    3    0    0  0.27678893148E+01  0.23231463643E+02 -0.21917642353E+00  0.23396797918E+02  0.51100000000E-03 0. -1.
        -11    1    3    3    0    0 -0.24034332433E+02 -0.88433936670E+01  0.17170868652E+02  0.30833317654E+02  0.51100000000E-03 0.  1.
        -12    1    3    3    0    0  0.21774265824E+01  0.45780693987E+01  0.15426955647E+00  0.50718542011E+01  0.00000000000E+00 0.  1.
</event>
<event>
 7    1  0.7457761E-012  0.5930193E+02  0.7816164E-02  0.1266605E+00
        -11   -1    0    0    0    0  0.00000000000E+00  0.00000000000E+00  0.45593999997E+02  0.45594000000E+02  0.51100000000E-03 0.  1.
         11   -1    0    0    0    0 -0.00000000000E+00 -0.00000000000E+00 -0.45593999997E+02  0.45594000000E+02  0.51100000000E-03 0. -1.
    9900012    2    1    2    0    0  0.25969252344E+02  0.18277132817E+02 -0.28749853278E+01  0.59301934204E+02  0.49999982084E+02 0.  0.
         12    1    1    2    0    0 -0.25969252344E+02 -0.18277132817E+02  0.28749853278E+01  0.31886065796E+02  0.00000000000E+00 0. -1.
         11    1    3    3    0    0 -0.47282964360E+01  0.70325207923E+00  0.13498201174E+02  0.14319664307E+02  0.51100000000E-03 0. -1.
        -11    1    3    3    0    0  0.17960635937E+02 -0.22369922636E+01 -0.95360128131E+01  0.20457862016E+02  0.51100000000E-03 0.  1.
         12    1    3    3    0    0  0.12736912843E+02  0.19810873001E+02 -0.68371736889E+01  0.24524407881E+02  0.00000000000E+00 0. -1.
</event>
<event>
 7    1  0.7457761E-012  0.5930195E+02  0.7816164E-02  0.1266605E+00
        -11   -1    0    0    0    0  0.00000000000E+00  0.00000000000E+00  0.45593999997E+02  0.45594000000E+02  0.51100000000E-03 0.  1.
         11   -1    0    0    0    0 -0.00000000000E+00 -0.00000000000E+00 -0.45593999997E+02  0.45594000000E+02  0.51100000000E-03 0. -1.
    9900012    2    1    2    0    0  0.28289909574E+02  0.83316488396E+01 -0.12123723199E+02  0.59301952577E+02  0.50000015591E+02 0.  0.
         12    1    1    2    0    0 -0.28289909574E+02 -0.83316488396E+01  0.12123723199E+02  0.31886047423E+02  0.00000000000E+00 0. -1.
         11    1    3    3    0    0 -0.56395880316E+01 -0.45421558090E+01 -0.16288365772E+02  0.17825459106E+02  0.51100000000E-03 0. -1.
        -11    1    3    3    0    0  0.35023656565E+02  0.75922250806E+01  0.42021862127E+01  0.36082638070E+02  0.51100000000E-03 0.  1.
         12    1    3    3    0    0 -0.10941589595E+01  0.52815795681E+01 -0.37543639819E-01  0.53938554011E+01  0.00000000000E+00 0. -1.
</event>
<event>
 7    1  0.7457761E-012  0.5930194E+02  0.7816164E-02  0.1266605E+00
        -11   -1    0    0    0    0  0.00000000000E+00  0.00000000000E+00  0.45593999997E+02  0.45594000000E+02  0.51100000000E-03 0.  1.
         11   -1    0    0    0    0 -0.00000000000E+00 -0.00000000000E+00 -0.45593999997E+02  0.45594000000E+02  0.51100000000E-03 0. -1.
    9900012    2    1    2    0    0  0.96231066486E+01  0.15442391425E+02  0.26184900498E+02  0.59301942725E+02  0.49999997624E+02 0.  0.
         12    1    1    2    0    0 -0.96231066486E+01 -0.15442391425E+02 -0.26184900498E+02  0.31886057275E+02  0.00000000000E+00 0. -1.
         11    1    3    3    0    0  0.77426135599E+01 -0.92223421281E+00 -0.64899180805E+01  0.10144832065E+02  0.51100000000E-03 0. -1.
        -11    1    3    3    0    0 -0.13088336413E+02  0.11854662872E+02  0.27514828906E+02  0.32694088026E+02  0.51100000000E-03 0.  1.
        -12    1    3    3    0    0  0.14968829502E+02  0.45099627650E+01  0.51599896726E+01  0.16463022633E+02  0.00000000000E+00 0.  1.
</event>
<event>
 7    1  0.7457761E-012  0.5930195E+02  0.7816164E-02  0.1266605E+00
        -11   -1    0    0    0    0  0.00000000000E+00  0.00000000000E+00  0.45593999997E+02  0.45594000000E+02  0.51100000000E-03 0. -1.
         11   -1    0    0    0    0 -0.00000000000E+00 -0.00000000000E+00 -0.45593999997E+02  0.45594000000E+02  0.51100000000E-03 0.  1.
    9900012    2    1    2    0    0 -0.30750361900E+02  0.48056900838E+01  0.69311556306E+01  0.59301947680E+02  0.50000006661E+02 0.  0.
         12    1    1    2    0    0  0.30750361900E+02 -0.48056900838E+01 -0.69311556306E+01  0.31886052320E+02  0.00000000000E+00 0. -1.
         11    1    3    3    0    0  0.38960927770E+01  0.73603882155E+01 -0.10684561985E+02  0.13546760450E+02  0.51100000000E-03 0. -1.
        -11    1    3    3    0    0 -0.32615615119E+02  0.23282561870E+01  0.63493467295E+01  0.33309358004E+02  0.51100000000E-03 0.  1.
        -12    1    3    3    0    0 -0.20308395582E+01 -0.48829543188E+01  0.11266370886E+02  0.12445829226E+02  0.00000000000E+00 0.  1.
</event>
<event>
 7    1  0.7457761E-012  0.5930194E+02  0.7816164E-02  0.1266605E+00
        -11   -1    0    0    0    0  0.00000000000E+00  0.00000000000E+00  0.45593999997E+02  0.45594000000E+02  0.51100000000E-03 0.  1.
         11   -1    0    0    0    0 -0.00000000000E+00 -0.00000000000E+00 -0.45593999997E+02  0.45594000000E+02  0.51100000000E-03 0. -1.
    9900012    2    1    2    0    0  0.28306340257E+02  0.10350108856E+02  0.10408979761E+02  0.59301944870E+02  0.50000001536E+02 0.  0.
         12    1    1    2    0    0 -0.28306340257E+02 -0.10350108856E+02 -0.10408979761E+02  0.31886055130E+02  0.00000000000E+00 0. -1.
         11    1    3    3    0    0  0.11980003461E+02 -0.21672861707E-01 -0.14320812225E+02  0.18671010034E+02  0.51100000000E-03 0. -1.
        -11    1    3    3    0    0  0.23384857683E+02  0.75122880062E+01  0.19912484371E+02  0.31619504646E+02  0.51100000000E-03 0.  1.
         12    1    3    3    0    0 -0.70585208871E+01  0.28594937118E+01  0.48173076151E+01  0.90114301895E+01  0.00000000000E+00 0. -1.
</event>
<event>
 7    1  0.7457761E-012  0.5930197E+02  0.7816164E-02  0.1266605E+00
        -11   -1    0    0    0    0  0.00000000000E+00  0.00000000000E+00  0.45593999997E+02  0.45594000000E+02  0.51100000000E-03 0.  1.
         11   -1    0    0    0    0 -0.00000000000E+00 -0.00000000000E+00 -0.45593999997E+02  0.45594000000E+02  0.51100000000E-03 0. -1.
    9900012    2    1    2    0    0  0.10909501053E+02 -0.28774087941E+02  0.83518577680E+01  0.59301970485E+02  0.50000048252E+02 0.  0.
         12    1    1    2    0    0 -0.10909501053E+02  0.28774087941E+02 -0.83518577680E+01  0.31886029515E+02  0.00000000000E+00 0. -1.
         11    1    3    3    0    0  0.24601080895E+02 -0.16430731745E+02  0.18599760819E+02  0.34944716763E+02  0.51100000000E-03 0.  1.
        -11    1    3    3    0    0 -0.90203842232E+00 -0.85294209176E+01 -0.25397464538E+01  0.89451107772E+01  0.51100000000E-03 0. -1.
         12    1    3    3    0    0 -0.12789541419E+02 -0.38139352776E+01 -0.77081565975E+01  0.15412142945E+02  0.00000000000E+00 0. -1.
</event>
<event>
 7    1  0.7457761E-012  0.5930194E+02  0.7816164E-02  0.1266605E+00
        -11   -1    0    0    0    0  0.00000000000E+00  0.00000000000E+00  0.45593999997E+02  0.45594000000E+02  0.51100000000E-03 0. -1.
         11   -1    0    0    0    0 -0.00000000000E+00 -0.00000000000E+00 -0.45593999997E+02  0.45594000000E+02  0.51100000000E-03 0.  1.
    9900012    2    1    2    0    0 -0.49681577185E+01  0.11369042118E+01 -0.31476112033E+02  0.59301940804E+02  0.49999994122E+02 0.  0.
         12    1    1    2    0    0  0.49681577185E+01 -0.11369042118E+01  0.31476112033E+02  0.31886059196E+02  0.00000000000E+00 0. -1.
         11    1    3    3    0    0 -0.15391884472E+02 -0.94785141177E+01 -0.23470892377E+01  0.18228032412E+02  0.51100000000E-03 0. -1.
        -11    1    3    3    0    0  0.84261001266E+01  0.15041448774E+02 -0.31315977071E+02  0.35748213448E+02  0.51100000000E-03 0.  1.
        -12    1    3    3    0    0  0.19976266266E+01 -0.44260304443E+01  0.21869542758E+01  0.53256949441E+01  0.00000000000E+00 0.  1.
</event>
<event>
 7    1  0.7457761E-012  0.5930195E+02  0.7816164E-02  0.1266605E+00
        -11   -1    0    0    0    0  0.00000000000E+00  0.00000000000E+00  0.45593999997E+02  0.45594000000E+02  0.51100000000E-03 0.  1.
         11   -1    0    0    0    0 -0.00000000000E+00 -0.00000000000E+00 -0.45593999997E+02  0.45594000000E+02  0.51100000000E-03 0. -1.
    9900012    2    1    2    0    0 -0.25301204765E+02 -0.10142020023E+02  0.16544143431E+02  0.59301949530E+02  0.50000010035E+02 0.  0.
         12    1    1    2    0    0  0.25301204765E+02  0.10142020023E+02 -0.16544143431E+02  0.31886050470E+02  0.00000000000E+00 0. -1.
         11    1    3    3    0    0 -0.33576937546E+02  0.17678123030E+01  0.31281957086E+01  0.33768646759E+02  0.51100000000E-03 0. -1.
        -11    1    3    3    0    0  0.91515896184E+01 -0.28051291886E+01  0.13299435025E+02  0.16385826636E+02  0.51100000000E-03 0.  1.
         12    1    3    3    0    0 -0.87585683751E+00 -0.91047031378E+01  0.11651269700E+00  0.91474761348E+01  0.00000000000E+00 0. -1.
</event>
<event>
 7    1  0.7457761E-012  0.5930193E+02  0.7816164E-02  0.1266605E+00
        -11   -1    0    0    0    0  0.00000000000E+00  0.00000000000E+00  0.45593999997E+02  0.45594000000E+02  0.51100000000E-03 0.  1.
         11   -1    0    0    0    0 -0.00000000000E+00 -0.00000000000E+00 -0.45593999997E+02  0.45594000000E+02  0.51100000000E-03 0. -1.
    9900012    2    1    2    0    0 -0.26813996515E+02 -0.81285240261E+01  0.15220317062E+02  0.59301931515E+02  0.49999977181E+02 0.  0.
         12    1    1    2    0    0  0.26813996515E+02  0.81285240261E+01 -0.15220317062E+02  0.31886068485E+02  0.00000000000E+00 0. -1.
         11    1    3    3    0    0  0.11947614916E+02 -0.90509337792E+00  0.22788015088E+01  0.12196623827E+02  0.51100000000E-03 0. -1.
        -11    1    3    3    0    0 -0.41136422874E+02 -0.41194342811E+01  0.11241213474E+02  0.42843201402E+02  0.51100000000E-03 0.  1.
        -12    1    3    3    0    0  0.23748114443E+01 -0.31039963671E+01  0.17003020791E+01  0.42621062872E+01  0.00000000000E+00 0.  1.
</event>
<event>
 7    1  0.7457761E-012  0.5930198E+02  0.7816164E-02  0.1266605E+00
        -11   -1    0    0    0    0  0.00000000000E+00  0.00000000000E+00  0.45593999997E+02  0.45594000000E+02  0.51100000000E-03 0. -1.
         11   -1    0    0    0    0 -0.00000000000E+00 -0.00000000000E+00 -0.45593999997E+02  0.45594000000E+02  0.51100000000E-03 0.  1.
    9900012    2    1    2    0    0 -0.49029137566E+01 -0.22588070971E+02 -0.21964941470E+02  0.59301981633E+02  0.50000068583E+02 0.  0.
         12    1    1    2    0    0  0.49029137566E+01  0.22588070971E+02  0.21964941470E+02  0.31886018367E+02  0.00000000000E+00 0. -1.
         11    1    3    3    0    0 -0.11175988779E+02  0.31737496386E+01 -0.75112148977E+01  0.13834513416E+02  0.51100000000E-03 0. -1.
        -11    1    3    3    0    0 -0.20122344752E+01 -0.23933777537E+02 -0.23121064394E+02  0.33338542466E+02  0.51100000000E-03 0.  1.
         12    1    3    3    0    0  0.82853094980E+01 -0.18280430728E+01  0.86673378217E+01  0.12128925751E+02  0.00000000000E+00 0. -1.
</event>
<event>
 7    1  0.7457761E-012  0.5930197E+02  0.7816164E-02  0.1266605E+00
        -11   -1    0    0    0    0  0.00000000000E+00  0.00000000000E+00  0.45593999997E+02  0.45594000000E+02  0.51100000000E-03 0. -1.
         11   -1    0    0    0    0 -0.00000000000E+00 -0.00000000000E+00 -0.45593999997E+02  0.45594000000E+02  0.51100000000E-03 0.  1.
    9900012    2    1    2    0    0  0.84515688521E+01  0.20519736996E+02 -0.22896070857E+02  0.59301973544E+02  0.50000053831E+02 0.  0.
         12    1    1    2    0    0 -0.84515688521E+01 -0.20519736996E+02  0.22896070857E+02  0.31886026456E+02  0.00000000000E+00 0. -1.
         11    1    3    3    0    0  0.77419915499E+01 -0.10013463347E+02  0.54647755026E+01  0.13786647632E+02  0.51100000000E-03 0. -1.
        -11    1    3    3    0    0  0.92295999104E+01  0.14923035428E+02 -0.11295544536E+02  0.20867961748E+02  0.51100000000E-03 0.  1.
         12    1    3    3    0    0 -0.85200226083E+01  0.15610164915E+02 -0.17065301824E+02  0.24647364165E+02  0.00000000000E+00 0. -1.
</event>
<event>
 7    1  0.7457761E-012  0.5930190E+02  0.7816164E-02  0.1266605E+00
        -11   -1    0    0    0    0  0.00000000000E+00  0.00000000000E+00  0.45593999997E+02  0.45594000000E+02  0.51100000000E-03 0. -1.
         11   -1    0    0    0    0 -0.00000000000E+00 -0.00000000000E+00 -0.45593999997E+02  0.45594000000E+02  0.51100000000E-03 0.  1.
    9900012    2    1    2    0    0  0.10116916627E+02  0.99205682676E+01  0.28564908503E+02  0.59301895275E+02  0.49999911086E+02 0.  0.
         12    1    1    2    0    0 -0.10116916627E+02 -0.99205682676E+01 -0.28564908503E+02  0.31886104725E+02  0.00000000000E+00 0. -1.
         11    1    3    3    0    0  0.72323439525E+01 -0.50927287000E+00 -0.90932020864E+01  0.11629810074E+02  0.51100000000E-03 0. -1.
        -11    1    3    3    0    0 -0.53938116902E+01 -0.63693767566E-01  0.33120656416E+02  0.33557043123E+02  0.51100000000E-03 0.  1.
        -12    1    3    3    0    0  0.82783843646E+01  0.10493534905E+02  0.45374541727E+01  0.14115042078E+02  0.00000000000E+00 0.  1.
</event>
<event>
 7    1  0.7457761E-012  0.5930196E+02  0.7816164E-02  0.1266605E+00
        -11   -1    0    0    0    0  0.00000000000E+00  0.00000000000E+00  0.45593999997E+02  0.45594000000E+02  0.51100000000E-03 0.  1.
         11   -1    0    0    0    0 -0.00000000000E+00 -0.00000000000E+00 -0.45593999997E+02  0.45594000000E+02  0.51100000000E-03 0. -1.
    9900012    2    1    2    0    0 -0.13671404913E+02  0.18642210373E+02  0.21960882986E+02  0.59301957577E+02  0.50000024710E+02 0.  0.
         12    1    1    2    0    0  0.13671404913E+02 -0.18642210373E+02 -0.21960882986E+02  0.31886042423E+02  0.00000000000E+00 0. -1.
         11    1    3    3    0    0 -0.79081286425E+01  0.18413193349E+02  0.22313363969E+02  0.29991172031E+02  0.51100000000E-03 0.  1.
        -11    1    3    3    0    0 -0.14942529824E+02  0.16456040423E+00 -0.83657226264E+01  0.17125758172E+02  0.51100000000E-03 0. -1.
         12    1    3    3    0    0  0.91792535532E+01  0.64456619730E-01  0.80132416438E+01  0.12185027373E+02  0.00000000000E+00 0. -1.
</event>
<event>
 7    1  0.7457761E-012  0.5930194E+02  0.7816164E-02  0.1266605E+00
        -11   -1    0    0    0    0  0.00000000000E+00  0.00000000000E+00  0.45593999997E+02  0.45594000000E+02  0.51100000000E-03 0. -1.
         11   -1    0    0    0    0 -0.00000000000E+00 -0.00000000000E+00 -0.45593999997E+02  0.45594000000E+02  0.51100000000E-03 0.  1.
    9900012    2    1    2    0    0  0.27804538482E+02 -0.14096880990E+02 -0.67012326007E+01  0.59301938277E+02  0.49999989513E+02 0.  0.
         12    1    1    2    0    0 -0.27804538482E+02  0.14096880990E+02  0.67012326007E+01  0.31886061723E+02  0.00000000000E+00 0. -1.
         11    1    3    3    0    0  0.21935109508E+02 -0.21006361172E+02 -0.49731880633E+01  0.30775783314E+02  0.51100000000E-03 0. -1.
        -11    1    3    3    0    0  0.10031701881E+02  0.65840197969E+01 -0.12285497166E+02  0.17173170941E+02  0.51100000000E-03 0.  1.
         12    1    3    3    0    0 -0.41622729067E+01  0.32546038537E+00  0.10557452628E+02  0.11352984022E+02  0.00000000000E+00 0. -1.
</event>
<event>
 7    1  0.7457761E-012  0.5930190E+02  0.7816164E-02  0.1266605E+00
        -11   -1    0    0    0    0  0.00000000000E+00  0.00000000000E+00  0.45593999997E+02  0.45594000000E+02  0.51100000000E-03 0.  1.
         11   -1    0    0    0    0 -0.00000000000E+00 -0.00000000000E+00 -0.45593999997E+02  0.45594000000E+02  0.51100000000E-03 0. -1.
    9900012    2    1    2    0    0  0.93009842505E+01  0.15628950061E+02  0.26190670605E+02  0.59301896212E+02  0.49999912795E+02 0.  0.
         12    1    1    2    0    0 -0.93009842505E+01 -0.15628950061E+02 -0.26190670605E+02  0.31886103788E+02  0.00000000000E+00 0. -1.
         11    1    3    3    0    0  0.24499305221E+02  0.37408526807E+01  0.49130371928E+01  0.25265547091E+02  0.51100000000E-03 0. -1.
        -11    1    3    3    0    0 -0.11629570918E+02  0.15892706129E+02  0.11291430637E+02  0.22700692367E+02  0.51100000000E-03 0.  1.
         12    1    3    3    0    0 -0.35687500528E+01 -0.40046087487E+01  0.99862027756E+01  0.11335656754E+02  0.00000000000E+00 0. -1.
</event>
<event>
 7    1  0.7457761E-012  0.5930184E+02  0.7816164E-02  0.1266605E+00
        -11   -1    0    0    0    0  0.00000000000E+00  0.00000000000E+00  0.45593999997E+02  0.45594000000E+02  0.51100000000E-03 0.  1.
         11   -1    0    0    0    0 -0.00000000000E+00 -0.00000000000E+00 -0.45593999997E+02  0.45594000000E+02  0.51100000000E-03 0. -1.
    9900012    2    1    2    0    0 -0.25479081961E+02 -0.19156817092E+02 -0.74824895438E+00  0.59301841010E+02  0.49999812120E+02 0.  0.
         12    1    1    2    0    0  0.25479081961E+02  0.19156817092E+02  0.74824895438E+00  0.31886158990E+02  0.00000000000E+00 0. -1.
         11    1    3    3    0    0 -0.34377426705E+01 -0.83550151751E+01  0.20008510588E+02  0.21953697853E+02  0.51100000000E-03 0.  1.
        -11    1    3    3    0    0 -0.20230582314E+02 -0.38910190033E+01 -0.68441477961E+01  0.21708497160E+02  0.51100000000E-03 0. -1.
        -12    1    3    3    0    0 -0.18107569766E+01 -0.69107829131E+01 -0.13912611746E+02  0.15639645996E+02  0.00000000000E+00 0.  1.
</event>
<event>
 7    1  0.7457761E-012  0.5930195E+02  0.7816164E-02  0.1266605E+00
        -11   -1    0    0    0    0  0.00000000000E+00  0.00000000000E+00  0.45593999997E+02  0.45594000000E+02  0.51100000000E-03 0.  1.
         11   -1    0    0    0    0 -0.00000000000E+00 -0.00000000000E+00 -0.45593999997E+02  0.45594000000E+02  0.51100000000E-03 0. -1.
    9900012    2    1    2    0    0 -0.98258119598E+00  0.30758662208E+02 -0.83462322844E+01  0.59301947250E+02  0.50000005876E+02 0.  0.
         12    1    1    2    0    0  0.98258119598E+00 -0.30758662208E+02  0.83462322844E+01  0.31886052750E+02  0.00000000000E+00 0. -1.
         11    1    3    3    0    0 -0.14084511115E+02 -0.30470818032E+01 -0.16089018812E+02  0.21598951073E+02  0.51100000000E-03 0. -1.
        -11    1    3    3    0    0  0.88781157126E+01  0.18091996326E+02  0.72714704274E+01  0.21424648238E+02  0.51100000000E-03 0.  1.
         12    1    3    3    0    0  0.42238142060E+01  0.15713747685E+02  0.47131610015E+00  0.16278347939E+02  0.00000000000E+00 0. -1.
</event>
<event>
 7    1  0.7457761E-012  0.5930197E+02  0.7816164E-02  0.1266605E+00
        -11   -1    0    0    0    0  0.00000000000E+00  0.00000000000E+00  0.45593999997E+02  0.45594000000E+02  0.51100000000E-03 0.  1.
         11   -1    0    0    0    0 -0.00000000000E+00 -0.00000000000E+00 -0.45593999997E+02  0.45594000000E+02  0.51100000000E-03 0. -1.
    9900012    2    1    2    0    0 -0.28600729830E+02 -0.14096374211E+02  0.96763304849E-01  0.59301970522E+02  0.50000048320E+02 0.  0.
         12    1    1    2    0    0  0.28600729830E+02  0.14096374211E+02 -0.96763304849E-01  0.31886029478E+02  0.00000000000E+00 0. -1.
         11    1    3    3    0    0  0.25620740244E+01 -0.19769655624E+02 -0.69471964206E+01  0.21110827676E+02  0.51100000000E-03 0. -1.
        -11    1    3    3    0    0 -0.14544861305E+02  0.11175285850E+02 -0.20645051214E+01  0.18458119782E+02  0.51100000000E-03 0.  1.
        -12    1    3    3    0    0 -0.16617942549E+02 -0.55020044378E+01  0.91084648468E+01  0.19733023065E+02  0.00000000000E+00 0.  1.
</event>
<event>
 7    1  0.7457761E-012  0.5930192E+02  0.7816164E-02  0.1266605E+00
        -11   -1    0    0    0    0  0.00000000000E+00  0.00000000000E+00  0.45593999997E+02  0.45594000000E+02  0.51100000000E-03 0.  1.
         11   -1    0    0    0    0 -0.00000000000E+00 -0.00000000000E+00 -0.45593999997E+02  0.45594000000E+02  0.51100000000E-03 0. -1.
    9900012    2    1    2    0    0  0.14950154355E+02  0.25708335013E+02  0.11502012416E+02  0.59301923195E+02  0.49999962007E+02 0.  0.
         12    1    1    2    0    0 -0.14950154355E+02 -0.25708335013E+02 -0.11502012416E+02  0.31886076805E+02  0.00000000000E+00 0. -1.
         11    1    3    3    0    0  0.40988845198E+01 -0.56224326071E+01  0.20146541650E+02  0.21314214587E+02  0.51100000000E-03 0. -1.
        -11    1    3    3    0    0  0.11031647574E+02  0.25454622275E+02 -0.25508285041E+00  0.27743469698E+02  0.51100000000E-03 0.  1.
         12    1    3    3    0    0 -0.18037773839E+00  0.58761453444E+01 -0.83894463833E+01  0.10244238911E+02  0.00000000000E+00 0. -1.
</event>
<event>
 7    1  0.7457761E-012  0.5930195E+02  0.7816164E-02  0.1266605E+00
        -11   -1    0    0    0    0  0.00000000000E+00  0.00000000000E+00  0.45593999997E+02  0.45594000000E+02  0.51100000000E-03 0.  1.
         11   -1    0    0    0    0 -0.00000000000E+00 -0.00000000000E+00 -0.45593999997E+02  0.45594000000E+02  0.51100000000E-03 0. -1.
    9900012    2    1    2    0    0 -0.25089625373E+02 -0.10505358448E+02  0.16639368492E+02  0.59301945975E+02  0.50000003552E+02 0.  0.
         12    1    1    2    0    0  0.25089625373E+02  0.10505358448E+02 -0.16639368492E+02  0.31886054025E+02  0.00000000000E+00 0. -1.
         11    1    3    3    0    0  0.12869693109E+02  0.83326298472E+00  0.68318469475E+01  0.14594432531E+02  0.51100000000E-03 0. -1.
        -11    1    3    3    0    0 -0.24803564457E+02  0.12627112499E+01  0.91847840260E+01  0.26479643263E+02  0.51100000000E-03 0.  1.
        -12    1    3    3    0    0 -0.13155754025E+02 -0.12601332682E+02  0.62273751817E+00  0.18227870182E+02  0.00000000000E+00 0.  1.
</event>
<event>
 7    1  0.7457761E-012  0.5930192E+02  0.7816164E-02  0.1266605E+00
        -11   -1    0    0    0    0  0.00000000000E+00  0.00000000000E+00  0.45593999997E+02  0.45594000000E+02  0.51100000000E-03 0. -1.
         11   -1    0    0    0    0 -0.00000000000E+00 -0.00000000000E+00 -0.45593999997E+02  0.45594000000E+02  0.51100000000E-03 0.  1.
    9900012    2    1    2    0    0  0.41551003367E+01  0.25946533208E+02 -0.18061960769E+02  0.59301923554E+02  0.49999962660E+02 0.  0.
         12    1    1    2    0    0 -0.41551003367E+01 -0.25946533208E+02  0.18061960769E+02  0.31886076446E+02  0.00000000000E+00 0. -1.
         11    1    3    3    0    0  0.35708252528E+00  0.16330777675E+02 -0.65351478947E+01  0.17593463720E+02  0.51100000000E-03 0. -1.
        -11    1    3    3    0    0 -0.10654183177E+02 -0.24078358818E+01 -0.18642754477E+02  0.21606980066E+02  0.51100000000E-03 0.  1.
        -12    1    3    3    0    0  0.14452200989E+02  0.12023591415E+02  0.71159416033E+01  0.20101479767E+02  0.00000000000E+00 0.  1.
</event>
<event>
 7    1  0.7457761E-012  0.5930195E+02  0.7816164E-02  0.1266605E+00
        -11   -1    0    0    0    0  0.00000000000E+00  0.00000000000E+00  0.45593999997E+02  0.45594000000E+02  0.51100000000E-03 0.  1.
         11   -1    0    0    0    0 -0.00000000000E+00 -0.00000000000E+00 -0.45593999997E+02  0.45594000000E+02  0.51100000000E-03 0. -1.
    9900012    2    1    2    0    0  0.22452861244E+02 -0.40100679140E+01  0.22282472268E+02  0.59301949867E+02  0.50000010649E+02 0.  0.
         12    1    1    2    0    0 -0.22452861244E+02  0.40100679140E+01 -0.22282472268E+02  0.31886050133E+02  0.00000000000E+00 0. -1.
         11    1    3    3    0    0  0.91938086213E+01 -0.20871637939E+02 -0.53777765814E+01  0.23432282613E+02  0.51100000000E-03 0. -1.
        -11    1    3    3    0    0  0.10999572431E+02  0.92412410836E+01  0.21289539342E+02  0.25683372366E+02  0.51100000000E-03 0.  1.
         12    1    3    3    0    0  0.22594801922E+01  0.76203289417E+01  0.63707095072E+01  0.10186294888E+02  0.00000000000E+00 0. -1.
</event>
<event>
 7    1  0.7457761E-012  0.5930194E+02  0.7816164E-02  0.1266605E+00
        -11   -1    0    0    0    0  0.00000000000E+00  0.00000000000E+00  0.45593999997E+02  0.45594000000E+02  0.51100000000E-03 0. -1.
         11   -1    0    0    0    0 -0.00000000000E+00 -0.00000000000E+00 -0.45593999997E+02  0.45594000000E+02  0.51100000000E-03 0.  1.
    9900012    2    1    2    0    0 -0.25592402980E+02  0.16415694513E+02 -0.96059781117E+01  0.59301938279E+02  0.49999989515E+02 0.  0.
         12    1    1    2    0    0  0.25592402980E+02 -0.16415694513E+02  0.96059781117E+01  0.31886061721E+02  0.00000000000E+00 0. -1.
         11    1    3    3    0    0 -0.20356491931E+02  0.20071166418E+01 -0.16120909562E+02  0.26044174134E+02  0.51100000000E-03 0.  1.
        -11    1    3    3    0    0  0.81856227486E+01  0.30508538680E+01  0.11997182951E+02  0.14840637726E+02  0.51100000000E-03 0. -1.
         12    1    3    3    0    0 -0.13421533797E+02  0.11357724003E+02 -0.54822515003E+01  0.18417126418E+02  0.00000000000E+00 0. -1.
</event>
<event>
 7    1  0.7457761E-012  0.5930194E+02  0.7816164E-02  0.1266605E+00
        -11   -1    0    0    0    0  0.00000000000E+00  0.00000000000E+00  0.45593999997E+02  0.45594000000E+02  0.51100000000E-03 0. -1.
         11   -1    0    0    0    0 -0.00000000000E+00 -0.00000000000E+00 -0.45593999997E+02  0.45594000000E+02  0.51100000000E-03 0.  1.
    9900012    2    1    2    0    0 -0.16464001253E+02 -0.20048627152E+02 -0.18539419087E+02  0.59301939597E+02  0.49999991920E+02 0.  0.
         12    1    1    2    0    0  0.16464001253E+02  0.20048627152E+02  0.18539419087E+02  0.31886060403E+02  0.00000000000E+00 0. -1.
         11    1    3    3    0    0 -0.39877116320E+01  0.55349002511E+01 -0.46908988836E+01  0.82789792515E+01  0.51100000000E-03 0. -1.
        -11    1    3    3    0    0 -0.76256539853E-01 -0.32641293969E+02 -0.16398415530E+02  0.36529001070E+02  0.51100000000E-03 0.  1.
        -12    1    3    3    0    0 -0.12400033081E+02  0.70577665661E+01  0.25498953269E+01  0.14493959276E+02  0.00000000000E+00 0.  1.
</event>
<event>
 7    1  0.7457761E-012  0.5930196E+02  0.7816164E-02  0.1266605E+00
        -11   -1    0    0    0    0  0.00000000000E+00  0.00000000000E+00  0.45593999997E+02  0.45594000000E+02  0.51100000000E-03 0. -1.
         11   -1    0    0    0    0 -0.00000000000E+00 -0.00000000000E+00 -0.45593999997E+02  0.45594000000E+02  0.51100000000E-03 0.  1.
    9900012    2    1    2    0    0  0.22711582993E+02  0.59775855805E+01 -0.21567847026E+02  0.59301959845E+02  0.50000028847E+02 0.  0.
         12    1    1    2    0    0 -0.22711582993E+02 -0.59775855805E+01  0.21567847026E+02  0.31886040155E+02  0.00000000000E+00 0. -1.
         11    1    3    3    0    0  0.67307841993E+01 -0.96784770788E+00 -0.42733688351E+00  0.68134280796E+01  0.51100000000E-03 0. -1.
        -11    1    3    3    0    0 -0.77815174298E+01  0.16739430565E+02 -0.19322101899E+02  0.26722727616E+02  0.51100000000E-03 0.  1.
        -12    1    3    3    0    0  0.23762316223E+02 -0.97939972771E+01 -0.18184082437E+01  0.25765804150E+02  0.00000000000E+00 0.  1.
</event>
<event>
 7    1  0.7457761E-012  0.5930170E+02  0.7816164E-02  0.1266606E+00
        -11   -1    0    0    0    0  0.00000000000E+00  0.00000000000E+00  0.45593999997E+02  0.45594000000E+02  0.51100000000E-03 0. -1.
         11   -1    0    0    0    0 -0.00000000000E+00 -0.00000000000E+00 -0.45593999997E+02  0.45594000000E+02  0.51100000000E-03 0.  1.
    9900012    2    1    2    0    0  0.22246377319E+02 -0.42619508169E+01 -0.22442606316E+02  0.59301700327E+02  0.49999555546E+02 0.  0.
         12    1    1    2    0    0 -0.22246377319E+02  0.42619508169E+01  0.22442606316E+02  0.31886299673E+02  0.00000000000E+00 0. -1.
         11    1    3    3    0    0  0.47137351063E+01  0.87419740841E+01  0.13595690715E+02  0.16836989512E+02  0.51100000000E-03 0. -1.
        -11    1    3    3    0    0  0.88904059047E+01 -0.98128762099E+01 -0.20725902147E+02  0.24594610726E+02  0.51100000000E-03 0.  1.
         12    1    3    3    0    0  0.86422363075E+01 -0.31910486911E+01 -0.15312394884E+02  0.17870100090E+02  0.00000000000E+00 0. -1.
</event>
<event>
 7    1  0.7457761E-012  0.5930194E+02  0.7816164E-02  0.1266605E+00
        -11   -1    0    0    0    0  0.00000000000E+00  0.00000000000E+00  0.45593999997E+02  0.45594000000E+02  0.51100000000E-03 0.  1.
         11   -1    0    0    0    0 -0.00000000000E+00 -0.00000000000E+00 -0.45593999997E+02  0.45594000000E+02  0.51100000000E-03 0. -1.
    9900012    2    1    2    0    0 -0.29871580072E+02 -0.33904616347E+01  0.10626107910E+02  0.59301941990E+02  0.49999996284E+02 0.  0.
         12    1    1    2    0    0  0.29871580072E+02  0.33904616347E+01 -0.10626107910E+02  0.31886058010E+02  0.00000000000E+00 0. -1.
         11    1    3    3    0    0 -0.30669994547E+02  0.12834493538E+02  0.19018073393E+02  0.38302218027E+02  0.51100000000E-03 0. -1.
        -11    1    3    3    0    0  0.31877837279E+01 -0.12562739127E+01  0.44269315704E+00  0.34548757911E+01  0.51100000000E-03 0.  1.
         12    1    3    3    0    0 -0.23893692526E+01 -0.14968681260E+02 -0.88346586400E+01  0.17544848172E+02  0.00000000000E+00 0. -1.
</event>
<event>
 7    1  0.7457761E-012  0.5930194E+02  0.7816164E-02  0.1266605E+00
        -11   -1    0    0    0    0  0.00000000000E+00  0.00000000000E+00  0.45593999997E+02  0.45594000000E+02  0.51100000000E-03 0.  1.
         11   -1    0    0    0    0 -0.00000000000E+00 -0.00000000000E+00 -0.45593999997E+02  0.45594000000E+02  0.51100000000E-03 0. -1.
    9900012    2    1    2    0    0 -0.56524464119E+01  0.30560646801E+02  0.71286517168E+01  0.59301937863E+02  0.49999988757E+02 0.  0.
         12    1    1    2    0    0  0.56524464119E+01 -0.30560646801E+02 -0.71286517168E+01  0.31886062137E+02  0.00000000000E+00 0. -1.
         11    1    3    3    0    0  0.14541665727E+02  0.38337555572E+01 -0.40834968325E+01  0.15583089245E+02  0.51100000000E-03 0. -1.
        -11    1    3    3    0    0 -0.22827774892E+02  0.27542232992E+02  0.39974193121E+01  0.35995295055E+02  0.51100000000E-03 0.  1.
        -12    1    3    3    0    0  0.26336627528E+01 -0.81534174886E+00  0.72147292372E+01  0.77235535622E+01  0.00000000000E+00 0.  1.
</event>
<event>
 7    1  0.7457761E-012  0.5930197E+02  0.7816164E-02  0.1266605E+00
        -11   -1    0    0    0    0  0.00000000000E+00  0.00000000000E+00  0.45593999997E+02  0.45594000000E+02  0.51100000000E-03 0. -1.
         11   -1    0    0    0    0 -0.00000000000E+00 -0.00000000000E+00 -0.45593999997E+02  0.45594000000E+02  0.51100000000E-03 0.  1.
    9900012    2    1    2    0    0  0.20849080022E+02  0.91263897603E+01 -0.22332578372E+02  0.59301965682E+02  0.50000039492E+02 0.  0.
         12    1    1    2    0    0 -0.20849080022E+02 -0.91263897603E+01  0.22332578372E+02  0.31886034318E+02  0.00000000000E+00 0. -1.
         11    1    3    3    0    0  0.18955467337E+02  0.17846136792E+02 -0.12848932213E+02  0.29032557580E+02  0.51100000000E-03 0. -1.
        -11    1    3    3    0    0  0.11700546848E+02 -0.12775190798E+02 -0.23501240731E+01  0.17482316205E+02  0.51100000000E-03 0.  1.
         12    1    3    3    0    0 -0.98069341635E+01  0.40554437668E+01 -0.71335220851E+01  0.12787091897E+02  0.00000000000E+00 0. -1.
</event>
<event>
 7    1  0.7457761E-012  0.5930197E+02  0.7816164E-02  0.1266605E+00
        -11   -1    0    0    0    0  0.00000000000E+00  0.00000000000E+00  0.45593999997E+02  0.45594000000E+02  0.51100000000E-03 0.  1.
         11   -1    0    0    0    0 -0.00000000000E+00 -0.00000000000E+00 -0.45593999997E+02  0.45594000000E+02  0.51100000000E-03 0. -1.
    9900012    2    1    2    0    0 -0.46081914877E+01 -0.27671767807E+01  0.31429705078E+02  0.59301967675E+02  0.50000043128E+02 0.  0.
         12    1    1    2    0    0  0.46081914877E+01  0.27671767807E+01 -0.31429705078E+02  0.31886032325E+02  0.00000000000E+00 0. -1.
         11    1    3    3    0    0 -0.33240602740E+01 -0.93020965267E+01 -0.79304681502E+01  0.12667703100E+02  0.51100000000E-03 0. -1.
        -11    1    3    3    0    0  0.61174716070E+01  0.13503572983E+02  0.24260529623E+02  0.28431377737E+02  0.51100000000E-03 0.  1.
         12    1    3    3    0    0 -0.74016028207E+01 -0.69686532367E+01  0.15099643605E+02  0.18202886838E+02  0.00000000000E+00 0. -1.
</event>
<event>
 7    1  0.7457761E-012  0.5930190E+02  0.7816164E-02  0.1266605E+00
        -11   -1    0    0    0    0  0.00000000000E+00  0.00000000000E+00  0.45593999997E+02  0.45594000000E+02  0.51100000000E-03 0.  1.
         11   -1    0    0    0    0 -0.00000000000E+00 -0.00000000000E+00 -0.45593999997E+02  0.45594000000E+02  0.51100000000E-03 0. -1.
    9900012    2    1    2    0    0 -0.24093579090E+02 -0.75060921726E+01  0.19490547734E+02  0.59301899203E+02  0.49999918251E+02 0.  0.
         12    1    1    2    0    0  0.24093579090E+02  0.75060921726E+01 -0.19490547734E+02  0.31886100797E+02  0.00000000000E+00 0. -1.
         11    1    3    3    0    0  0.58102974157E+01 -0.73775099662E-01  0.49869942623E+01  0.76573566495E+01  0.51100000000E-03 0. -1.
        -11    1    3    3    0    0 -0.99110022848E+01  0.13682166110E+02 -0.37581262074E+01  0.17307603780E+02  0.51100000000E-03 0.  1.
        -12    1    3    3    0    0 -0.19992874221E+02 -0.21114483183E+02  0.18261679679E+02  0.34336938774E+02  0.00000000000E+00 0.  1.
</event>
<event>
 7    1  0.7457761E-012  0.5930194E+02  0.7816164E-02  0.1266605E+00
        -11   -1    0    0    0    0  0.00000000000E+00  0.00000000000E+00  0.45593999997E+02  0.45594000000E+02  0.51100000000E-03 0. -1.
         11   -1    0    0    0    0 -0.00000000000E+00 -0.00000000000E+00 -0.45593999997E+02  0.45594000000E+02  0.51100000000E-03 0.  1.
    9900012    2    1    2    0    0 -0.25218624783E+02 -0.19500216173E+02 -0.69529837236E+00  0.59301938679E+02  0.49999990245E+02 0.  0.
         12    1    1    2    0    0  0.25218624783E+02  0.19500216173E+02  0.69529837236E+00  0.31886061321E+02  0.00000000000E+00 0. -1.
         11    1    3    3    0    0 -0.35799162827E+02 -0.58246914173E+01  0.10168370985E+02  0.37668326986E+02  0.51100000000E-03 0. -1.
        -11    1    3    3    0    0  0.37908883924E+00 -0.27348729251E+01 -0.47076446685E+01  0.54575779289E+01  0.51100000000E-03 0.  1.
         12    1    3    3    0    0  0.10201449204E+02 -0.10940651831E+02 -0.61560246889E+01  0.16176033764E+02  0.00000000000E+00 0. -1.
</event>
<event>
 7    1  0.7457761E-012  0.5930193E+02  0.7816164E-02  0.1266605E+00
        -11   -1    0    0    0    0  0.00000000000E+00  0.00000000000E+00  0.45593999997E+02  0.45594000000E+02  0.51100000000E-03 0.  1.
         11   -1    0    0    0    0 -0.00000000000E+00 -0.00000000000E+00 -0.45593999997E+02  0.45594000000E+02  0.51100000000E-03 0. -1.
    9900012    2    1    2    0    0 -0.97108747822E+01 -0.38445809400E+01  0.30127057710E+02  0.59301929406E+02  0.49999973334E+02 0.  0.
         12    1    1    2    0    0  0.97108747822E+01  0.38445809400E+01 -0.30127057710E+02  0.31886070594E+02  0.00000000000E+00 0. -1.
         11    1    3    3    0    0  0.37827090591E+01 -0.10583922975E+02  0.68692438536E+01  0.13172502600E+02  0.51100000000E-03 0. -1.
        -11    1    3    3    0    0 -0.14007365712E+01  0.98978754548E+01  0.30214522880E+02  0.31825263465E+02  0.51100000000E-03 0.  1.
        -12    1    3    3    0    0 -0.12092847270E+02 -0.31585334201E+01 -0.69567090236E+01  0.14304163342E+02  0.00000000000E+00 0.  1.
</event>
<event>
 7    1  0.7457761E-012  0.5930182E+02  0.7816164E-02  0.1266605E+00
        -11   -1    0    0    0    0  0.00000000000E+00  0.00000000000E+00  0.45593999997E+02  0.45594000000E+02  0.51100000000E-03 0.  1.
         11   -1    0    0    0    0 -0.00000000000E+00 -0.00000000000E+00 -0.45593999997E+02  0.45594000000E+02  0.51100000000E-03 0. -1.
    9900012    2    1    2    0    0  0.27566015963E+02 -0.27247023047E+00  0.16024005972E+02  0.59301823631E+02  0.49999780424E+02 0.  0.
         12    1    1    2    0    0 -0.27566015963E+02  0.27247023047E+00 -0.16024005972E+02  0.31886176369E+02  0.00000000000E+00 0. -1.
         11    1    3    3    0    0  0.58868691536E+01  0.23375041503E+02  0.77876040625E+01  0.25331691041E+02  0.51100000000E-03 0. -1.
        -11    1    3    3    0    0  0.78078961213E+00 -0.17508791091E+01  0.25198269393E+01  0.31661866872E+01  0.51100000000E-03 0.  1.
         12    1    3    3    0    0  0.20898357197E+02 -0.21896632624E+02  0.57165749697E+01  0.30803945903E+02  0.00000000000E+00 0. -1.
</event>
<event>
 7    1  0.7457761E-012  0.5930193E+02  0.7816164E-02  0.1266605E+00
        -11   -1    0    0    0    0  0.00000000000E+00  0.00000000000E+00  0.45593999997E+02  0.45594000000E+02  0.51100000000E-03 0. -1.
         11   -1    0    0    0    0 -0.00000000000E+00 -0.00000000000E+00 -0.45593999997E+02  0.45594000000E+02  0.51100000000E-03 0.  1.
    9900012    2    1    2    0    0 -0.26323626781E+02 -0.10598534584E+02  0.14541634033E+02  0.59301931215E+02  0.49999976632E+02 0.  0.
         12    1    1    2    0    0  0.26323626781E+02  0.10598534584E+02 -0.14541634033E+02  0.31886068785E+02  0.00000000000E+00 0. -1.
         11    1    3    3    0    0 -0.14490567235E+02 -0.24546085270E+02  0.23409363726E+02  0.36884754997E+02  0.51100000000E-03 0. -1.
        -11    1    3    3    0    0 -0.70447497310E+01  0.75816036095E+01 -0.99760900645E+01  0.14374685572E+02  0.51100000000E-03 0.  1.
         12    1    3    3    0    0 -0.47883098150E+01  0.63659470767E+01  0.11083603711E+01  0.80424906453E+01  0.00000000000E+00 0. -1.
</event>
<event>
 7    1  0.7457761E-012  0.5930194E+02  0.7816164E-02  0.1266605E+00
        -11   -1    0    0    0    0  0.00000000000E+00  0.00000000000E+00  0.45593999997E+02  0.45594000000E+02  0.51100000000E-03 0. -1.
         11   -1    0    0    0    0 -0.00000000000E+00 -0.00000000000E+00 -0.45593999997E+02  0.45594000000E+02  0.51100000000E-03 0.  1.
    9900012    2    1    2    0    0  0.12239420845E+02  0.10525086751E+02 -0.27497995375E+02  0.59301943119E+02  0.49999998344E+02 0.  0.
         12    1    1    2    0    0 -0.12239420845E+02 -0.10525086751E+02  0.27497995375E+02  0.31886056881E+02  0.00000000000E+00 0. -1.
         11    1    3    3    0    0  0.60095844657E+01 -0.67949758025E+01  0.51268554172E+01  0.10419762393E+02  0.51100000000E-03 0. -1.
        -11    1    3    3    0    0  0.17464620880E+02  0.17603084185E+02 -0.19116117363E+02  0.31309862641E+02  0.51100000000E-03 0.  1.
        -12    1    3    3    0    0 -0.11234784500E+02 -0.28302163167E+00 -0.13508733430E+02  0.17572318085E+02  0.00000000000E+00 0.  1.
</event>
<event>
 7    1  0.7457761E-012  0.5930192E+02  0.7816164E-02  0.1266605E+00
        -11   -1    0    0    0    0  0.00000000000E+00  0.00000000000E+00  0.45593999997E+02  0.45594000000E+02  0.51100000000E-03 0.  1.
         11   -1    0    0    0    0 -0.00000000000E+00 -0.00000000000E+00 -0.45593999997E+02  0.45594000000E+02  0.51100000000E-03 0. -1.
    9900012    2    1    2    0    0  0.42860465472E+01  0.17729776279E+02  0.26153524847E+02  0.59301921159E+02  0.49999958294E+02 0.  0.
         12    1    1    2    0    0 -0.42860465472E+01 -0.17729776279E+02 -0.26153524847E+02  0.31886078841E+02  0.00000000000E+00 0. -1.
         11    1    3    3    0    0 -0.37751680950E+00 -0.13986705769E+01  0.27400061390E+00  0.14744066338E+01  0.51100000000E-03 0. -1.
        -11    1    3    3    0    0  0.74630416963E+01  0.34529184683E+02  0.13304131333E+02  0.37748662188E+02  0.51100000000E-03 0.  1.
        -12    1    3    3    0    0 -0.27994783396E+01 -0.15400737827E+02  0.12575392900E+02  0.20078852337E+02  0.00000000000E+00 0.  1.
</event>
<event>
 7    1  0.7457761E-012  0.5930194E+02  0.7816164E-02  0.1266605E+00
        -11   -1    0    0    0    0  0.00000000000E+00  0.00000000000E+00  0.45593999997E+02  0.45594000000E+02  0.51100000000E-03 0. -1.
         11   -1    0    0    0    0 -0.00000000000E+00 -0.00000000000E+00 -0.45593999997E+02  0.45594000000E+02  0.51100000000E-03 0.  1.
    9900012    2    1    2    0    0  0.42530696504E+01  0.13884694090E+02 -0.28387456905E+02  0.59301936571E+02  0.49999986401E+02 0.  0.
         12    1    1    2    0    0 -0.42530696504E+01 -0.13884694090E+02  0.28387456905E+02  0.31886063429E+02  0.00000000000E+00 0. -1.
         11    1    3    3    0    0  0.12731174593E+02  0.23863528823E+02 -0.18388006964E+02  0.32705803992E+02  0.51100000000E-03 0. -1.
        -11    1    3    3    0    0 -0.11351290069E+02  0.12616403959E+01 -0.97095676056E+01  0.14990637947E+02  0.51100000000E-03 0.  1.
         12    1    3    3    0    0  0.28731851263E+01 -0.11240475129E+02 -0.28988233541E+00  0.11605494632E+02  0.00000000000E+00 0. -1.
</event>
<event>
 7    1  0.7457761E-012  0.5930197E+02  0.7816164E-02  0.1266605E+00
        -11   -1    0    0    0    0  0.00000000000E+00  0.00000000000E+00  0.45593999997E+02  0.45594000000E+02  0.51100000000E-03 0. -1.
         11   -1    0    0    0    0 -0.00000000000E+00 -0.00000000000E+00 -0.45593999997E+02  0.45594000000E+02  0.51100000000E-03 0.  1.
    9900012    2    1    2    0    0  0.13113143083E+02  0.28765214110E+02  0.41625452352E+01  0.59301970972E+02  0.50000049140E+02 0.  0.
         12    1    1    2    0    0 -0.13113143083E+02 -0.28765214110E+02 -0.41625452352E+01  0.31886029028E+02  0.00000000000E+00 0. -1.
         11    1    3    3    0    0  0.11342093862E+02  0.11160538585E+02  0.17241185039E+02  0.23461866432E+02  0.51100000000E-03 0. -1.
        -11    1    3    3    0    0 -0.72818178377E+01  0.22092560966E+02 -0.89096149893E+01  0.24909583710E+02  0.51100000000E-03 0.  1.
        -12    1    3    3    0    0  0.90528670587E+01 -0.44878854406E+01 -0.41690248145E+01  0.10930520830E+02  0.00000000000E+00 0.  1.
</event>
<event>
 7    1  0.7457761E-012  0.5930193E+02  0.7816164E-02  0.1266605E+00
        -11   -1    0    0    0    0  0.00000000000E+00  0.00000000000E+00  0.45593999997E+02  0.45594000000E+02  0.51100000000E-03 0.  1.
         11   -1    0    0    0    0 -0.00000000000E+00 -0.00000000000E+00 -0.45593999997E+02  0.45594000000E+02  0.51100000000E-03 0. -1.
    9900012    2    1    2    0    0 -0.13802647424E+02  0.48318525384E+01  0.28334816949E+02  0.59301925823E+02  0.49999966799E+02 0.  0.
         12    1    1    2    0    0  0.13802647424E+02 -0.48318525384E+01 -0.28334816949E+02  0.31886074177E+02  0.00000000000E+00 0. -1.
         11    1    3    3    0    0 -0.56990827832E+01  0.20075046386E+02  0.54715022385E+01  0.21573696229E+02  0.51100000000E-03 0. -1.
        -11    1    3    3    0    0  0.56045108588E+01 -0.87656201774E+01  0.13254030766E+00  0.10405008710E+02  0.51100000000E-03 0.  1.
         12    1    3    3    0    0 -0.13708075499E+02 -0.64775736699E+01  0.22730774403E+02  0.27323220885E+02  0.00000000000E+00 0. -1.
</event>
<event>
 7    1  0.7457761E-012  0.5930193E+02  0.7816164E-02  0.1266605E+00
        -11   -1    0    0    0    0  0.00000000000E+00  0.00000000000E+00  0.45593999997E+02  0.45594000000E+02  0.51100000000E-03 0.  1.
         11   -1    0    0    0    0 -0.00000000000E+00 -0.00000000000E+00 -0.45593999997E+02  0.45594000000E+02  0.51100000000E-03 0. -1.
    9900012    2    1    2    0    0 -0.18487412011E+02  0.11824591673E+02  0.23132570464E+02  0.59301934276E+02  0.49999982215E+02 0.  0.
         12    1    1    2    0    0  0.18487412011E+02 -0.11824591673E+02 -0.23132570464E+02  0.31886065724E+02  0.00000000000E+00 0. -1.
         11    1    3    3    0    0 -0.94998981612E+01  0.88163306188E+01 -0.12144879504E+02  0.17761583518E+02  0.51100000000E-03 0. -1.
        -11    1    3    3    0    0 -0.96303908294E+01  0.10530889572E+02  0.25024705749E+02  0.28807637196E+02  0.51100000000E-03 0.  1.
         12    1    3    3    0    0  0.64287697975E+00 -0.75226285178E+01  0.10252744219E+02  0.12732713562E+02  0.00000000000E+00 0. -1.
</event>
<event>
 7    1  0.7457761E-012  0.5930192E+02  0.7816164E-02  0.1266605E+00
        -11   -1    0    0    0    0  0.00000000000E+00  0.00000000000E+00  0.45593999997E+02  0.45594000000E+02  0.51100000000E-03 0.  1.
         11   -1    0    0    0    0 -0.00000000000E+00 -0.00000000000E+00 -0.45593999997E+02  0.45594000000E+02  0.51100000000E-03 0. -1.
    9900012    2    1    2    0    0 -0.86768614455E+01  0.16662648504E+02  0.25764123325E+02  0.59301924192E+02  0.49999963825E+02 0.  0.
         12    1    1    2    0    0  0.86768614455E+01 -0.16662648504E+02 -0.25764123325E+02  0.31886075808E+02  0.00000000000E+00 0. -1.
         11    1    3    3    0    0 -0.23583813271E+02  0.75944701421E+01  0.18647309161E+02  0.31009585040E+02  0.51100000000E-03 0. -1.
        -11    1    3    3    0    0  0.18435979443E+02  0.36880792327E+01  0.14033977478E+00  0.18801780819E+02  0.51100000000E-03 0.  1.
        -12    1    3    3    0    0 -0.35290276178E+01  0.53800991293E+01  0.69764743890E+01  0.94905583328E+01  0.00000000000E+00 0.  1.
</event>
<event>
 7    1  0.7457761E-012  0.5930192E+02  0.7816164E-02  0.1266605E+00
        -11   -1    0    0    0    0  0.00000000000E+00  0.00000000000E+00  0.45593999997E+02  0.45594000000E+02  0.51100000000E-03 0.  1.
         11   -1    0    0    0    0 -0.00000000000E+00 -0.00000000000E+00 -0.45593999997E+02  0.45594000000E+02  0.51100000000E-03 0. -1.
    9900012    2    1    2    0    0 -0.66501527793E+01  0.28382272859E+01  0.31055464565E+02  0.59301922388E+02  0.49999960535E+02 0.  0.
         12    1    1    2    0    0  0.66501527793E+01 -0.28382272859E+01 -0.31055464565E+02  0.31886077612E+02  0.00000000000E+00 0. -1.
         11    1    3    3    0    0 -0.52214966771E+01 -0.16302698203E+02  0.21799913083E+02  0.27717831931E+02  0.51100000000E-03 0. -1.
        -11    1    3    3    0    0 -0.84623350990E+01  0.12384726626E+02  0.14195050897E+02  0.20651683688E+02  0.51100000000E-03 0.  1.
         12    1    3    3    0    0  0.70336789967E+01  0.67561988635E+01 -0.49394994146E+01  0.10932406770E+02  0.00000000000E+00 0. -1.
</event>
<event>
 7    1  0.7457761E-012  0.5930194E+02  0.7816164E-02  0.1266605E+00
        -11   -1    0    0    0    0  0.00000000000E+00  0.00000000000E+00  0.45593999997E+02  0.45594000000E+02  0.51100000000E-03 0. -1.
         11   -1    0    0    0    0 -0.00000000000E+00 -0.00000000000E+00 -0.45593999997E+02  0.45594000000E+02  0.51100000000E-03 0.  1.
    9900012    2    1    2    0    0  0.23979343623E+02  0.11058524652E+02 -0.17872355961E+02  0.59301937281E+02  0.49999987696E+02 0.  0.
         12    1    1    2    0    0 -0.23979343623E+02 -0.11058524652E+02  0.17872355961E+02  0.31886062719E+02  0.00000000000E+00 0. -1.
         11    1    3    3    0    0 -0.57041188816E+01  0.52512862824E+01  0.13334031980E+02  0.15424311620E+02  0.51100000000E-03 0. -1.
        -11    1    3    3    0    0  0.16926877700E+02  0.31607421293E+01 -0.21938761858E+02  0.27889402138E+02  0.51100000000E-03 0.  1.
         12    1    3    3    0    0  0.12756584805E+02  0.26464962407E+01 -0.92676260828E+01  0.15988223524E+02  0.00000000000E+00 0. -1.
</event>
<event>
 7    1  0.7457761E-012  0.5930198E+02  0.7816164E-02  0.1266605E+00
        -11   -1    0    0    0    0  0.00000000000E+00  0.00000000000E+00  0.45593999997E+02  0.45594000000E+02  0.51100000000E-03 0.  1.
         11   -1    0    0    0    0 -0.00000000000E+00 -0.00000000000E+00 -0.45593999997E+02  0.45594000000E+02  0.51100000000E-03 0. -1.
    9900012    2    1    2    0    0  0.30681361467E+02  0.29420183059E+01 -0.81680513178E+01  0.59301976800E+02  0.50000059768E+02 0.  0.
         12    1    1    2    0    0 -0.30681361467E+02 -0.29420183059E+01  0.81680513178E+01  0.31886023200E+02  0.00000000000E+00 0. -1.
         11    1    3    3    0    0  0.31349124476E+02  0.97880430201E+01  0.41885616413E+01  0.33107664377E+02  0.51100000000E-03 0. -1.
        -11    1    3    3    0    0 -0.10185931564E+02 -0.11100409673E+01 -0.98367931293E+00  0.10293348241E+02  0.51100000000E-03 0.  1.
         12    1    3    3    0    0  0.95181685546E+01 -0.57359837469E+01 -0.11372933646E+02  0.15900964181E+02  0.00000000000E+00 0. -1.
</event>
<event>
 7    1  0.7457761E-012  0.5930194E+02  0.7816164E-02  0.1266605E+00
        -11   -1    0    0    0    0  0.00000000000E+00  0.00000000000E+00  0.45593999997E+02  0.45594000000E+02  0.51100000000E-03 0. -1.
         11   -1    0    0    0    0 -0.00000000000E+00 -0.00000000000E+00 -0.45593999997E+02  0.45594000000E+02  0.51100000000E-03 0.  1.
    9900012    2    1    2    0    0 -0.30620489053E+02 -0.85385276669E+01  0.24899585112E+01  0.59301941951E+02  0.49999996212E+02 0.  0.
         12    1    1    2    0    0  0.30620489053E+02  0.85385276669E+01 -0.24899585112E+01  0.31886058049E+02  0.00000000000E+00 0. -1.
         11    1    3    3    0    0  0.40705464761E+01 -0.22750391301E+01  0.81561711367E+01  0.93951199848E+01  0.51100000000E-03 0. -1.
        -11    1    3    3    0    0 -0.33702772258E+02 -0.92803911738E+01  0.80132323518E+01  0.35863831519E+02  0.51100000000E-03 0.  1.
        -12    1    3    3    0    0 -0.98826327072E+00  0.30169026371E+01 -0.13679444977E+02  0.14042990447E+02  0.00000000000E+00 0.  1.
</event>
<event>
 7    1  0.7457761E-012  0.5930193E+02  0.7816164E-02  0.1266605E+00
        -11   -1    0    0    0    0  0.00000000000E+00  0.00000000000E+00  0.45593999997E+02  0.45594000000E+02  0.51100000000E-03 0. -1.
         11   -1    0    0    0    0 -0.00000000000E+00 -0.00000000000E+00 -0.45593999997E+02  0.45594000000E+02  0.51100000000E-03 0.  1.
    9900012    2    1    2    0    0 -0.49075417914E+00  0.31263390232E+02  0.62514630898E+01  0.59301934090E+02  0.49999981876E+02 0.  0.
         12    1    1    2    0    0  0.49075417914E+00 -0.31263390232E+02 -0.62514630898E+01  0.31886065910E+02  0.00000000000E+00 0. -1.
         11    1    3    3    0    0 -0.15797670669E+02  0.33877305276E+02  0.11929618154E+02  0.39237150774E+02  0.51100000000E-03 0. -1.
        -11    1    3    3    0    0  0.60894990691E+01  0.38502664062E+01  0.50158157047E+00  0.72220588923E+01  0.51100000000E-03 0.  1.
         12    1    3    3    0    0  0.92174174212E+01 -0.64641814501E+01 -0.61797366350E+01  0.12842724423E+02  0.00000000000E+00 0. -1.
</event>
<event>
 7    1  0.7457761E-012  0.5930206E+02  0.7816164E-02  0.1266604E+00
        -11   -1    0    0    0    0  0.00000000000E+00  0.00000000000E+00  0.45593999997E+02  0.45594000000E+02  0.51100000000E-03 0.  1.
         11   -1    0    0    0    0 -0.00000000000E+00 -0.00000000000E+00 -0.45593999997E+02  0.45594000000E+02  0.51100000000E-03 0. -1.
    9900012    2    1    2    0    0 -0.89289666132E+01  0.44771166146E+01  0.30281053192E+02  0.59302059519E+02  0.50000210628E+02 0.  0.
         12    1    1    2    0    0  0.89289666132E+01 -0.44771166146E+01 -0.30281053192E+02  0.31885940481E+02  0.00000000000E+00 0. -1.
         11    1    3    3    0    0  0.12315096833E+02 -0.62963543925E+01  0.14066119221E+02  0.19727174122E+02  0.51100000000E-03 0. -1.
        -11    1    3    3    0    0 -0.71141303957E+01  0.17915162089E+02  0.42730911340E+01  0.19743940642E+02  0.51100000000E-03 0.  1.
        -12    1    3    3    0    0 -0.14129933051E+02 -0.71416910820E+01  0.11941842836E+02  0.19830944755E+02  0.00000000000E+00 0.  1.
</event>
<event>
 7    1  0.7457761E-012  0.5930191E+02  0.7816164E-02  0.1266605E+00
        -11   -1    0    0    0    0  0.00000000000E+00  0.00000000000E+00  0.45593999997E+02  0.45594000000E+02  0.51100000000E-03 0.  1.
         11   -1    0    0    0    0 -0.00000000000E+00 -0.00000000000E+00 -0.45593999997E+02  0.45594000000E+02  0.51100000000E-03 0. -1.
    9900012    2    1    2    0    0 -0.10475088999E+01  0.68617084559E+01  0.31121411307E+02  0.59301912758E+02  0.49999942972E+02 0.  0.
         12    1    1    2    0    0  0.10475088999E+01 -0.68617084559E+01 -0.31121411307E+02  0.31886087242E+02  0.00000000000E+00 0. -1.
         11    1    3    3    0    0  0.78255645049E+00  0.25675896259E+01 -0.11024839028E+02  0.11346893273E+02  0.51100000000E-03 0. -1.
        -11    1    3    3    0    0  0.43157994838E+01 -0.78000064574E+01  0.12508301181E+02  0.15359811998E+02  0.51100000000E-03 0.  1.
         12    1    3    3    0    0 -0.61458648341E+01  0.12094125287E+02  0.29637949155E+02  0.32595207487E+02  0.00000000000E+00 0. -1.
</event>
<event>
 7    1  0.7457761E-012  0.5930194E+02  0.7816164E-02  0.1266605E+00
        -11   -1    0    0    0    0  0.00000000000E+00  0.00000000000E+00  0.45593999997E+02  0.45594000000E+02  0.51100000000E-03 0. -1.
         11   -1    0    0    0    0 -0.00000000000E+00 -0.00000000000E+00 -0.45593999997E+02  0.45594000000E+02  0.51100000000E-03 0.  1.
    9900012    2    1    2    0    0  0.16511910242E+02 -0.91780387973E+01 -0.25687372025E+02  0.59301942584E+02  0.49999997366E+02 0.  0.
         12    1    1    2    0    0 -0.16511910242E+02  0.91780387973E+01  0.25687372025E+02  0.31886057416E+02  0.00000000000E+00 0. -1.
         11    1    3    3    0    0  0.16868517384E+02  0.25372839591E+01  0.30040143793E+00  0.17060918202E+02  0.51100000000E-03 0. -1.
        -11    1    3    3    0    0 -0.10901516668E+02  0.73344789838E+00 -0.23262046428E+02  0.25700268788E+02  0.51100000000E-03 0.  1.
         12    1    3    3    0    0  0.10544909526E+02 -0.12448770655E+02 -0.27257270354E+01  0.16540755594E+02  0.00000000000E+00 0. -1.
</event>
<event>
 7    1  0.7457761E-012  0.5930192E+02  0.7816164E-02  0.1266605E+00
        -11   -1    0    0    0    0  0.00000000000E+00  0.00000000000E+00  0.45593999997E+02  0.45594000000E+02  0.51100000000E-03 0.  1.
         11   -1    0    0    0    0 -0.00000000000E+00 -0.00000000000E+00 -0.45593999997E+02  0.45594000000E+02  0.51100000000E-03 0. -1.
    9900012    2    1    2    0    0 -0.27098424149E+02 -0.90355235217E+01 -0.14168865634E+02  0.59301921062E+02  0.49999958116E+02 0.  0.
         12    1    1    2    0    0  0.27098424149E+02  0.90355235217E+01  0.14168865634E+02  0.31886078938E+02  0.00000000000E+00 0. -1.
         11    1    3    3    0    0 -0.23996684673E+01 -0.24408923412E+02 -0.48728047066E+01  0.25005962826E+02  0.51100000000E-03 0. -1.
        -11    1    3    3    0    0 -0.15029385585E+02  0.15454787065E+02 -0.10426077307E+01  0.21582861382E+02  0.51100000000E-03 0.  1.
        -12    1    3    3    0    0 -0.96693700968E+01 -0.81387174918E-01 -0.82534531965E+01  0.12713096854E+02  0.00000000000E+00 0.  1.
</event>
<event>
 7    1  0.7457761E-012  0.5930193E+02  0.7816164E-02  0.1266605E+00
        -11   -1    0    0    0    0  0.00000000000E+00  0.00000000000E+00  0.45593999997E+02  0.45594000000E+02  0.51100000000E-03 0.  1.
         11   -1    0    0    0    0 -0.00000000000E+00 -0.00000000000E+00 -0.45593999997E+02  0.45594000000E+02  0.51100000000E-03 0. -1.
    9900012    2    1    2    0    0 -0.24917969062E+02 -0.13395794702E+02  0.14709474639E+02  0.59301934986E+02  0.49999983511E+02 0.  0.
         12    1    1    2    0    0  0.24917969062E+02  0.13395794702E+02 -0.14709474639E+02  0.31886065014E+02  0.00000000000E+00 0. -1.
         11    1    3    3    0    0 -0.26777726613E+02  0.12072591317E+02  0.64190266768E+01  0.30066559620E+02  0.51100000000E-03 0. -1.
        -11    1    3    3    0    0  0.67177901990E+01 -0.16284727312E+02  0.45604029261E+01  0.18196656942E+02  0.51100000000E-03 0.  1.
        -12    1    3    3    0    0 -0.48580326482E+01 -0.91836587072E+01  0.37300450363E+01  0.11038718424E+02  0.00000000000E+00 0.  1.
</event>
<event>
 7    1  0.7457761E-012  0.5930194E+02  0.7816164E-02  0.1266605E+00
        -11   -1    0    0    0    0  0.00000000000E+00  0.00000000000E+00  0.45593999997E+02  0.45594000000E+02  0.51100000000E-03 0.  1.
         11   -1    0    0    0    0 -0.00000000000E+00 -0.00000000000E+00 -0.45593999997E+02  0.45594000000E+02  0.51100000000E-03 0. -1.
    9900012    2    1    2    0    0 -0.23173830865E+02 -0.17016172759E+02  0.13789277378E+02  0.59301941245E+02  0.49999994925E+02 0.  0.
         12    1    1    2    0    0  0.23173830865E+02  0.17016172759E+02 -0.13789277378E+02  0.31886058755E+02  0.00000000000E+00 0. -1.
         11    1    3    3    0    0 -0.22387024206E+02  0.35506103598E+01 -0.19730145633E+01  0.22752548725E+02  0.51100000000E-03 0. -1.
        -11    1    3    3    0    0  0.10694198577E+02 -0.15710556448E+02  0.14722350077E+02  0.24040279930E+02  0.51100000000E-03 0.  1.
        -12    1    3    3    0    0 -0.11481005235E+02 -0.48562266713E+01  0.10399418643E+01  0.12509112590E+02  0.00000000000E+00 0.  1.
</event>
<event>
 7    1  0.7457761E-012  0.5930190E+02  0.7816164E-02  0.1266605E+00
        -11   -1    0    0    0    0  0.00000000000E+00  0.00000000000E+00  0.45593999997E+02  0.45594000000E+02  0.51100000000E-03 0.  1.
         11   -1    0    0    0    0 -0.00000000000E+00 -0.00000000000E+00 -0.45593999997E+02  0.45594000000E+02  0.51100000000E-03 0. -1.
    9900012    2    1    2    0    0  0.12816560496E+02 -0.29104133840E+02  0.23255760731E+01  0.59301903757E+02  0.49999926556E+02 0.  0.
         12    1    1    2    0    0 -0.12816560496E+02  0.29104133840E+02 -0.23255760731E+01  0.31886096243E+02  0.00000000000E+00 0. -1.
         11    1    3    3    0    0  0.29609593497E+00 -0.83164647345E+01 -0.98073613436E+01  0.12862176926E+02  0.51100000000E-03 0. -1.
        -11    1    3    3    0    0  0.16798369173E+02 -0.30089418637E+02  0.78626791392E+01  0.35346570474E+02  0.51100000000E-03 0.  1.
        -12    1    3    3    0    0 -0.42779046120E+01  0.93017495310E+01  0.42702582775E+01  0.11093156357E+02  0.00000000000E+00 0.  1.
</event>
<event>
 7    1  0.7457761E-012  0.5930194E+02  0.7816164E-02  0.1266605E+00
        -11   -1    0    0    0    0  0.00000000000E+00  0.00000000000E+00  0.45593999997E+02  0.45594000000E+02  0.51100000000E-03 0.  1.
         11   -1    0    0    0    0 -0.00000000000E+00 -0.00000000000E+00 -0.45593999997E+02  0.45594000000E+02  0.51100000000E-03 0. -1.
    9900012    2    1    2    0    0 -0.15051011240E+02 -0.16589381935E+02  0.22693171559E+02  0.59301943992E+02  0.49999999936E+02 0.  0.
         12    1    1    2    0    0  0.15051011240E+02  0.16589381935E+02 -0.22693171559E+02  0.31886056008E+02  0.00000000000E+00 0. -1.
         11    1    3    3    0    0 -0.26321265063E+02 -0.65654909099E+01  0.44566457796E+00  0.27131407678E+02  0.51100000000E-03 0. -1.
        -11    1    3    3    0    0 -0.28185278118E+01 -0.85483746681E+01  0.98826066541E+01  0.13367300514E+02  0.51100000000E-03 0.  1.
         12    1    3    3    0    0  0.14088781635E+02 -0.14755163567E+01  0.12364900327E+02  0.18803235800E+02  0.00000000000E+00 0. -1.
</event>
<event>
 7    1  0.7457761E-012  0.5930197E+02  0.7816164E-02  0.1266605E+00
        -11   -1    0    0    0    0  0.00000000000E+00  0.00000000000E+00  0.45593999997E+02  0.45594000000E+02  0.51100000000E-03 0.  1.
         11   -1    0    0    0    0 -0.00000000000E+00 -0.00000000000E+00 -0.45593999997E+02  0.45594000000E+02  0.51100000000E-03 0. -1.
    9900012    2    1    2    0    0 -0.23836974321E+02 -0.22774775848E+01  0.21055416683E+02  0.59301971389E+02  0.50000049900E+02 0.  0.
         12    1    1    2    0    0  0.23836974321E+02  0.22774775848E+01 -0.21055416683E+02  0.31886028611E+02  0.00000000000E+00 0. -1.
         11    1    3    3    0    0 -0.26542260371E+00 -0.26442013889E+01 -0.26945243929E+01  0.37845359173E+01  0.51100000000E-03 0. -1.
        -11    1    3    3    0    0 -0.46609467241E+01  0.14743501538E+02  0.27421134409E+02  0.31480372845E+02  0.51100000000E-03 0.  1.
        -12    1    3    3    0    0 -0.18910604993E+02 -0.14376777733E+02 -0.36711933331E+01  0.24037062626E+02  0.00000000000E+00 0.  1.
</event>
<event>
 7    1  0.7457761E-012  0.5930189E+02  0.7816164E-02  0.1266605E+00
        -11   -1    0    0    0    0  0.00000000000E+00  0.00000000000E+00  0.45593999997E+02  0.45594000000E+02  0.51100000000E-03 0.  1.
         11   -1    0    0    0    0 -0.00000000000E+00 -0.00000000000E+00 -0.45593999997E+02  0.45594000000E+02  0.51100000000E-03 0. -1.
    9900012    2    1    2    0    0 -0.70442176282E+01  0.25497447075E+02  0.17804015067E+02  0.59301893906E+02  0.49999908589E+02 0.  0.
         12    1    1    2    0    0  0.70442176282E+01 -0.25497447075E+02 -0.17804015067E+02  0.31886106094E+02  0.00000000000E+00 0. -1.
         11    1    3    3    0    0 -0.86604809714E+01 -0.76126916704E+01 -0.94861700908E+01  0.14931323732E+02  0.51100000000E-03 0. -1.
        -11    1    3    3    0    0 -0.34465735610E+01  0.62488519290E+01  0.89803282063E+01  0.11470541168E+02  0.51100000000E-03 0.  1.
         12    1    3    3    0    0  0.50628369042E+01  0.26861286817E+02  0.18309856952E+02  0.32900029006E+02  0.00000000000E+00 0. -1.
</event>
<event>
 7    1  0.7457761E-012  0.5930190E+02  0.7816164E-02  0.1266605E+00
        -11   -1    0    0    0    0  0.00000000000E+00  0.00000000000E+00  0.45593999997E+02  0.45594000000E+02  0.51100000000E-03 0. -1.
         11   -1    0    0    0    0 -0.00000000000E+00 -0.00000000000E+00 -0.45593999997E+02  0.45594000000E+02  0.51100000000E-03 0.  1.
    9900012    2    1    2    0    0  0.55866864137E+01 -0.12310478781E+02 -0.28878441371E+02  0.59301900695E+02  0.49999920971E+02 0.  0.
         12    1    1    2    0    0 -0.55866864137E+01  0.12310478781E+02  0.28878441371E+02  0.31886099305E+02  0.00000000000E+00 0. -1.
         11    1    3    3    0    0  0.10126637503E+01  0.38630965306E+01 -0.59617357609E+01  0.71757436005E+01  0.51100000000E-03 0. -1.
        -11    1    3    3    0    0 -0.97209933978E+01 -0.25887636245E+02 -0.21028723334E+02  0.34740101156E+02  0.51100000000E-03 0.  1.
        -12    1    3    3    0    0  0.14295016061E+02  0.97140609341E+01 -0.18879822755E+01  0.17386055938E+02  0.00000000000E+00 0.  1.
</event>
<event>
 7    1  0.7457761E-012  0.5930227E+02  0.7816164E-02  0.1266604E+00
        -11   -1    0    0    0    0  0.00000000000E+00  0.00000000000E+00  0.45593999997E+02  0.45594000000E+02  0.51100000000E-03 0.  1.
         11   -1    0    0    0    0 -0.00000000000E+00 -0.00000000000E+00 -0.45593999997E+02  0.45594000000E+02  0.51100000000E-03 0. -1.
    9900012    2    1    2    0    0  0.24310118253E+02  0.12493553184E+02  0.16420379086E+02  0.59302273256E+02  0.50000600431E+02 0.  0.
         12    1    1    2    0    0 -0.24310118253E+02 -0.12493553184E+02 -0.16420379086E+02  0.31885726744E+02  0.00000000000E+00 0. -1.
         11    1    3    3    0    0 -0.13560613532E+02  0.29819532563E+01  0.12053733185E+02  0.18386809635E+02  0.51100000000E-03 0. -1.
        -11    1    3    3    0    0  0.30125626880E+01  0.44392136986E+01  0.15161852515E+01  0.55750309586E+01  0.51100000000E-03 0.  1.
         12    1    3    3    0    0  0.34858169097E+02  0.50723862289E+01  0.28504606496E+01  0.35340432663E+02  0.00000000000E+00 0. -1.
</event>
<event>
 7    1  0.7457761E-012  0.5930194E+02  0.7816164E-02  0.1266605E+00
        -11   -1    0    0    0    0  0.00000000000E+00  0.00000000000E+00  0.45593999997E+02  0.45594000000E+02  0.51100000000E-03 0. -1.
         11   -1    0    0    0    0 -0.00000000000E+00 -0.00000000000E+00 -0.45593999997E+02  0.45594000000E+02  0.51100000000E-03 0.  1.
    9900012    2    1    2    0    0  0.29217370285E+01  0.30273788468E+02 -0.95750852502E+01  0.59301936069E+02  0.49999985485E+02 0.  0.
         12    1    1    2    0    0 -0.29217370285E+01 -0.30273788468E+02  0.95750852502E+01  0.31886063931E+02  0.00000000000E+00 0. -1.
         11    1    3    3    0    0  0.67869104864E+01  0.22122153570E+02  0.12924499597E+02  0.26504613232E+02  0.51100000000E-03 0. -1.
        -11    1    3    3    0    0  0.70194310699E+01  0.46398989278E+01 -0.19091081596E+02  0.20863136661E+02  0.51100000000E-03 0.  1.
         12    1    3    3    0    0 -0.10884604528E+02  0.35117359704E+01 -0.34085032515E+01  0.11934186175E+02  0.00000000000E+00 0. -1.
</event>
<event>
 7    1  0.7457761E-012  0.5930189E+02  0.7816164E-02  0.1266605E+00
        -11   -1    0    0    0    0  0.00000000000E+00  0.00000000000E+00  0.45593999997E+02  0.45594000000E+02  0.51100000000E-03 0. -1.
         11   -1    0    0    0    0 -0.00000000000E+00 -0.00000000000E+00 -0.45593999997E+02  0.45594000000E+02  0.51100000000E-03 0.  1.
    9900012    2    1    2    0    0 -0.91979298099E+01 -0.29108030529E+02 -0.92111151878E+01  0.59301890218E+02  0.49999901863E+02 0.  0.
         12    1    1    2    0    0  0.91979298099E+01  0.29108030529E+02  0.92111151878E+01  0.31886109782E+02  0.00000000000E+00 0. -1.
         11    1    3    3    0    0 -0.11667956112E+02 -0.37472624954E+02 -0.13020415145E+02  0.41350574743E+02  0.51100000000E-03 0. -1.
        -11    1    3    3    0    0  0.11321665900E+01  0.13326513849E+01 -0.57494373743E+01  0.60094751255E+01  0.51100000000E-03 0.  1.
         12    1    3    3    0    0  0.13378597125E+01  0.70319430406E+01  0.95587373316E+01  0.11941840349E+02  0.00000000000E+00 0. -1.
</event>
<event>
 7    1  0.7457761E-012  0.5930196E+02  0.7816164E-02  0.1266605E+00
        -11   -1    0    0    0    0  0.00000000000E+00  0.00000000000E+00  0.45593999997E+02  0.45594000000E+02  0.51100000000E-03 0. -1.
         11   -1    0    0    0    0 -0.00000000000E+00 -0.00000000000E+00 -0.45593999997E+02  0.45594000000E+02  0.51100000000E-03 0.  1.
    9900012    2    1    2    0    0  0.19180555066E+02 -0.89009057136E+01 -0.23866293859E+02  0.59301956067E+02  0.50000021956E+02 0.  0.
         12    1    1    2    0    0 -0.19180555066E+02  0.89009057136E+01  0.23866293859E+02  0.31886043933E+02  0.00000000000E+00 0. -1.
         11    1    3    3    0    0 -0.11091404694E+01 -0.15953246267E+02  0.35449425451E+01  0.16379953509E+02  0.51100000000E-03 0. -1.
        -11    1    3    3    0    0  0.24586181821E+02  0.88244824264E+00 -0.24878099252E+02  0.34988267664E+02  0.51100000000E-03 0.  1.
        -12    1    3    3    0    0 -0.42964862861E+01  0.61698923112E+01 -0.25331371522E+01  0.79337348941E+01  0.00000000000E+00 0.  1.
</event>
<event>
 7    1  0.7457761E-012  0.5930192E+02  0.7816164E-02  0.1266605E+00
        -11   -1    0    0    0    0  0.00000000000E+00  0.00000000000E+00  0.45593999997E+02  0.45594000000E+02  0.51100000000E-03 0.  1.
         11   -1    0    0    0    0 -0.00000000000E+00 -0.00000000000E+00 -0.45593999997E+02  0.45594000000E+02  0.51100000000E-03 0. -1.
    9900012    2    1    2    0    0 -0.12082538922E+01 -0.38813888863E+01  0.31625896324E+02  0.59301915646E+02  0.49999948239E+02 0.  0.
         12    1    1    2    0    0  0.12082538922E+01  0.38813888863E+01 -0.31625896324E+02  0.31886084354E+02  0.00000000000E+00 0. -1.
         11    1    3    3    0    0 -0.15027987654E+02 -0.85701805295E+01  0.30975090515E+01  0.17575066709E+02  0.51100000000E-03 0.  1.
        -11    1    3    3    0    0  0.20352810791E+02 -0.14937659890E+01  0.14393748899E+02  0.24972950397E+02  0.51100000000E-03 0. -1.
         12    1    3    3    0    0 -0.65330770292E+01  0.61825576323E+01  0.14134638373E+02  0.16753898540E+02  0.00000000000E+00 0. -1.
</event>
<event>
 7    1  0.7457761E-012  0.5930194E+02  0.7816164E-02  0.1266605E+00
        -11   -1    0    0    0    0  0.00000000000E+00  0.00000000000E+00  0.45593999997E+02  0.45594000000E+02  0.51100000000E-03 0.  1.
         11   -1    0    0    0    0 -0.00000000000E+00 -0.00000000000E+00 -0.45593999997E+02  0.45594000000E+02  0.51100000000E-03 0. -1.
    9900012    2    1    2    0    0 -0.29192759768E+00 -0.19620120235E+02 -0.25133377221E+02  0.59301937366E+02  0.49999987851E+02 0.  0.
         12    1    1    2    0    0  0.29192759768E+00  0.19620120235E+02  0.25133377221E+02  0.31886062634E+02  0.00000000000E+00 0. -1.
         11    1    3    3    0    0 -0.23685424060E+02 -0.17690565503E+02 -0.18049841619E+02  0.34637439331E+02  0.51100000000E-03 0. -1.
        -11    1    3    3    0    0  0.66524438424E+01 -0.89143842459E+00 -0.82811205798E+00  0.67627983397E+01  0.51100000000E-03 0.  1.
         12    1    3    3    0    0  0.16741052619E+02 -0.10381163079E+01 -0.62554235435E+01  0.17901699695E+02  0.00000000000E+00 0. -1.
</event>
<event>
 7    1  0.7457761E-012  0.5930195E+02  0.7816164E-02  0.1266605E+00
        -11   -1    0    0    0    0  0.00000000000E+00  0.00000000000E+00  0.45593999997E+02  0.45594000000E+02  0.51100000000E-03 0.  1.
         11   -1    0    0    0    0 -0.00000000000E+00 -0.00000000000E+00 -0.45593999997E+02  0.45594000000E+02  0.51100000000E-03 0. -1.
    9900012    2    1    2    0    0  0.53431195558E+01  0.51478525855E+01  0.31010817730E+02  0.59301950870E+02  0.50000012478E+02 0.  0.
         12    1    1    2    0    0 -0.53431195558E+01 -0.51478525855E+01 -0.31010817730E+02  0.31886049130E+02  0.00000000000E+00 0. -1.
         11    1    3    3    0    0  0.68590497943E+01 -0.18125753322E+02  0.12978697419E+02  0.23324581122E+02  0.51100000000E-03 0. -1.
        -11    1    3    3    0    0 -0.64478261807E+00  0.26274683608E+02  0.11405061960E+02  0.28650483101E+02  0.51100000000E-03 0.  1.
         12    1    3    3    0    0 -0.87114762050E+00 -0.30010777010E+01  0.66270583509E+01  0.73268866465E+01  0.00000000000E+00 0. -1.
</event>
<event>
 7    1  0.7457761E-012  0.5930186E+02  0.7816164E-02  0.1266605E+00
        -11   -1    0    0    0    0  0.00000000000E+00  0.00000000000E+00  0.45593999997E+02  0.45594000000E+02  0.51100000000E-03 0.  1.
         11   -1    0    0    0    0 -0.00000000000E+00 -0.00000000000E+00 -0.45593999997E+02  0.45594000000E+02  0.51100000000E-03 0. -1.
    9900012    2    1    2    0    0  0.30654558275E+02  0.57159946014E+01 -0.66596978915E+01  0.59301857033E+02  0.49999841342E+02 0.  0.
         12    1    1    2    0    0 -0.30654558275E+02 -0.57159946014E+01  0.66596978915E+01  0.31886142967E+02  0.00000000000E+00 0. -1.
         11    1    3    3    0    0 -0.45791123314E+01 -0.58739283780E+01  0.13739293423E+02  0.15628163308E+02  0.51100000000E-03 0. -1.
        -11    1    3    3    0    0  0.28435060723E+02  0.73881008513E+01 -0.20246566569E+02  0.35679968759E+02  0.51100000000E-03 0.  1.
        -12    1    3    3    0    0  0.67986098827E+01  0.42018221282E+01 -0.15242474558E+00  0.79937249663E+01  0.00000000000E+00 0.  1.
</event>
<event>
 7    1  0.7457761E-012  0.5930195E+02  0.7816164E-02  0.1266605E+00
        -11   -1    0    0    0    0  0.00000000000E+00  0.00000000000E+00  0.45593999997E+02  0.45594000000E+02  0.51100000000E-03 0.  1.
         11   -1    0    0    0    0 -0.00000000000E+00 -0.00000000000E+00 -0.45593999997E+02  0.45594000000E+02  0.51100000000E-03 0. -1.
    9900012    2    1    2    0    0 -0.27962645200E+02 -0.78325767447E+01  0.13170469408E+02  0.59301952119E+02  0.50000014757E+02 0.  0.
         12    1    1    2    0    0  0.27962645200E+02  0.78325767447E+01 -0.13170469408E+02  0.31886047881E+02  0.00000000000E+00 0. -1.
         11    1    3    3    0    0  0.62141659853E+01  0.29663788386E-01  0.20432155372E+01  0.65415188470E+01  0.51100000000E-03 0. -1.
        -11    1    3    3    0    0 -0.10247794173E+02  0.80453537074E+01 -0.10551765391E+02  0.16765582448E+02  0.51100000000E-03 0.  1.
        -12    1    3    3    0    0 -0.23929017012E+02 -0.15907594241E+02  0.21679019262E+02  0.35994850824E+02  0.00000000000E+00 0.  1.
</event>
<event>
 7    1  0.7457761E-012  0.5930183E+02  0.7816164E-02  0.1266605E+00
        -11   -1    0    0    0    0  0.00000000000E+00  0.00000000000E+00  0.45593999997E+02  0.45594000000E+02  0.51100000000E-03 0.  1.
         11   -1    0    0    0    0 -0.00000000000E+00 -0.00000000000E+00 -0.45593999997E+02  0.45594000000E+02  0.51100000000E-03 0. -1.
    9900012    2    1    2    0    0 -0.17103721665E+02  0.15498995214E+02  0.21999357559E+02  0.59301829323E+02  0.49999790805E+02 0.  0.
         12    1    1    2    0    0  0.17103721665E+02 -0.15498995214E+02 -0.21999357559E+02  0.31886170677E+02  0.00000000000E+00 0. -1.
         11    1    3    3    0    0 -0.17592239991E+02  0.82942049935E+01 -0.12823147553E+02  0.23296219817E+02  0.51100000000E-03 0. -1.
        -11    1    3    3    0    0 -0.25726022992E+01  0.35569335984E+01  0.17100742557E+02  0.17655182114E+02  0.51100000000E-03 0.  1.
         12    1    3    3    0    0  0.30611206244E+01  0.36478566222E+01  0.17721762554E+02  0.18350427391E+02  0.00000000000E+00 0. -1.
</event>
<event>
 7    1  0.7457761E-012  0.5930193E+02  0.7816164E-02  0.1266605E+00
        -11   -1    0    0    0    0  0.00000000000E+00  0.00000000000E+00  0.45593999997E+02  0.45594000000E+02  0.51100000000E-03 0.  1.
         11   -1    0    0    0    0 -0.00000000000E+00 -0.00000000000E+00 -0.45593999997E+02  0.45594000000E+02  0.51100000000E-03 0. -1.
    9900012    2    1    2    0    0 -0.79854327197E+01  0.29001956176E+02  0.10575495997E+02  0.59301926028E+02  0.49999967172E+02 0.  0.
         12    1    1    2    0    0  0.79854327197E+01 -0.29001956176E+02 -0.10575495997E+02  0.31886073972E+02  0.00000000000E+00 0. -1.
         11    1    3    3    0    0  0.98070628533E+01  0.43816622010E+01 -0.37508321670E+01  0.11377442053E+02  0.51100000000E-03 0. -1.
        -11    1    3    3    0    0 -0.96948342151E+01  0.22200027603E+02  0.24664558052E+02  0.34571251932E+02  0.51100000000E-03 0.  1.
        -12    1    3    3    0    0 -0.80976613580E+01  0.24202663728E+01 -0.10338229888E+02  0.13353232043E+02  0.00000000000E+00 0.  1.
</event>
<event>
 7    1  0.7457761E-012  0.5930196E+02  0.7816164E-02  0.1266605E+00
        -11   -1    0    0    0    0  0.00000000000E+00  0.00000000000E+00  0.45593999997E+02  0.45594000000E+02  0.51100000000E-03 0. -1.
         11   -1    0    0    0    0 -0.00000000000E+00 -0.00000000000E+00 -0.45593999997E+02  0.45594000000E+02  0.51100000000E-03 0.  1.
    9900012    2    1    2    0    0  0.90141229779E+01 -0.25990614247E+02 -0.16123063628E+02  0.59301958810E+02  0.50000026960E+02 0.  0.
         12    1    1    2    0    0 -0.90141229779E+01  0.25990614247E+02  0.16123063628E+02  0.31886041190E+02  0.00000000000E+00 0. -1.
         11    1    3    3    0    0  0.82462929038E+00 -0.82911413109E+01  0.13819131187E+02  0.16136648497E+02  0.51100000000E-03 0. -1.
        -11    1    3    3    0    0  0.15697343218E+01 -0.18648706231E+02 -0.82259966235E+01  0.20442732954E+02  0.51100000000E-03 0.  1.
         12    1    3    3    0    0  0.66197593658E+01  0.94923329483E+00 -0.21716198192E+02  0.22722577358E+02  0.00000000000E+00 0. -1.
</event>
<event>
 7    1  0.7457761E-012  0.5930195E+02  0.7816164E-02  0.1266605E+00
        -11   -1    0    0    0    0  0.00000000000E+00  0.00000000000E+00  0.45593999997E+02  0.45594000000E+02  0.51100000000E-03 0.  1.
         11   -1    0    0    0    0 -0.00000000000E+00 -0.00000000000E+00 -0.45593999997E+02  0.45594000000E+02  0.51100000000E-03 0. -1.
    9900012    2    1    2    0    0  0.35914860380E+01  0.29492824143E+02  0.11575614169E+02  0.59301948327E+02  0.50000007841E+02 0.  0.
         12    1    1    2    0    0 -0.35914860380E+01 -0.29492824143E+02 -0.11575614169E+02  0.31886051673E+02  0.00000000000E+00 0. -1.
         11    1    3    3    0    0  0.82251332571E+01  0.14981841294E+01  0.21828147498E+02  0.23374460341E+02  0.51100000000E-03 0. -1.
        -11    1    3    3    0    0  0.56113429864E+01  0.14640745732E+02  0.95180359309E+00  0.15708104151E+02  0.51100000000E-03 0.  1.
         12    1    3    3    0    0 -0.10244990206E+02  0.13353894282E+02 -0.11204336922E+02  0.20219383835E+02  0.00000000000E+00 0. -1.
</event>
<event>
 7    1  0.7457761E-012  0.5930199E+02  0.7816164E-02  0.1266605E+00
        -11   -1    0    0    0    0  0.00000000000E+00  0.00000000000E+00  0.45593999997E+02  0.45594000000E+02  0.51100000000E-03 0. -1.
         11   -1    0    0    0    0 -0.00000000000E+00 -0.00000000000E+00 -0.45593999997E+02  0.45594000000E+02  0.51100000000E-03 0.  1.
    9900012    2    1    2    0    0  0.20971414858E+02  0.22962624345E+02 -0.70452206308E+01  0.59301992227E+02  0.50000087904E+02 0.  0.
         12    1    1    2    0    0 -0.20971414858E+02 -0.22962624345E+02  0.70452206308E+01  0.31886007773E+02  0.00000000000E+00 0. -1.
         11    1    3    3    0    0  0.13039203587E+02 -0.13237425954E+02  0.64485707388E+01  0.19668104660E+02  0.51100000000E-03 0. -1.
        -11    1    3    3    0    0  0.53385787375E+01  0.28514208712E+02 -0.90708026324E+01  0.30394736091E+02  0.51100000000E-03 0.  1.
         12    1    3    3    0    0  0.25936325337E+01  0.76858415876E+01 -0.44229887372E+01  0.92391514761E+01  0.00000000000E+00 0. -1.
</event>
<event>
 7    1  0.7457761E-012  0.5930191E+02  0.7816164E-02  0.1266605E+00
        -11   -1    0    0    0    0  0.00000000000E+00  0.00000000000E+00  0.45593999997E+02  0.45594000000E+02  0.51100000000E-03 0. -1.
         11   -1    0    0    0    0 -0.00000000000E+00 -0.00000000000E+00 -0.45593999997E+02  0.45594000000E+02  0.51100000000E-03 0.  1.
    9900012    2    1    2    0    0 -0.29500861155E+01  0.27269262313E+02 -0.16260604286E+02  0.59301906998E+02  0.49999932467E+02 0.  0.
         12    1    1    2    0    0  0.29500861155E+01 -0.27269262313E+02  0.16260604286E+02  0.31886093002E+02  0.00000000000E+00 0. -1.
         11    1    3    3    0    0  0.87948821947E+01  0.19752480180E+02 -0.50774290599E+01  0.22210148856E+02  0.51100000000E-03 0. -1.
        -11    1    3    3    0    0 -0.18684287277E+02 -0.26419666959E+01 -0.15113647946E+02  0.24176536840E+02  0.51100000000E-03 0.  1.
        -12    1    3    3    0    0  0.69393189667E+01  0.10158748829E+02  0.39304727202E+01  0.12915221303E+02  0.00000000000E+00 0.  1.
</event>
<event>
 7    1  0.7457761E-012  0.5930190E+02  0.7816164E-02  0.1266605E+00
        -11   -1    0    0    0    0  0.00000000000E+00  0.00000000000E+00  0.45593999997E+02  0.45594000000E+02  0.51100000000E-03 0.  1.
         11   -1    0    0    0    0 -0.00000000000E+00 -0.00000000000E+00 -0.45593999997E+02  0.45594000000E+02  0.51100000000E-03 0. -1.
    9900012    2    1    2    0    0  0.27086958757E+02  0.43693530012E+01  0.16245894952E+02  0.59301895140E+02  0.49999910840E+02 0.  0.
         12    1    1    2    0    0 -0.27086958757E+02 -0.43693530012E+01 -0.16245894952E+02  0.31886104860E+02  0.00000000000E+00 0. -1.
         11    1    3    3    0    0 -0.20228851577E+01 -0.20748256874E+00 -0.78137092225E+01  0.80739807687E+01  0.51100000000E-03 0. -1.
        -11    1    3    3    0    0  0.33976276697E+02 -0.81021569893E+00  0.26989785120E+02  0.43399220370E+02  0.51100000000E-03 0.  1.
        -12    1    3    3    0    0 -0.48664327817E+01  0.53870512688E+01 -0.29301809450E+01  0.78286940011E+01  0.00000000000E+00 0.  1.
</event>
<event>
 7    1  0.7457761E-012  0.5930195E+02  0.7816164E-02  0.1266605E+00
        -11   -1    0    0    0    0  0.00000000000E+00  0.00000000000E+00  0.45593999997E+02  0.45594000000E+02  0.51100000000E-03 0. -1.
         11   -1    0    0    0    0 -0.00000000000E+00 -0.00000000000E+00 -0.45593999997E+02  0.45594000000E+02  0.51100000000E-03 0.  1.
    9900012    2    1    2    0    0  0.31585771641E+02  0.42401584244E+01  0.10393728297E+01  0.59301949609E+02  0.50000010179E+02 0.  0.
         12    1    1    2    0    0 -0.31585771641E+02 -0.42401584244E+01 -0.10393728297E+01  0.31886050391E+02  0.00000000000E+00 0. -1.
         11    1    3    3    0    0 -0.94881239763E+01  0.20207400982E+01 -0.62172094115E+01  0.11522221151E+02  0.51100000000E-03 0. -1.
        -11    1    3    3    0    0  0.36189715611E+02  0.49426540023E+00 -0.29714102429E+01  0.36314860503E+02  0.51100000000E-03 0.  1.
        -12    1    3    3    0    0  0.48841800068E+01  0.17251529259E+01  0.10227992484E+02  0.11464867954E+02  0.00000000000E+00 0.  1.
</event>
<event>
 7    1  0.7457761E-012  0.5930193E+02  0.7816164E-02  0.1266605E+00
        -11   -1    0    0    0    0  0.00000000000E+00  0.00000000000E+00  0.45593999997E+02  0.45594000000E+02  0.51100000000E-03 0. -1.
         11   -1    0    0    0    0 -0.00000000000E+00 -0.00000000000E+00 -0.45593999997E+02  0.45594000000E+02  0.51100000000E-03 0.  1.
    9900012    2    1    2    0    0  0.27936286602E+02 -0.65908691667E+01 -0.13886888276E+02  0.59301932016E+02  0.49999978094E+02 0.  0.
         12    1    1    2    0    0 -0.27936286602E+02  0.65908691667E+01  0.13886888276E+02  0.31886067984E+02  0.00000000000E+00 0. -1.
         11    1    3    3    0    0  0.18263384160E+00 -0.22462974438E+02 -0.51041536774E+01  0.23036296593E+02  0.51100000000E-03 0. -1.
        -11    1    3    3    0    0  0.24027024170E+02  0.11216418688E+02 -0.12419677432E+02  0.29280613491E+02  0.51100000000E-03 0.  1.
        -12    1    3    3    0    0  0.37266285905E+01  0.46556865827E+01  0.36369428336E+01  0.69850219314E+01  0.00000000000E+00 0.  1.
</event>
<event>
 7    1  0.7457761E-012  0.5930195E+02  0.7816164E-02  0.1266605E+00
        -11   -1    0    0    0    0  0.00000000000E+00  0.00000000000E+00  0.45593999997E+02  0.45594000000E+02  0.51100000000E-03 0.  1.
         11   -1    0    0    0    0 -0.00000000000E+00 -0.00000000000E+00 -0.45593999997E+02  0.45594000000E+02  0.51100000000E-03 0. -1.
    9900012    2    1    2    0    0  0.29536093552E+02 -0.30732306455E+01  0.11614410878E+02  0.59301951186E+02  0.50000013055E+02 0.  0.
         12    1    1    2    0    0 -0.29536093552E+02  0.30732306455E+01 -0.11614410878E+02  0.31886048814E+02  0.00000000000E+00 0. -1.
         11    1    3    3    0    0  0.31413321015E+02 -0.18083083659E+02 -0.11254315007E+00  0.36246480078E+02  0.51100000000E-03 0.  1.
        -11    1    3    3    0    0  0.39169825286E+01  0.12197054669E+02  0.10349768677E+02  0.16469019602E+02  0.51100000000E-03 0. -1.
        -12    1    3    3    0    0 -0.57942099912E+01  0.28127983440E+01  0.13771853512E+01  0.65864515057E+01  0.00000000000E+00 0.  1.
</event>
<event>
 7    1  0.7457761E-012  0.5930198E+02  0.7816164E-02  0.1266605E+00
        -11   -1    0    0    0    0  0.00000000000E+00  0.00000000000E+00  0.45593999997E+02  0.45594000000E+02  0.51100000000E-03 0.  1.
         11   -1    0    0    0    0 -0.00000000000E+00 -0.00000000000E+00 -0.45593999997E+02  0.45594000000E+02  0.51100000000E-03 0. -1.
    9900012    2    1    2    0    0  0.31526557112E+02 -0.34545183466E+01 -0.32955857682E+01  0.59301978205E+02  0.50000062332E+02 0.  0.
         12    1    1    2    0    0 -0.31526557112E+02  0.34545183466E+01  0.32955857682E+01  0.31886021795E+02  0.00000000000E+00 0. -1.
         11    1    3    3    0    0  0.26133363708E+02  0.48471436365E+01  0.15412249959E+02  0.30724338060E+02  0.51100000000E-03 0.  1.
        -11    1    3    3    0    0 -0.23740589632E+01 -0.11437555164E+02 -0.15927350649E+02  0.19751818222E+02  0.51100000000E-03 0. -1.
        -12    1    3    3    0    0  0.77672523665E+01  0.31358931806E+01 -0.27804850780E+01  0.88258219240E+01  0.00000000000E+00 0.  1.
</event>
<event>
 7    1  0.7457761E-012  0.5930217E+02  0.7816164E-02  0.1266604E+00
        -11   -1    0    0    0    0  0.00000000000E+00  0.00000000000E+00  0.45593999997E+02  0.45594000000E+02  0.51100000000E-03 0.  1.
         11   -1    0    0    0    0 -0.00000000000E+00 -0.00000000000E+00 -0.45593999997E+02  0.45594000000E+02  0.51100000000E-03 0. -1.
    9900012    2    1    2    0    0 -0.10272503566E+02 -0.30146915754E+02  0.15314605536E+01  0.59302168814E+02  0.50000409955E+02 0.  0.
         12    1    1    2    0    0  0.10272503566E+02  0.30146915754E+02 -0.15314605536E+01  0.31885831186E+02  0.00000000000E+00 0. -1.
         11    1    3    3    0    0 -0.13018978386E+02 -0.30140282531E+01  0.83173657658E+00  0.13389172884E+02  0.51100000000E-03 0. -1.
        -11    1    3    3    0    0  0.15288105054E+02 -0.13069175520E+02  0.12498816085E+02  0.23680158545E+02  0.51100000000E-03 0.  1.
        -12    1    3    3    0    0 -0.12541630235E+02 -0.14063711981E+02 -0.11799092108E+02  0.22232837385E+02  0.00000000000E+00 0.  1.
</event>
<event>
 7    1  0.7457761E-012  0.5930191E+02  0.7816164E-02  0.1266605E+00
        -11   -1    0    0    0    0  0.00000000000E+00  0.00000000000E+00  0.45593999997E+02  0.45594000000E+02  0.51100000000E-03 0. -1.
         11   -1    0    0    0    0 -0.00000000000E+00 -0.00000000000E+00 -0.45593999997E+02  0.45594000000E+02  0.51100000000E-03 0.  1.
    9900012    2    1    2    0    0  0.22136348097E+02 -0.22304556482E+02 -0.54047700257E+01  0.59301910777E+02  0.49999939359E+02 0.  0.
         12    1    1    2    0    0 -0.22136348097E+02  0.22304556482E+02  0.54047700257E+01  0.31886089223E+02  0.00000000000E+00 0. -1.
         11    1    3    3    0    0  0.16257294187E+02  0.87071923358E+00 -0.31546394444E+01  0.16583410885E+02  0.51100000000E-03 0. -1.
        -11    1    3    3    0    0  0.27111590580E+01 -0.32469477908E+02  0.25991457904E+00  0.32583507100E+02  0.51100000000E-03 0.  1.
        -12    1    3    3    0    0  0.31678948512E+01  0.92942021933E+01 -0.25100451604E+01  0.10134992793E+02  0.00000000000E+00 0.  1.
</event>
<event>
 7    1  0.7457761E-012  0.5930206E+02  0.7816164E-02  0.1266604E+00
        -11   -1    0    0    0    0  0.00000000000E+00  0.00000000000E+00  0.45593999997E+02  0.45594000000E+02  0.51100000000E-03 0.  1.
         11   -1    0    0    0    0 -0.00000000000E+00 -0.00000000000E+00 -0.45593999997E+02  0.45594000000E+02  0.51100000000E-03 0. -1.
    9900012    2    1    2    0    0  0.12372260113E+02  0.82758905574E+01  0.28198407803E+02  0.59302056585E+02  0.50000205278E+02 0.  0.
         12    1    1    2    0    0 -0.12372260113E+02 -0.82758905574E+01 -0.28198407803E+02  0.31885943415E+02  0.00000000000E+00 0. -1.
         11    1    3    3    0    0 -0.74801621062E+01  0.37925053425E+01 -0.28195563673E+01  0.88479274567E+01  0.51100000000E-03 0. -1.
        -11    1    3    3    0    0  0.23520824312E+02  0.15311696226E+02  0.24728136149E+02  0.37405319612E+02  0.51100000000E-03 0.  1.
         12    1    3    3    0    0 -0.36684020928E+01 -0.10828311011E+02  0.62898280211E+01  0.13048809517E+02  0.00000000000E+00 0. -1.
</event>
<event>
 7    1  0.7457761E-012  0.5930194E+02  0.7816164E-02  0.1266605E+00
        -11   -1    0    0    0    0  0.00000000000E+00  0.00000000000E+00  0.45593999997E+02  0.45594000000E+02  0.51100000000E-03 0. -1.
         11   -1    0    0    0    0 -0.00000000000E+00 -0.00000000000E+00 -0.45593999997E+02  0.45594000000E+02  0.51100000000E-03 0.  1.
    9900012    2    1    2    0    0 -0.73096923426E+01 -0.26068092356E+02  0.16844695915E+02  0.59301940010E+02  0.49999992673E+02 0.  0.
         12    1    1    2    0    0  0.73096923426E+01  0.26068092356E+02 -0.16844695915E+02  0.31886059990E+02  0.00000000000E+00 0. -1.
         11    1    3    3    0    0  0.42883925716E+01  0.44241756136E+01 -0.72199074864E+01  0.94916123542E+01  0.51100000000E-03 0. -1.
        -11    1    3    3    0    0 -0.13065426215E+02 -0.53353602201E+01  0.19703116640E+02  0.24236011150E+02  0.51100000000E-03 0.  1.
        -12    1    3    3    0    0  0.14673413007E+01 -0.25156907749E+02  0.43614867618E+01  0.25574316506E+02  0.00000000000E+00 0.  1.
</event>
<event>
 7    1  0.7457761E-012  0.5930193E+02  0.7816164E-02  0.1266605E+00
        -11   -1    0    0    0    0  0.00000000000E+00  0.00000000000E+00  0.45593999997E+02  0.45594000000E+02  0.51100000000E-03 0. -1.
         11   -1    0    0    0    0 -0.00000000000E+00 -0.00000000000E+00 -0.45593999997E+02  0.45594000000E+02  0.51100000000E-03 0.  1.
    9900012    2    1    2    0    0 -0.17511478533E+01  0.27469071875E+02 -0.16096732611E+02  0.59301933619E+02  0.49999981018E+02 0.  0.
         12    1    1    2    0    0  0.17511478533E+01 -0.27469071875E+02  0.16096732611E+02  0.31886066381E+02  0.00000000000E+00 0. -1.
         11    1    3    3    0    0  0.14643800983E+02 -0.82441987510E+01 -0.51464098502E+01  0.17575359310E+02  0.51100000000E-03 0. -1.
        -11    1    3    3    0    0 -0.88979201517E+01  0.95755847676E+01 -0.34207791211E+01  0.13511718496E+02  0.51100000000E-03 0.  1.
         12    1    3    3    0    0 -0.74970286842E+01  0.26137685859E+02 -0.75295436394E+01  0.28214855813E+02  0.00000000000E+00 0. -1.
</event>
<event>
 7    1  0.7457761E-012  0.5930199E+02  0.7816164E-02  0.1266605E+00
        -11   -1    0    0    0    0  0.00000000000E+00  0.00000000000E+00  0.45593999997E+02  0.45594000000E+02  0.51100000000E-03 0.  1.
         11   -1    0    0    0    0 -0.00000000000E+00 -0.00000000000E+00 -0.45593999997E+02  0.45594000000E+02  0.51100000000E-03 0. -1.
    9900012    2    1    2    0    0 -0.52770028246E+01  0.19713669729E+02  0.24499835894E+02  0.59301992225E+02  0.50000087901E+02 0.  0.
         12    1    1    2    0    0  0.52770028246E+01 -0.19713669729E+02 -0.24499835894E+02  0.31886007775E+02  0.00000000000E+00 0. -1.
         11    1    3    3    0    0 -0.14206555729E+02 -0.17361498194E+01  0.27773059123E+01  0.14579227355E+02  0.51100000000E-03 0. -1.
        -11    1    3    3    0    0  0.16132642595E+02  0.12552892317E+02  0.25487867776E+02  0.32672138997E+02  0.51100000000E-03 0.  1.
        -12    1    3    3    0    0 -0.72030896906E+01  0.88969272312E+01 -0.37653377944E+01  0.12050625874E+02  0.00000000000E+00 0.  1.
</event>
<event>
 7    1  0.7457761E-012  0.5930192E+02  0.7816164E-02  0.1266605E+00
        -11   -1    0    0    0    0  0.00000000000E+00  0.00000000000E+00  0.45593999997E+02  0.45594000000E+02  0.51100000000E-03 0.  1.
         11   -1    0    0    0    0 -0.00000000000E+00 -0.00000000000E+00 -0.45593999997E+02  0.45594000000E+02  0.51100000000E-03 0. -1.
    9900012    2    1    2    0    0 -0.26153137936E+02  0.11931759807E+02  0.13797412993E+02  0.59301919631E+02  0.49999955507E+02 0.  0.
         12    1    1    2    0    0  0.26153137936E+02 -0.11931759807E+02 -0.13797412993E+02  0.31886080369E+02  0.00000000000E+00 0. -1.
         11    1    3    3    0    0 -0.13342665496E+02  0.26708781625E+02 -0.29374439429E+01  0.30000238592E+02  0.51100000000E-03 0. -1.
        -11    1    3    3    0    0 -0.12916133725E+02 -0.89919472825E+01  0.55122740366E+01  0.16675334829E+02  0.51100000000E-03 0.  1.
         12    1    3    3    0    0  0.10566128521E+00 -0.57850745352E+01  0.11222582899E+02  0.12626346210E+02  0.00000000000E+00 0. -1.
</event>
<event>
 7    1  0.7457761E-012  0.5930184E+02  0.7816164E-02  0.1266605E+00
        -11   -1    0    0    0    0  0.00000000000E+00  0.00000000000E+00  0.45593999997E+02  0.45594000000E+02  0.51100000000E-03 0.  1.
         11   -1    0    0    0    0 -0.00000000000E+00 -0.00000000000E+00 -0.45593999997E+02  0.45594000000E+02  0.51100000000E-03 0. -1.
    9900012    2    1    2    0    0 -0.19697565723E+02  0.18367610815E+02  0.17069378420E+02  0.59301844664E+02  0.49999818784E+02 0.  0.
         12    1    1    2    0    0  0.19697565723E+02 -0.18367610815E+02 -0.17069378420E+02  0.31886155336E+02  0.00000000000E+00 0. -1.
         11    1    3    3    0    0 -0.15384225127E+02  0.10884128109E+02 -0.17372271999E+01  0.18925025391E+02  0.51100000000E-03 0. -1.
        -11    1    3    3    0    0  0.51879553353E+01 -0.10662406024E+02 -0.97968398223E+00  0.11897964689E+02  0.51100000000E-03 0.  1.
        -12    1    3    3    0    0 -0.95012959313E+01  0.18145888730E+02  0.19786289602E+02  0.28478854584E+02  0.00000000000E+00 0.  1.
</event>
<event>
 7    1  0.7457761E-012  0.5930193E+02  0.7816164E-02  0.1266605E+00
        -11   -1    0    0    0    0  0.00000000000E+00  0.00000000000E+00  0.45593999997E+02  0.45594000000E+02  0.51100000000E-03 0. -1.
         11   -1    0    0    0    0 -0.00000000000E+00 -0.00000000000E+00 -0.45593999997E+02  0.45594000000E+02  0.51100000000E-03 0.  1.
    9900012    2    1    2    0    0  0.29162957284E+02  0.78241720646E+01 -0.10248204585E+02  0.59301930263E+02  0.49999974896E+02 0.  0.
         12    1    1    2    0    0 -0.29162957284E+02 -0.78241720646E+01  0.10248204585E+02  0.31886069737E+02  0.00000000000E+00 0. -1.
         11    1    3    3    0    0 -0.51041545468E+01  0.19184536128E+01  0.14431378479E+02  0.15427168988E+02  0.51100000000E-03 0. -1.
        -11    1    3    3    0    0  0.87167793662E+01  0.37575236611E+01 -0.21277172984E+01  0.97277133873E+01  0.51100000000E-03 0.  1.
         12    1    3    3    0    0  0.25550332465E+02  0.21481947907E+01 -0.22551865766E+02  0.34147047888E+02  0.00000000000E+00 0. -1.
</event>
<event>
 7    1  0.7457761E-012  0.5930195E+02  0.7816164E-02  0.1266605E+00
        -11   -1    0    0    0    0  0.00000000000E+00  0.00000000000E+00  0.45593999997E+02  0.45594000000E+02  0.51100000000E-03 0.  1.
         11   -1    0    0    0    0 -0.00000000000E+00 -0.00000000000E+00 -0.45593999997E+02  0.45594000000E+02  0.51100000000E-03 0. -1.
    9900012    2    1    2    0    0  0.25815443321E+02  0.17611187972E+02  0.63347789728E+01  0.59301945364E+02  0.50000002436E+02 0.  0.
         12    1    1    2    0    0 -0.25815443321E+02 -0.17611187972E+02 -0.63347789728E+01  0.31886054636E+02  0.00000000000E+00 0. -1.
         11    1    3    3    0    0 -0.49154096369E+01 -0.45060585088E+01 -0.57917943058E+01  0.88323664284E+01  0.51100000000E-03 0. -1.
        -11    1    3    3    0    0  0.68000019428E+01  0.12125108474E+02  0.19092266953E+02  0.23617217017E+02  0.51100000000E-03 0.  1.
         12    1    3    3    0    0  0.23930851015E+02  0.99921380070E+01 -0.69656936748E+01  0.26852361919E+02  0.00000000000E+00 0. -1.
</event>
<event>
 7    1  0.7457761E-012  0.5930197E+02  0.7816164E-02  0.1266605E+00
        -11   -1    0    0    0    0  0.00000000000E+00  0.00000000000E+00  0.45593999997E+02  0.45594000000E+02  0.51100000000E-03 0.  1.
         11   -1    0    0    0    0 -0.00000000000E+00 -0.00000000000E+00 -0.45593999997E+02  0.45594000000E+02  0.51100000000E-03 0. -1.
    9900012    2    1    2    0    0  0.28341065424E+02  0.54068897151E+01  0.13574547919E+02  0.59301971759E+02  0.50000050576E+02 0.  0.
         12    1    1    2    0    0 -0.28341065424E+02 -0.54068897151E+01 -0.13574547919E+02  0.31886028241E+02  0.00000000000E+00 0. -1.
         11    1    3    3    0    0  0.14364147513E+02 -0.42893879710E+01 -0.71246809579E+01  0.16597851125E+02  0.51100000000E-03 0. -1.
        -11    1    3    3    0    0 -0.10219598388E+02  0.81618850855E+01  0.80493386115E+01  0.15357356925E+02  0.51100000000E-03 0.  1.
        -12    1    3    3    0    0  0.24196516299E+02  0.15343926005E+01  0.12649890266E+02  0.27346763710E+02  0.00000000000E+00 0.  1.
</event>
<event>
 7    1  0.7457761E-012  0.5930194E+02  0.7816164E-02  0.1266605E+00
        -11   -1    0    0    0    0  0.00000000000E+00  0.00000000000E+00  0.45593999997E+02  0.45594000000E+02  0.51100000000E-03 0. -1.
         11   -1    0    0    0    0 -0.00000000000E+00 -0.00000000000E+00 -0.45593999997E+02  0.45594000000E+02  0.51100000000E-03 0.  1.
    9900012    2    1    2    0    0 -0.15572333667E+02  0.18724329832E+01 -0.27761790629E+02  0.59301943485E+02  0.49999999011E+02 0.  0.
         12    1    1    2    0    0  0.15572333667E+02 -0.18724329832E+01  0.27761790629E+02  0.31886056515E+02  0.00000000000E+00 0. -1.
         11    1    3    3    0    0  0.15233814516E+02 -0.67425176724E+01 -0.12430677376E+00  0.16659714935E+02  0.51100000000E-03 0. -1.
        -11    1    3    3    0    0 -0.12226402928E+02  0.33819873246E+01 -0.74495132358E+01  0.14711152727E+02  0.51100000000E-03 0.  1.
         12    1    3    3    0    0 -0.18579745254E+02  0.52329633311E+01 -0.20187970620E+02  0.27931075824E+02  0.00000000000E+00 0. -1.
</event>
<event>
 7    1  0.7457761E-012  0.5930196E+02  0.7816164E-02  0.1266605E+00
        -11   -1    0    0    0    0  0.00000000000E+00  0.00000000000E+00  0.45593999997E+02  0.45594000000E+02  0.51100000000E-03 0.  1.
         11   -1    0    0    0    0 -0.00000000000E+00 -0.00000000000E+00 -0.45593999997E+02  0.45594000000E+02  0.51100000000E-03 0. -1.
    9900012    2    1    2    0    0  0.13061657401E+02  0.16750725669E+02  0.23780786437E+02  0.59301960609E+02  0.50000030240E+02 0.  0.
         12    1    1    2    0    0 -0.13061657401E+02 -0.16750725669E+02 -0.23780786437E+02  0.31886039391E+02  0.00000000000E+00 0. -1.
         11    1    3    3    0    0  0.10001625055E+02 -0.47595280642E+01 -0.61336213813E+01  0.12661237011E+02  0.51100000000E-03 0. -1.
        -11    1    3    3    0    0 -0.52565355214E+01  0.25418576681E+02  0.17966772042E+02  0.31568023442E+02  0.51100000000E-03 0.  1.
        -12    1    3    3    0    0  0.83165678674E+01 -0.39083229475E+01  0.11947635777E+02  0.15072700156E+02  0.00000000000E+00 0.  1.
</event>
<event>
 7    1  0.7457761E-012  0.5930177E+02  0.7816164E-02  0.1266605E+00
        -11   -1    0    0    0    0  0.00000000000E+00  0.00000000000E+00  0.45593999997E+02  0.45594000000E+02  0.51100000000E-03 0.  1.
         11   -1    0    0    0    0 -0.00000000000E+00 -0.00000000000E+00 -0.45593999997E+02  0.45594000000E+02  0.51100000000E-03 0. -1.
    9900012    2    1    2    0    0 -0.29525300677E+02 -0.11779359416E+02 -0.24970400062E+01  0.59301766338E+02  0.49999675936E+02 0.  0.
         12    1    1    2    0    0  0.29525300677E+02  0.11779359416E+02  0.24970400062E+01  0.31886233662E+02  0.00000000000E+00 0. -1.
         11    1    3    3    0    0  0.11893721948E+01  0.66656407865E+01 -0.57580096678E+01  0.88881971686E+01  0.51100000000E-03 0. -1.
        -11    1    3    3    0    0 -0.15428570854E+02  0.33910420554E+01  0.14540786871E+02  0.21470315506E+02  0.51100000000E-03 0.  1.
        -12    1    3    3    0    0 -0.15286102018E+02 -0.21836042258E+02 -0.11279817209E+02  0.28943253664E+02  0.00000000000E+00 0.  1.
</event>
<event>
 7    1  0.7457761E-012  0.5930191E+02  0.7816164E-02  0.1266605E+00
        -11   -1    0    0    0    0  0.00000000000E+00  0.00000000000E+00  0.45593999997E+02  0.45594000000E+02  0.51100000000E-03 0.  1.
         11   -1    0    0    0    0 -0.00000000000E+00 -0.00000000000E+00 -0.45593999997E+02  0.45594000000E+02  0.51100000000E-03 0. -1.
    9900012    2    1    2    0    0 -0.11262705619E+02  0.16489469804E+02  0.24859039346E+02  0.59301906017E+02  0.49999930677E+02 0.  0.
         12    1    1    2    0    0  0.11262705619E+02 -0.16489469804E+02 -0.24859039346E+02  0.31886093983E+02  0.00000000000E+00 0. -1.
         11    1    3    3    0    0 -0.15899701996E+02  0.17052711834E+02  0.31109768020E+02  0.38876897651E+02  0.51100000000E-03 0. -1.
        -11    1    3    3    0    0  0.48140339494E+01 -0.81231134699E+01  0.15406995756E+01  0.95673220263E+01  0.51100000000E-03 0.  1.
         12    1    3    3    0    0 -0.17703757213E+00  0.75598714405E+01 -0.77914282489E+01  0.10857686340E+02  0.00000000000E+00 0. -1.
</event>
<event>
 7    1  0.7457761E-012  0.5930197E+02  0.7816164E-02  0.1266605E+00
        -11   -1    0    0    0    0  0.00000000000E+00  0.00000000000E+00  0.45593999997E+02  0.45594000000E+02  0.51100000000E-03 0.  1.
         11   -1    0    0    0    0 -0.00000000000E+00 -0.00000000000E+00 -0.45593999997E+02  0.45594000000E+02  0.51100000000E-03 0. -1.
    9900012    2    1    2    0    0  0.45541543434E+01 -0.29670520399E+02 -0.10753552235E+02  0.59301968760E+02  0.50000045107E+02 0.  0.
         12    1    1    2    0    0 -0.45541543434E+01  0.29670520399E+02  0.10753552235E+02  0.31886031240E+02  0.00000000000E+00 0. -1.
         11    1    3    3    0    0 -0.16244068471E+02 -0.17619252530E+02 -0.88847250249E+01  0.25558680702E+02  0.51100000000E-03 0. -1.
        -11    1    3    3    0    0  0.13209599769E+02 -0.63376750309E+01  0.10588891134E+02  0.18077175292E+02  0.51100000000E-03 0.  1.
         12    1    3    3    0    0  0.75886230458E+01 -0.57135928382E+01 -0.12457718344E+02  0.15666112766E+02  0.00000000000E+00 0. -1.
</event>
<event>
 7    1  0.7457761E-012  0.5930195E+02  0.7816164E-02  0.1266605E+00
        -11   -1    0    0    0    0  0.00000000000E+00  0.00000000000E+00  0.45593999997E+02  0.45594000000E+02  0.51100000000E-03 0. -1.
         11   -1    0    0    0    0 -0.00000000000E+00 -0.00000000000E+00 -0.45593999997E+02  0.45594000000E+02  0.51100000000E-03 0.  1.
    9900012    2    1    2    0    0 -0.31422196858E+02 -0.73661212387E+00  0.53687022130E+01  0.59301952640E+02  0.50000015706E+02 0.  0.
         12    1    1    2    0    0  0.31422196858E+02  0.73661212387E+00 -0.53687022130E+01  0.31886047360E+02  0.00000000000E+00 0. -1.
         11    1    3    3    0    0 -0.36537267582E+02 -0.31824093677E+01  0.20500810330E+02  0.42016459587E+02  0.51100000000E-03 0. -1.
        -11    1    3    3    0    0 -0.62359229594E+00  0.53978776461E+00 -0.75143553080E+01  0.75594823988E+01  0.51100000000E-03 0.  1.
         12    1    3    3    0    0  0.57386630200E+01  0.19060094792E+01 -0.76177528085E+01  0.97260106541E+01  0.00000000000E+00 0. -1.
</event>
<event>
 7    1  0.7457761E-012  0.5930197E+02  0.7816164E-02  0.1266605E+00
        -11   -1    0    0    0    0  0.00000000000E+00  0.00000000000E+00  0.45593999997E+02  0.45594000000E+02  0.51100000000E-03 0.  1.
         11   -1    0    0    0    0 -0.00000000000E+00 -0.00000000000E+00 -0.45593999997E+02  0.45594000000E+02  0.51100000000E-03 0. -1.
    9900012    2    1    2    0    0 -0.26559088978E+01  0.22436509387E+02  0.22500407386E+02  0.59301966411E+02  0.50000040821E+02 0.  0.
         12    1    1    2    0    0  0.26559088978E+01 -0.22436509387E+02 -0.22500407386E+02  0.31886033589E+02  0.00000000000E+00 0. -1.
         11    1    3    3    0    0  0.16103939229E+02  0.19948070571E+02  0.49156278574E+01  0.26104133307E+02  0.51100000000E-03 0. -1.
        -11    1    3    3    0    0  0.19672118788E+01 -0.12570024766E+01  0.10829565886E+02  0.11078333599E+02  0.51100000000E-03 0.  1.
         12    1    3    3    0    0 -0.20727060006E+02  0.37454412922E+01  0.67552136428E+01  0.22119499504E+02  0.00000000000E+00 0. -1.
</event>
<event>
 7    1  0.7457761E-012  0.5930193E+02  0.7816164E-02  0.1266605E+00
        -11   -1    0    0    0    0  0.00000000000E+00  0.00000000000E+00  0.45593999997E+02  0.45594000000E+02  0.51100000000E-03 0.  1.
         11   -1    0    0    0    0 -0.00000000000E+00 -0.00000000000E+00 -0.45593999997E+02  0.45594000000E+02  0.51100000000E-03 0. -1.
    9900012    2    1    2    0    0  0.12570993035E+02  0.15937692470E+01  0.29260062092E+02  0.59301934079E+02  0.49999981856E+02 0.  0.
         12    1    1    2    0    0 -0.12570993035E+02 -0.15937692470E+01 -0.29260062092E+02  0.31886065921E+02  0.00000000000E+00 0. -1.
         11    1    3    3    0    0  0.12037089578E+02 -0.13551701981E+02 -0.55239943712E+01  0.18948737851E+02  0.51100000000E-03 0. -1.
        -11    1    3    3    0    0 -0.50900493162E+01  0.28502050849E+01  0.17262621747E+02  0.18221700824E+02  0.51100000000E-03 0.  1.
        -12    1    3    3    0    0  0.56239527728E+01  0.12295266143E+02  0.17521434716E+02  0.22131495404E+02  0.00000000000E+00 0.  1.
</event>
<event>
 7    1  0.7457761E-012  0.5930198E+02  0.7816164E-02  0.1266605E+00
        -11   -1    0    0    0    0  0.00000000000E+00  0.00000000000E+00  0.45593999997E+02  0.45594000000E+02  0.51100000000E-03 0. -1.
         11   -1    0    0    0    0 -0.00000000000E+00 -0.00000000000E+00 -0.45593999997E+02  0.45594000000E+02  0.51100000000E-03 0.  1.
    9900012    2    1    2    0    0 -0.20994902773E+02 -0.18402716692E+02 -0.15403648241E+02  0.59301979502E+02  0.50000064696E+02 0.  0.
         12    1    1    2    0    0  0.20994902773E+02  0.18402716692E+02  0.15403648241E+02  0.31886020498E+02  0.00000000000E+00 0. -1.
         11    1    3    3    0    0 -0.67393750225E+01  0.23531366338E+01  0.14856847304E+02  0.16482789199E+02  0.51100000000E-03 0. -1.
        -11    1    3    3    0    0  0.19918041667E+01 -0.45785537821E+01 -0.13571113895E+02  0.14460483090E+02  0.51100000000E-03 0.  1.
         12    1    3    3    0    0 -0.16247331918E+02 -0.16177299543E+02 -0.16689381649E+02  0.28358707213E+02  0.00000000000E+00 0. -1.
</event>
<event>
 7    1  0.7457761E-012  0.5930195E+02  0.7816164E-02  0.1266605E+00
        -11   -1    0    0    0    0  0.00000000000E+00  0.00000000000E+00  0.45593999997E+02  0.45594000000E+02  0.51100000000E-03 0.  1.
         11   -1    0    0    0    0 -0.00000000000E+00 -0.00000000000E+00 -0.45593999997E+02  0.45594000000E+02  0.51100000000E-03 0. -1.
    9900012    2    1    2    0    0 -0.26647327748E+02  0.13411566316E+02  0.11259205536E+02  0.59301954518E+02  0.50000019133E+02 0.  0.
         12    1    1    2    0    0  0.26647327748E+02 -0.13411566316E+02 -0.11259205536E+02  0.31886045482E+02  0.00000000000E+00 0. -1.
         11    1    3    3    0    0 -0.63024240151E+01 -0.45958901715E+01  0.61262820322E+00  0.78241976273E+01  0.51100000000E-03 0. -1.
        -11    1    3    3    0    0  0.67747419825E+01  0.13808163258E+01  0.17605772243E+02  0.18914729689E+02  0.51100000000E-03 0.  1.
        -12    1    3    3    0    0 -0.27119645715E+02  0.16626640162E+02 -0.69591949103E+01  0.32563027202E+02  0.00000000000E+00 0.  1.
</event>
<event>
 7    1  0.7457761E-012  0.5930175E+02  0.7816164E-02  0.1266605E+00
        -11   -1    0    0    0    0  0.00000000000E+00  0.00000000000E+00  0.45593999997E+02  0.45594000000E+02  0.51100000000E-03 0.  1.
         11   -1    0    0    0    0 -0.00000000000E+00 -0.00000000000E+00 -0.45593999997E+02  0.45594000000E+02  0.51100000000E-03 0. -1.
    9900012    2    1    2    0    0  0.28340288833E+02  0.11066570980E+02  0.95442230970E+01  0.59301746552E+02  0.49999639851E+02 0.  0.
         12    1    1    2    0    0 -0.28340288833E+02 -0.11066570980E+02 -0.95442230970E+01  0.31886253448E+02  0.00000000000E+00 0. -1.
         11    1    3    3    0    0  0.12036327348E+02  0.69916831467E+01  0.26932278359E+02  0.30316735100E+02  0.51100000000E-03 0. -1.
        -11    1    3    3    0    0  0.29349745232E+01  0.83513453658E+01 -0.45040441296E+01  0.99320420183E+01  0.51100000000E-03 0.  1.
         12    1    3    3    0    0  0.13368986962E+02 -0.42764575327E+01 -0.12884011132E+02  0.19052969435E+02  0.00000000000E+00 0. -1.
</event>
<event>
 7    1  0.7457761E-012  0.5930179E+02  0.7816164E-02  0.1266605E+00
        -11   -1    0    0    0    0  0.00000000000E+00  0.00000000000E+00  0.45593999997E+02  0.45594000000E+02  0.51100000000E-03 0. -1.
         11   -1    0    0    0    0 -0.00000000000E+00 -0.00000000000E+00 -0.45593999997E+02  0.45594000000E+02  0.51100000000E-03 0.  1.
    9900012    2    1    2    0    0 -0.69601574745E+01  0.30880769727E+02  0.38294454215E+01  0.59301790077E+02  0.49999719230E+02 0.  0.
         12    1    1    2    0    0  0.69601574745E+01 -0.30880769727E+02 -0.38294454215E+01  0.31886209923E+02  0.00000000000E+00 0. -1.
         11    1    3    3    0    0 -0.35521950864E+01 -0.97793972150E+01  0.78964395708E+01  0.13061717268E+02  0.51100000000E-03 0. -1.
        -11    1    3    3    0    0 -0.95236765510E+01  0.76289926591E+01 -0.32910367981E+01  0.12638546891E+02  0.51100000000E-03 0.  1.
         12    1    3    3    0    0  0.61157141629E+01  0.33031174283E+02 -0.77595735116E+00  0.33601525919E+02  0.00000000000E+00 0. -1.
</event>
<event>
 7    1  0.7457761E-012  0.5930209E+02  0.7816164E-02  0.1266604E+00
        -11   -1    0    0    0    0  0.00000000000E+00  0.00000000000E+00  0.45593999997E+02  0.45594000000E+02  0.51100000000E-03 0.  1.
         11   -1    0    0    0    0 -0.00000000000E+00 -0.00000000000E+00 -0.45593999997E+02  0.45594000000E+02  0.51100000000E-03 0. -1.
    9900012    2    1    2    0    0  0.10145375529E+02  0.28847410813E+02  0.90337869497E+01  0.59302093052E+02  0.50000271784E+02 0.  0.
         12    1    1    2    0    0 -0.10145375529E+02 -0.28847410813E+02 -0.90337869497E+01  0.31885906948E+02  0.00000000000E+00 0. -1.
         11    1    3    3    0    0  0.75253890977E+01  0.52351612728E+01 -0.12886117521E+02  0.15814247363E+02  0.51100000000E-03 0. -1.
        -11    1    3    3    0    0  0.11287613988E+02  0.25590216007E+02  0.12824483289E+02  0.30769087681E+02  0.51100000000E-03 0.  1.
        -12    1    3    3    0    0 -0.86676275567E+01 -0.19779664670E+01  0.90954211823E+01  0.12718758009E+02  0.00000000000E+00 0.  1.
</event>
<event>
 7    1  0.7457761E-012  0.5930194E+02  0.7816164E-02  0.1266605E+00
        -11   -1    0    0    0    0  0.00000000000E+00  0.00000000000E+00  0.45593999997E+02  0.45594000000E+02  0.51100000000E-03 0. -1.
         11   -1    0    0    0    0 -0.00000000000E+00 -0.00000000000E+00 -0.45593999997E+02  0.45594000000E+02  0.51100000000E-03 0.  1.
    9900012    2    1    2    0    0  0.24640144273E+02 -0.19884189663E+02  0.37687036736E+01  0.59301939790E+02  0.49999992272E+02 0.  0.
         12    1    1    2    0    0 -0.24640144273E+02  0.19884189663E+02 -0.37687036736E+01  0.31886060210E+02  0.00000000000E+00 0. -1.
         11    1    3    3    0    0  0.85380346351E+01  0.96356812590E+00 -0.18455299970E+02  0.20357421158E+02  0.51100000000E-03 0. -1.
        -11    1    3    3    0    0  0.16805884110E+00 -0.11967788514E+02  0.15318109648E+02  0.19439667928E+02  0.51100000000E-03 0.  1.
        -12    1    3    3    0    0  0.15934050796E+02 -0.88799692742E+01  0.69058939953E+01  0.19504850704E+02  0.00000000000E+00 0.  1.
</event>
<event>
 7    1  0.7457761E-012  0.5930194E+02  0.7816164E-02  0.1266605E+00
        -11   -1    0    0    0    0  0.00000000000E+00  0.00000000000E+00  0.45593999997E+02  0.45594000000E+02  0.51100000000E-03 0. -1.
         11   -1    0    0    0    0 -0.00000000000E+00 -0.00000000000E+00 -0.45593999997E+02  0.45594000000E+02  0.51100000000E-03 0.  1.
    9900012    2    1    2    0    0  0.22406432491E+01  0.30900341510E+02 -0.75411797613E+01  0.59301937531E+02  0.49999988151E+02 0.  0.
         12    1    1    2    0    0 -0.22406432491E+01 -0.30900341510E+02  0.75411797613E+01  0.31886062469E+02  0.00000000000E+00 0. -1.
         11    1    3    3    0    0  0.12067026078E+02  0.12724913698E+02  0.64693329518E+01  0.18691945220E+02  0.51100000000E-03 0. -1.
        -11    1    3    3    0    0 -0.21215716757E+02  0.94428224625E+01 -0.11932216519E+02  0.26108453131E+02  0.51100000000E-03 0.  1.
        -12    1    3    3    0    0  0.11389333928E+02  0.87326053495E+01 -0.20782961940E+01  0.14501539180E+02  0.00000000000E+00 0.  1.
</event>
<event>
 7    1  0.7457761E-012  0.5930190E+02  0.7816164E-02  0.1266605E+00
        -11   -1    0    0    0    0  0.00000000000E+00  0.00000000000E+00  0.45593999997E+02  0.45594000000E+02  0.51100000000E-03 0.  1.
         11   -1    0    0    0    0 -0.00000000000E+00 -0.00000000000E+00 -0.45593999997E+02  0.45594000000E+02  0.51100000000E-03 0. -1.
    9900012    2    1    2    0    0  0.19382172253E+02  0.19010134536E+01  0.25247596856E+02  0.59301896437E+02  0.49999913206E+02 0.  0.
         12    1    1    2    0    0 -0.19382172253E+02 -0.19010134536E+01 -0.25247596856E+02  0.31886103563E+02  0.00000000000E+00 0. -1.
         11    1    3    3    0    0  0.60361621381E+01  0.11767400264E+02  0.10724527394E+02  0.17027109279E+02  0.51100000000E-03 0. -1.
        -11    1    3    3    0    0  0.24446568177E+02 -0.13618899448E+02  0.10191243345E+02  0.29782050953E+02  0.51100000000E-03 0.  1.
        -12    1    3    3    0    0 -0.11100558062E+02  0.37525126378E+01  0.43318261165E+01  0.12492736205E+02  0.00000000000E+00 0.  1.
</event>
<event>
 7    1  0.7457761E-012  0.5930195E+02  0.7816164E-02  0.1266605E+00
        -11   -1    0    0    0    0  0.00000000000E+00  0.00000000000E+00  0.45593999997E+02  0.45594000000E+02  0.51100000000E-03 0.  1.
         11   -1    0    0    0    0 -0.00000000000E+00 -0.00000000000E+00 -0.45593999997E+02  0.45594000000E+02  0.51100000000E-03 0. -1.
    9900012    2    1    2    0    0  0.24975959849E+01 -0.27023699795E+02  0.16739223913E+02  0.59301953624E+02  0.50000017501E+02 0.  0.
         12    1    1    2    0    0 -0.24975959849E+01  0.27023699795E+02 -0.16739223913E+02  0.31886046376E+02  0.00000000000E+00 0. -1.
         11    1    3    3    0    0 -0.42509617513E+01 -0.25066844825E+02 -0.69641316809E+01  0.26361269234E+02  0.51100000000E-03 0. -1.
        -11    1    3    3    0    0  0.98249107359E+01 -0.88738188288E+01  0.21149185030E+02  0.24951183525E+02  0.51100000000E-03 0.  1.
        -12    1    3    3    0    0 -0.30763529997E+01  0.69169638591E+01  0.25541705636E+01  0.79895008652E+01  0.00000000000E+00 0.  1.
</event>
<event>
 7    1  0.7457761E-012  0.5930192E+02  0.7816164E-02  0.1266605E+00
        -11   -1    0    0    0    0  0.00000000000E+00  0.00000000000E+00  0.45593999997E+02  0.45594000000E+02  0.51100000000E-03 0.  1.
         11   -1    0    0    0    0 -0.00000000000E+00 -0.00000000000E+00 -0.45593999997E+02  0.45594000000E+02  0.51100000000E-03 0. -1.
    9900012    2    1    2    0    0  0.51470196620E+01 -0.30779649308E+02  0.65454879942E+01  0.59301920969E+02  0.49999957946E+02 0.  0.
         12    1    1    2    0    0 -0.51470196620E+01  0.30779649308E+02 -0.65454879942E+01  0.31886079031E+02  0.00000000000E+00 0. -1.
         11    1    3    3    0    0  0.82525700144E+01 -0.28029984609E+02 -0.57267220234E+00  0.29225210055E+02  0.51100000000E-03 0. -1.
        -11    1    3    3    0    0  0.25566474096E+01  0.12206678882E+02 -0.23774648213E+00  0.12473811725E+02  0.51100000000E-03 0.  1.
        -12    1    3    3    0    0 -0.56621977621E+01 -0.14956343580E+02  0.73559066787E+01  0.17602899189E+02  0.00000000000E+00 0.  1.
</event>
<event>
 7    1  0.7457761E-012  0.5930193E+02  0.7816164E-02  0.1266605E+00
        -11   -1    0    0    0    0  0.00000000000E+00  0.00000000000E+00  0.45593999997E+02  0.45594000000E+02  0.51100000000E-03 0.  1.
         11   -1    0    0    0    0 -0.00000000000E+00 -0.00000000000E+00 -0.45593999997E+02  0.45594000000E+02  0.51100000000E-03 0. -1.
    9900012    2    1    2    0    0 -0.64997538106E+01 -0.99173390371E+01  0.29599340670E+02  0.59301931236E+02  0.49999976670E+02 0.  0.
         12    1    1    2    0    0  0.64997538106E+01  0.99173390371E+01 -0.29599340670E+02  0.31886068764E+02  0.00000000000E+00 0. -1.
         11    1    3    3    0    0  0.83502077314E+01 -0.46661808692E+01 -0.47823456611E+01  0.10694393080E+02  0.51100000000E-03 0. -1.
        -11    1    3    3    0    0 -0.20332408592E+02 -0.10259410192E+02  0.34311231684E+02  0.41181585163E+02  0.51100000000E-03 0.  1.
        -12    1    3    3    0    0  0.54824470501E+01  0.50082520239E+01  0.70454646918E-01  0.74259529926E+01  0.00000000000E+00 0.  1.
</event>
<event>
 7    1  0.7457761E-012  0.5930213E+02  0.7816164E-02  0.1266604E+00
        -11   -1    0    0    0    0  0.00000000000E+00  0.00000000000E+00  0.45593999997E+02  0.45594000000E+02  0.51100000000E-03 0. -1.
         11   -1    0    0    0    0 -0.00000000000E+00 -0.00000000000E+00 -0.45593999997E+02  0.45594000000E+02  0.51100000000E-03 0.  1.
    9900012    2    1    2    0    0 -0.21591799969E+02  0.15953484400E+02 -0.17204329924E+02  0.59302133875E+02  0.50000346235E+02 0.  0.
         12    1    1    2    0    0  0.21591799969E+02 -0.15953484400E+02  0.17204329924E+02  0.31885866125E+02  0.00000000000E+00 0. -1.
         11    1    3    3    0    0 -0.81837285646E+01  0.25295693872E+01  0.30171845000E+01  0.90816043225E+01  0.51100000000E-03 0. -1.
        -11    1    3    3    0    0 -0.33596822024E+01  0.26960125810E+02 -0.19321131314E+02  0.33338295753E+02  0.51100000000E-03 0.  1.
        -12    1    3    3    0    0 -0.10048389202E+02 -0.13536210798E+02 -0.90038310976E+00  0.16882233800E+02  0.00000000000E+00 0.  1.
</event>
<event>
 7    1  0.7457761E-012  0.5930195E+02  0.7816164E-02  0.1266605E+00
        -11   -1    0    0    0    0  0.00000000000E+00  0.00000000000E+00  0.45593999997E+02  0.45594000000E+02  0.51100000000E-03 0. -1.
         11   -1    0    0    0    0 -0.00000000000E+00 -0.00000000000E+00 -0.45593999997E+02  0.45594000000E+02  0.51100000000E-03 0.  1.
    9900012    2    1    2    0    0 -0.27101260213E+02 -0.53457860622E+01 -0.15926856563E+02  0.59301945153E+02  0.50000002052E+02 0.  0.
         12    1    1    2    0    0  0.27101260213E+02  0.53457860622E+01  0.15926856563E+02  0.31886054847E+02  0.00000000000E+00 0. -1.
         11    1    3    3    0    0  0.11372154584E+02  0.10136714828E+01  0.67437257597E+01  0.13260138278E+02  0.51100000000E-03 0. -1.
        -11    1    3    3    0    0 -0.18012539043E+02  0.46177758543E+00 -0.13908138338E+02  0.22761834583E+02  0.51100000000E-03 0.  1.
         12    1    3    3    0    0 -0.20460875754E+02 -0.68212351304E+01 -0.87624439846E+01  0.23279972292E+02  0.00000000000E+00 0. -1.
</event>
<event>
 7    1  0.7457761E-012  0.5930194E+02  0.7816164E-02  0.1266605E+00
        -11   -1    0    0    0    0  0.00000000000E+00  0.00000000000E+00  0.45593999997E+02  0.45594000000E+02  0.51100000000E-03 0. -1.
         11   -1    0    0    0    0 -0.00000000000E+00 -0.00000000000E+00 -0.45593999997E+02  0.45594000000E+02  0.51100000000E-03 0.  1.
    9900012    2    1    2    0    0 -0.10351186607E+02  0.19457591615E+02 -0.23042910195E+02  0.59301942767E+02  0.49999997701E+02 0.  0.
         12    1    1    2    0    0  0.10351186607E+02 -0.19457591615E+02  0.23042910195E+02  0.31886057233E+02  0.00000000000E+00 0. -1.
         11    1    3    3    0    0  0.23255244715E+01  0.13129592141E+01  0.29228687005E+01  0.39591776503E+01  0.51100000000E-03 0. -1.
        -11    1    3    3    0    0 -0.16004140520E+02 -0.10466028646E+02 -0.51467354225E+01  0.19803008740E+02  0.51100000000E-03 0.  1.
        -12    1    3    3    0    0  0.33274294411E+01  0.28610661046E+02 -0.20819043473E+02  0.35539756377E+02  0.00000000000E+00 0.  1.
</event>
<event>
 7    1  0.7457761E-012  0.5930191E+02  0.7816164E-02  0.1266605E+00
        -11   -1    0    0    0    0  0.00000000000E+00  0.00000000000E+00  0.45593999997E+02  0.45594000000E+02  0.51100000000E-03 0. -1.
         11   -1    0    0    0    0 -0.00000000000E+00 -0.00000000000E+00 -0.45593999997E+02  0.45594000000E+02  0.51100000000E-03 0.  1.
    9900012    2    1    2    0    0  0.13264046817E+02 -0.28687703794E+02 -0.42194440758E+01  0.59301905927E+02  0.49999930514E+02 0.  0.
         12    1    1    2    0    0 -0.13264046817E+02  0.28687703794E+02  0.42194440758E+01  0.31886094073E+02  0.00000000000E+00 0. -1.
         11    1    3    3    0    0  0.74037947928E+01  0.55678970429E+00  0.78871688618E+01  0.10832064670E+02  0.51100000000E-03 0. -1.
        -11    1    3    3    0    0 -0.16612559158E+01 -0.36161488400E+02 -0.12350275114E+02  0.38248428859E+02  0.51100000000E-03 0.  1.
        -12    1    3    3    0    0  0.75215079397E+01  0.69169949016E+01  0.24366217606E+00  0.10221412398E+02  0.00000000000E+00 0.  1.
</event>
<event>
 7    1  0.7457761E-012  0.5930196E+02  0.7816164E-02  0.1266605E+00
        -11   -1    0    0    0    0  0.00000000000E+00  0.00000000000E+00  0.45593999997E+02  0.45594000000E+02  0.51100000000E-03 0.  1.
         11   -1    0    0    0    0 -0.00000000000E+00 -0.00000000000E+00 -0.45593999997E+02  0.45594000000E+02  0.51100000000E-03 0. -1.
    9900012    2    1    2    0    0  0.70459577731E+01  0.55544112678E+01  0.30597753547E+02  0.59301960302E+02  0.50000029681E+02 0.  0.
         12    1    1    2    0    0 -0.70459577731E+01 -0.55544112678E+01 -0.30597753547E+02  0.31886039698E+02  0.00000000000E+00 0. -1.
         11    1    3    3    0    0 -0.33058786792E+01  0.23669535978E+02  0.21685877136E+02  0.32271551476E+02  0.51100000000E-03 0. -1.
        -11    1    3    3    0    0 -0.21837009698E+01 -0.55690952814E+01  0.69762516356E+01  0.91897475114E+01  0.51100000000E-03 0.  1.
         12    1    3    3    0    0  0.12535537422E+02 -0.12546029429E+02  0.19356247760E+01  0.17840661315E+02  0.00000000000E+00 0. -1.
</event>
<event>
 7    1  0.7457761E-012  0.5930195E+02  0.7816164E-02  0.1266605E+00
        -11   -1    0    0    0    0  0.00000000000E+00  0.00000000000E+00  0.45593999997E+02  0.45594000000E+02  0.51100000000E-03 0.  1.
         11   -1    0    0    0    0 -0.00000000000E+00 -0.00000000000E+00 -0.45593999997E+02  0.45594000000E+02  0.51100000000E-03 0. -1.
    9900012    2    1    2    0    0 -0.22641186033E+02 -0.10802913236E+02 -0.19682327428E+02  0.59301948938E+02  0.50000008955E+02 0.  0.
         12    1    1    2    0    0  0.22641186033E+02  0.10802913236E+02  0.19682327428E+02  0.31886051062E+02  0.00000000000E+00 0. -1.
         11    1    3    3    0    0 -0.23504411480E+02 -0.13120214323E+02 -0.28235180462E+02  0.39010547278E+02  0.51100000000E-03 0. -1.
        -11    1    3    3    0    0 -0.49437610939E+01 -0.45956531958E+01  0.90024956023E+01  0.11251921142E+02  0.51100000000E-03 0.  1.
         12    1    3    3    0    0  0.58069865412E+01  0.69129542827E+01 -0.44964256816E+00  0.90394805184E+01  0.00000000000E+00 0. -1.
</event>
<event>
 7    1  0.7457761E-012  0.5930193E+02  0.7816164E-02  0.1266605E+00
        -11   -1    0    0    0    0  0.00000000000E+00  0.00000000000E+00  0.45593999997E+02  0.45594000000E+02  0.51100000000E-03 0. -1.
         11   -1    0    0    0    0 -0.00000000000E+00 -0.00000000000E+00 -0.45593999997E+02  0.45594000000E+02  0.51100000000E-03 0.  1.
    9900012    2    1    2    0    0 -0.14596656940E+02 -0.28013936165E+02 -0.43449530013E+01  0.59301927337E+02  0.49999969560E+02 0.  0.
         12    1    1    2    0    0  0.14596656940E+02  0.28013936165E+02  0.43449530013E+01  0.31886072663E+02  0.00000000000E+00 0. -1.
         11    1    3    3    0    0  0.11094323231E+01 -0.27724191223E+01  0.11601295759E+02  0.11979449546E+02  0.51100000000E-03 0. -1.
        -11    1    3    3    0    0 -0.17209082716E+02 -0.25196318569E+02 -0.24192974017E+02  0.38939786715E+02  0.51100000000E-03 0.  1.
        -12    1    3    3    0    0  0.15029934526E+01 -0.45198473609E-01  0.82467252569E+01  0.83826910764E+01  0.00000000000E+00 0.  1.
</event>
<event>
 7    1  0.7457761E-012  0.5930194E+02  0.7816164E-02  0.1266605E+00
        -11   -1    0    0    0    0  0.00000000000E+00  0.00000000000E+00  0.45593999997E+02  0.45594000000E+02  0.51100000000E-03 0.  1.
         11   -1    0    0    0    0 -0.00000000000E+00 -0.00000000000E+00 -0.45593999997E+02  0.45594000000E+02  0.51100000000E-03 0. -1.
    9900012    2    1    2    0    0  0.24672615627E+02 -0.12015421423E+02  0.16236138542E+02  0.59301944920E+02  0.50000001627E+02 0.  0.
         12    1    1    2    0    0 -0.24672615627E+02  0.12015421423E+02 -0.16236138542E+02  0.31886055080E+02  0.00000000000E+00 0. -1.
         11    1    3    3    0    0  0.81850017245E+01 -0.50289645823E+01 -0.13401609900E+02  0.16489023203E+02  0.51100000000E-03 0. -1.
        -11    1    3    3    0    0  0.21309398378E+02  0.77221749410E+00  0.17283648507E+02  0.27448338476E+02  0.51100000000E-03 0.  1.
         12    1    3    3    0    0 -0.48217844762E+01 -0.77586743347E+01  0.12354099935E+02  0.15364583241E+02  0.00000000000E+00 0. -1.
</event>
<event>
 7    1  0.7457761E-012  0.5930199E+02  0.7816164E-02  0.1266605E+00
        -11   -1    0    0    0    0  0.00000000000E+00  0.00000000000E+00  0.45593999997E+02  0.45594000000E+02  0.51100000000E-03 0.  1.
         11   -1    0    0    0    0 -0.00000000000E+00 -0.00000000000E+00 -0.45593999997E+02  0.45594000000E+02  0.51100000000E-03 0. -1.
    9900012    2    1    2    0    0  0.87572370329E+00 -0.87481896480E+01  0.30649956210E+02  0.59301991630E+02  0.50000086815E+02 0.  0.
         12    1    1    2    0    0 -0.87572370329E+00  0.87481896480E+01 -0.30649956210E+02  0.31886008370E+02  0.00000000000E+00 0. -1.
         11    1    3    3    0    0  0.30811986637E+01 -0.11444339099E+02 -0.85973734904E+01  0.14641772906E+02  0.51100000000E-03 0. -1.
        -11    1    3    3    0    0  0.41484344709E+01  0.83990280126E+01  0.81650039725E+01  0.12426603327E+02  0.51100000000E-03 0.  1.
         12    1    3    3    0    0 -0.63539094313E+01 -0.57028785613E+01  0.31082325728E+02  0.32233615397E+02  0.00000000000E+00 0. -1.
</event>
<event>
 7    1  0.7457761E-012  0.5930192E+02  0.7816164E-02  0.1266605E+00
        -11   -1    0    0    0    0  0.00000000000E+00  0.00000000000E+00  0.45593999997E+02  0.45594000000E+02  0.51100000000E-03 0.  1.
         11   -1    0    0    0    0 -0.00000000000E+00 -0.00000000000E+00 -0.45593999997E+02  0.45594000000E+02  0.51100000000E-03 0. -1.
    9900012    2    1    2    0    0 -0.13429739377E+02 -0.12641008417E+02  0.26010937563E+02  0.59301923627E+02  0.49999962795E+02 0.  0.
         12    1    1    2    0    0  0.13429739377E+02  0.12641008417E+02 -0.26010937563E+02  0.31886076373E+02  0.00000000000E+00 0. -1.
         11    1    3    3    0    0 -0.93975299702E+01  0.91611701631E+01  0.39593629969E+01  0.13708288146E+02  0.51100000000E-03 0. -1.
        -11    1    3    3    0    0  0.57636058775E+01 -0.27737835463E+02  0.17289125735E+02  0.33189162957E+02  0.51100000000E-03 0.  1.
        -12    1    3    3    0    0 -0.97958152846E+01  0.59356568832E+01  0.47624488311E+01  0.12404472524E+02  0.00000000000E+00 0.  1.
</event>
<event>
 7    1  0.7457761E-012  0.5930195E+02  0.7816164E-02  0.1266605E+00
        -11   -1    0    0    0    0  0.00000000000E+00  0.00000000000E+00  0.45593999997E+02  0.45594000000E+02  0.51100000000E-03 0. -1.
         11   -1    0    0    0    0 -0.00000000000E+00 -0.00000000000E+00 -0.45593999997E+02  0.45594000000E+02  0.51100000000E-03 0.  1.
    9900012    2    1    2    0    0 -0.27995857378E+02 -0.81370445455E+01 -0.12912809517E+02  0.59301950168E+02  0.50000011199E+02 0.  0.
         12    1    1    2    0    0  0.27995857378E+02  0.81370445455E+01  0.12912809517E+02  0.31886049832E+02  0.00000000000E+00 0. -1.
         11    1    3    3    0    0 -0.13055255915E+02 -0.78628083277E+00  0.69756058121E+01  0.14822854693E+02  0.51100000000E-03 0. -1.
        -11    1    3    3    0    0 -0.12127000507E+01  0.12199422883E+02 -0.16186825024E+02  0.20305414665E+02  0.51100000000E-03 0.  1.
        -12    1    3    3    0    0 -0.13727901412E+02 -0.19550186596E+02 -0.37015903055E+01  0.24173680810E+02  0.00000000000E+00 0.  1.
</event>
<event>
 7    1  0.7457761E-012  0.5930195E+02  0.7816164E-02  0.1266605E+00
        -11   -1    0    0    0    0  0.00000000000E+00  0.00000000000E+00  0.45593999997E+02  0.45594000000E+02  0.51100000000E-03 0.  1.
         11   -1    0    0    0    0 -0.00000000000E+00 -0.00000000000E+00 -0.45593999997E+02  0.45594000000E+02  0.51100000000E-03 0. -1.
    9900012    2    1    2    0    0  0.11970066479E+02 -0.25316526757E+02  0.15248311267E+02  0.59301952659E+02  0.50000015741E+02 0.  0.
         12    1    1    2    0    0 -0.11970066479E+02  0.25316526757E+02 -0.15248311267E+02  0.31886047341E+02  0.00000000000E+00 0. -1.
         11    1    3    3    0    0  0.17148520351E+02 -0.68879603500E+01  0.23853376395E+02  0.30174481168E+02  0.51100000000E-03 0. -1.
        -11    1    3    3    0    0  0.61764983618E+01 -0.88818377806E+00 -0.48375427016E+01  0.78955571106E+01  0.51100000000E-03 0.  1.
         12    1    3    3    0    0 -0.11354952234E+02 -0.17540382629E+02 -0.37675224272E+01  0.21231914381E+02  0.00000000000E+00 0. -1.
</event>
<event>
 7    1  0.7457761E-012  0.5930195E+02  0.7816164E-02  0.1266605E+00
        -11   -1    0    0    0    0  0.00000000000E+00  0.00000000000E+00  0.45593999997E+02  0.45594000000E+02  0.51100000000E-03 0.  1.
         11   -1    0    0    0    0 -0.00000000000E+00 -0.00000000000E+00 -0.45593999997E+02  0.45594000000E+02  0.51100000000E-03 0. -1.
    9900012    2    1    2    0    0  0.59033469384E+01 -0.21386191088E+02  0.22901992504E+02  0.59301953914E+02  0.50000018031E+02 0.  0.
         12    1    1    2    0    0 -0.59033469384E+01  0.21386191088E+02 -0.22901992504E+02  0.31886046086E+02  0.00000000000E+00 0. -1.
         11    1    3    3    0    0  0.89925973300E+01 -0.27506683402E+02 -0.10655982926E+01  0.28958935383E+02  0.51100000000E-03 0. -1.
        -11    1    3    3    0    0 -0.70278688016E+01  0.62061880018E+01  0.43537496080E+01  0.10337448685E+02  0.51100000000E-03 0.  1.
         12    1    3    3    0    0  0.39386184100E+01 -0.85695688261E-01  0.19613841188E+02  0.20005569847E+02  0.00000000000E+00 0. -1.
</event>
<event>
 7    1  0.7457761E-012  0.5930197E+02  0.7816164E-02  0.1266605E+00
        -11   -1    0    0    0    0  0.00000000000E+00  0.00000000000E+00  0.45593999997E+02  0.45594000000E+02  0.51100000000E-03 0.  1.
         11   -1    0    0    0    0 -0.00000000000E+00 -0.00000000000E+00 -0.45593999997E+02  0.45594000000E+02  0.51100000000E-03 0. -1.
    9900012    2    1    2    0    0 -0.15674294538E+01  0.26305001248E+02 -0.17952958608E+02  0.59301974086E+02  0.50000054820E+02 0.  0.
         12    1    1    2    0    0  0.15674294538E+01 -0.26305001248E+02  0.17952958608E+02  0.31886025914E+02  0.00000000000E+00 0. -1.
         11    1    3    3    0    0 -0.10431249393E+02 -0.12253611110E+01  0.25503946193E+00  0.10506070585E+02  0.51100000000E-03 0. -1.
        -11    1    3    3    0    0  0.38387421374E+01  0.34723648955E+02 -0.19368148967E+02  0.39944873671E+02  0.51100000000E-03 0.  1.
        -12    1    3    3    0    0  0.50250778019E+01 -0.71932865954E+01  0.11601508964E+01  0.88510298305E+01  0.00000000000E+00 0.  1.
</event>
<event>
 7    1  0.7457761E-012  0.5930195E+02  0.7816164E-02  0.1266605E+00
        -11   -1    0    0    0    0  0.00000000000E+00  0.00000000000E+00  0.45593999997E+02  0.45594000000E+02  0.51100000000E-03 0.  1.
         11   -1    0    0    0    0 -0.00000000000E+00 -0.00000000000E+00 -0.45593999997E+02  0.45594000000E+02  0.51100000000E-03 0. -1.
    9900012    2    1    2    0    0 -0.19654638847E+02 -0.13466418423E+01  0.25071939635E+02  0.59301946160E+02  0.50000003888E+02 0.  0.
         12    1    1    2    0    0  0.19654638847E+02  0.13466418423E+01 -0.25071939635E+02  0.31886053840E+02  0.00000000000E+00 0. -1.
         11    1    3    3    0    0 -0.19503797487E+02  0.42848071554E+00  0.30126345090E+02  0.35891201998E+02  0.51100000000E-03 0. -1.
        -11    1    3    3    0    0 -0.63707130010E+01 -0.10408101888E+02 -0.22727863788E+01  0.12412901645E+02  0.51100000000E-03 0.  1.
         12    1    3    3    0    0  0.62198716403E+01  0.86329793303E+01 -0.27816190768E+01  0.10997842517E+02  0.00000000000E+00 0. -1.
</event>
<event>
 7    1  0.7457761E-012  0.5930193E+02  0.7816164E-02  0.1266605E+00
        -11   -1    0    0    0    0  0.00000000000E+00  0.00000000000E+00  0.45593999997E+02  0.45594000000E+02  0.51100000000E-03 0.  1.
         11   -1    0    0    0    0 -0.00000000000E+00 -0.00000000000E+00 -0.45593999997E+02  0.45594000000E+02  0.51100000000E-03 0. -1.
    9900012    2    1    2    0    0  0.31366305638E+02  0.47557667474E+01  0.32029416114E+01  0.59301932796E+02  0.49999979517E+02 0.  0.
         12    1    1    2    0    0 -0.31366305638E+02 -0.47557667474E+01 -0.32029416114E+01  0.31886067204E+02  0.00000000000E+00 0. -1.
         11    1    3    3    0    0  0.42664684066E+00 -0.31345226979E+01 -0.17377988578E+01  0.36093219864E+01  0.51100000000E-03 0. -1.
        -11    1    3    3    0    0  0.26720174577E+02  0.23870908970E+02 -0.53430988732E+01  0.36226188460E+02  0.51100000000E-03 0.  1.
        -12    1    3    3    0    0  0.42194842211E+01 -0.15980619525E+02  0.10283839342E+02  0.19466422350E+02  0.00000000000E+00 0.  1.
</event>
<event>
 7    1  0.7457761E-012  0.5930193E+02  0.7816164E-02  0.1266605E+00
        -11   -1    0    0    0    0  0.00000000000E+00  0.00000000000E+00  0.45593999997E+02  0.45594000000E+02  0.51100000000E-03 0.  1.
         11   -1    0    0    0    0 -0.00000000000E+00 -0.00000000000E+00 -0.45593999997E+02  0.45594000000E+02  0.51100000000E-03 0. -1.
    9900012    2    1    2    0    0  0.68362376862E+01  0.80090564950E+01  0.30097219090E+02  0.59301925789E+02  0.49999966737E+02 0.  0.
         12    1    1    2    0    0 -0.68362376862E+01 -0.80090564950E+01 -0.30097219090E+02  0.31886074211E+02  0.00000000000E+00 0. -1.
         11    1    3    3    0    0  0.10920048039E+02  0.19704880882E+02  0.11811419466E+02  0.25436969352E+02  0.51100000000E-03 0. -1.
        -11    1    3    3    0    0  0.64664482388E+00 -0.15548816383E+02  0.21829984455E+02  0.26809178690E+02  0.51100000000E-03 0.  1.
         12    1    3    3    0    0 -0.47304551766E+01  0.38529919963E+01 -0.35441848314E+01  0.70557777474E+01  0.00000000000E+00 0. -1.
</event>
<event>
 7    1  0.7457761E-012  0.5930194E+02  0.7816164E-02  0.1266605E+00
        -11   -1    0    0    0    0  0.00000000000E+00  0.00000000000E+00  0.45593999997E+02  0.45594000000E+02  0.51100000000E-03 0.  1.
         11   -1    0    0    0    0 -0.00000000000E+00 -0.00000000000E+00 -0.45593999997E+02  0.45594000000E+02  0.51100000000E-03 0. -1.
    9900012    2    1    2    0    0 -0.12634992692E+02 -0.77784815699E+01  0.28223623949E+02  0.59301940904E+02  0.49999994304E+02 0.  0.
         12    1    1    2    0    0  0.12634992692E+02  0.77784815699E+01 -0.28223623949E+02  0.31886059096E+02  0.00000000000E+00 0. -1.
         11    1    3    3    0    0 -0.28839815924E+01 -0.20200680068E+02  0.17777395693E+02  0.27063270736E+02  0.51100000000E-03 0. -1.
        -11    1    3    3    0    0 -0.14294447368E+02  0.17002654489E+02  0.12473965462E+02  0.25475896448E+02  0.51100000000E-03 0.  1.
         12    1    3    3    0    0  0.45434362683E+01 -0.45804559913E+01 -0.20277372068E+01  0.67627737203E+01  0.00000000000E+00 0. -1.
</event>
<event>
 7    1  0.7457761E-012  0.5930195E+02  0.7816164E-02  0.1266605E+00
        -11   -1    0    0    0    0  0.00000000000E+00  0.00000000000E+00  0.45593999997E+02  0.45594000000E+02  0.51100000000E-03 0.  1.
         11   -1    0    0    0    0 -0.00000000000E+00 -0.00000000000E+00 -0.45593999997E+02  0.45594000000E+02  0.51100000000E-03 0. -1.
    9900012    2    1    2    0    0 -0.87756685519E+01 -0.30092787834E+02  0.58422455486E+01  0.59301951778E+02  0.50000014135E+02 0.  0.
         12    1    1    2    0    0  0.87756685519E+01  0.30092787834E+02 -0.58422455486E+01  0.31886048222E+02  0.00000000000E+00 0. -1.
         11    1    3    3    0    0 -0.63465317407E+01 -0.32336612374E+02 -0.93578269689E+01  0.34256443056E+02  0.51100000000E-03 0. -1.
        -11    1    3    3    0    0  0.74818433857E+01 -0.35161064234E+01  0.80287266917E+01  0.11523950598E+02  0.51100000000E-03 0.  1.
         12    1    3    3    0    0 -0.99109801969E+01  0.57599309638E+01  0.71713458258E+01  0.13521558125E+02  0.00000000000E+00 0. -1.
</event>
<event>
 7    1  0.7457761E-012  0.5930194E+02  0.7816164E-02  0.1266605E+00
        -11   -1    0    0    0    0  0.00000000000E+00  0.00000000000E+00  0.45593999997E+02  0.45594000000E+02  0.51100000000E-03 0.  1.
         11   -1    0    0    0    0 -0.00000000000E+00 -0.00000000000E+00 -0.45593999997E+02  0.45594000000E+02  0.51100000000E-03 0. -1.
    9900012    2    1    2    0    0 -0.18478715862E+02  0.35012862151E+01  0.25748762852E+02  0.59301941393E+02  0.49999995195E+02 0.  0.
         12    1    1    2    0    0  0.18478715862E+02 -0.35012862151E+01 -0.25748762852E+02  0.31886058607E+02  0.00000000000E+00 0. -1.
         11    1    3    3    0    0  0.18394810790E+01 -0.19432089410E+02  0.62068861524E+01  0.20482070829E+02  0.51100000000E-03 0. -1.
        -11    1    3    3    0    0 -0.15882363314E+02  0.77654509080E+01  0.91568667711E+01  0.19909794112E+02  0.51100000000E-03 0.  1.
         12    1    3    3    0    0 -0.44358336275E+01  0.15167924717E+02  0.10385009928E+02  0.18910076452E+02  0.00000000000E+00 0. -1.
</event>
<event>
 7    1  0.7457761E-012  0.5930193E+02  0.7816164E-02  0.1266605E+00
        -11   -1    0    0    0    0  0.00000000000E+00  0.00000000000E+00  0.45593999997E+02  0.45594000000E+02  0.51100000000E-03 0.  1.
         11   -1    0    0    0    0 -0.00000000000E+00 -0.00000000000E+00 -0.45593999997E+02  0.45594000000E+02  0.51100000000E-03 0. -1.
    9900012    2    1    2    0    0  0.19903649467E+02 -0.95087751618E+01  0.23024968775E+02  0.59301933227E+02  0.49999980301E+02 0.  0.
         12    1    1    2    0    0 -0.19903649467E+02  0.95087751618E+01 -0.23024968775E+02  0.31886066773E+02  0.00000000000E+00 0. -1.
         11    1    3    3    0    0  0.24175462091E+01  0.95648296913E+01 -0.22846380100E+01  0.10126700736E+02  0.51100000000E-03 0. -1.
        -11    1    3    3    0    0  0.12648663072E+02 -0.12697856638E+01  0.27790388100E+02  0.30559887175E+02  0.51100000000E-03 0.  1.
         12    1    3    3    0    0  0.48374401859E+01 -0.17803819189E+02 -0.24807813150E+01  0.18615345315E+02  0.00000000000E+00 0. -1.
</event>
<event>
 7    1  0.7457761E-012  0.5930194E+02  0.7816164E-02  0.1266605E+00
        -11   -1    0    0    0    0  0.00000000000E+00  0.00000000000E+00  0.45593999997E+02  0.45594000000E+02  0.51100000000E-03 0. -1.
         11   -1    0    0    0    0 -0.00000000000E+00 -0.00000000000E+00 -0.45593999997E+02  0.45594000000E+02  0.51100000000E-03 0.  1.
    9900012    2    1    2    0    0 -0.17456300678E+02 -0.11447023221E+02 -0.24103192096E+02  0.59301942808E+02  0.49999997776E+02 0.  0.
         12    1    1    2    0    0  0.17456300678E+02  0.11447023221E+02  0.24103192096E+02  0.31886057192E+02  0.00000000000E+00 0. -1.
         11    1    3    3    0    0 -0.47214897499E+01 -0.22213135883E+02 -0.20947436605E+02  0.30895160977E+02  0.51100000000E-03 0.  1.
        -11    1    3    3    0    0  0.34807749748E+01  0.26785771632E+01  0.65226328745E+01  0.78635430896E+01  0.51100000000E-03 0. -1.
        -12    1    3    3    0    0 -0.16215585903E+02  0.80875354993E+01 -0.96783883657E+01  0.20543238742E+02  0.00000000000E+00 0.  1.
</event>
<event>
 7    1  0.7457761E-012  0.5930195E+02  0.7816164E-02  0.1266605E+00
        -11   -1    0    0    0    0  0.00000000000E+00  0.00000000000E+00  0.45593999997E+02  0.45594000000E+02  0.51100000000E-03 0. -1.
         11   -1    0    0    0    0 -0.00000000000E+00 -0.00000000000E+00 -0.45593999997E+02  0.45594000000E+02  0.51100000000E-03 0.  1.
    9900012    2    1    2    0    0 -0.26728433928E+01  0.45832597082E+01 -0.31441532354E+02  0.59301947906E+02  0.50000007073E+02 0.  0.
         12    1    1    2    0    0  0.26728433928E+01 -0.45832597082E+01  0.31441532354E+02  0.31886052094E+02  0.00000000000E+00 0. -1.
         11    1    3    3    0    0 -0.20832898913E+01  0.10826289419E+02 -0.58872727681E+01  0.12498344700E+02  0.51100000000E-03 0.  1.
        -11    1    3    3    0    0  0.14287250022E+02 -0.14896289759E+02 -0.77676003439E+01  0.22053584224E+02  0.51100000000E-03 0. -1.
         12    1    3    3    0    0 -0.14876803524E+02  0.86532600484E+01 -0.17786659242E+02  0.24750018981E+02  0.00000000000E+00 0. -1.
</event>
<event>
 7    1  0.7457761E-012  0.5930192E+02  0.7816164E-02  0.1266605E+00
        -11   -1    0    0    0    0  0.00000000000E+00  0.00000000000E+00  0.45593999997E+02  0.45594000000E+02  0.51100000000E-03 0.  1.
         11   -1    0    0    0    0 -0.00000000000E+00 -0.00000000000E+00 -0.45593999997E+02  0.45594000000E+02  0.51100000000E-03 0. -1.
    9900012    2    1    2    0    0 -0.94961497445E+01  0.10558823626E+02  0.28549195580E+02  0.59301918639E+02  0.49999953696E+02 0.  0.
         12    1    1    2    0    0  0.94961497445E+01 -0.10558823626E+02 -0.28549195580E+02  0.31886081361E+02  0.00000000000E+00 0. -1.
         11    1    3    3    0    0 -0.15413629858E+02  0.16433518568E+02  0.36547822267E+02  0.42934646041E+02  0.51100000000E-03 0.  1.
        -11    1    3    3    0    0  0.47214702133E+01 -0.70214216019E+00 -0.96845167673E+01  0.10796997261E+02  0.51100000000E-03 0. -1.
        -12    1    3    3    0    0  0.11960098997E+01 -0.51725527817E+01  0.16858900797E+01  0.55702753361E+01  0.00000000000E+00 0.  1.
</event>
<event>
 7    1  0.7457761E-012  0.5930195E+02  0.7816164E-02  0.1266605E+00
        -11   -1    0    0    0    0  0.00000000000E+00  0.00000000000E+00  0.45593999997E+02  0.45594000000E+02  0.51100000000E-03 0. -1.
         11   -1    0    0    0    0 -0.00000000000E+00 -0.00000000000E+00 -0.45593999997E+02  0.45594000000E+02  0.51100000000E-03 0.  1.
    9900012    2    1    2    0    0 -0.93417239815E+00 -0.19149548407E+02 -0.25478274848E+02  0.59301947069E+02  0.50000005546E+02 0.  0.
         12    1    1    2    0    0  0.93417239815E+00  0.19149548407E+02  0.25478274848E+02  0.31886052931E+02  0.00000000000E+00 0. -1.
         11    1    3    3    0    0 -0.63823089918E+01 -0.13685127316E+02  0.44091714399E+01  0.15730777818E+02  0.51100000000E-03 0. -1.
        -11    1    3    3    0    0  0.15940628200E+02  0.28222294532E+01 -0.24029858888E+02  0.28974173412E+02  0.51100000000E-03 0.  1.
        -12    1    3    3    0    0 -0.10492491606E+02 -0.82866505445E+01 -0.58575874000E+01  0.14596995838E+02  0.00000000000E+00 0.  1.
</event>
<event>
 7    1  0.7457761E-012  0.5930189E+02  0.7816164E-02  0.1266605E+00
        -11   -1    0    0    0    0  0.00000000000E+00  0.00000000000E+00  0.45593999997E+02  0.45594000000E+02  0.51100000000E-03 0. -1.
         11   -1    0    0    0    0 -0.00000000000E+00 -0.00000000000E+00 -0.45593999997E+02  0.45594000000E+02  0.51100000000E-03 0.  1.
    9900012    2    1    2    0    0  0.38619740851E+01  0.22648710799E+02 -0.22109843925E+02  0.59301887928E+02  0.49999897687E+02 0.  0.
         12    1    1    2    0    0 -0.38619740851E+01 -0.22648710799E+02  0.22109843925E+02  0.31886112072E+02  0.00000000000E+00 0. -1.
         11    1    3    3    0    0 -0.74155126190E+01 -0.48665013707E+01  0.27360826383E+01  0.92821770862E+01  0.51100000000E-03 0. -1.
        -11    1    3    3    0    0  0.10320997574E+02  0.34324683565E+02 -0.17263361057E+02  0.39783545945E+02  0.51100000000E-03 0.  1.
        -12    1    3    3    0    0  0.95648913007E+00 -0.68094713948E+01 -0.75825655059E+01  0.10236164896E+02  0.00000000000E+00 0.  1.
</event>
<event>
 7    1  0.7457761E-012  0.5930199E+02  0.7816164E-02  0.1266605E+00
        -11   -1    0    0    0    0  0.00000000000E+00  0.00000000000E+00  0.45593999997E+02  0.45594000000E+02  0.51100000000E-03 0.  1.
         11   -1    0    0    0    0 -0.00000000000E+00 -0.00000000000E+00 -0.45593999997E+02  0.45594000000E+02  0.51100000000E-03 0. -1.
    9900012    2    1    2    0    0  0.30865783259E+02  0.25923328642E+01 -0.75697335658E+01  0.59301990025E+02  0.50000083887E+02 0.  0.
         12    1    1    2    0    0 -0.30865783259E+02 -0.25923328642E+01  0.75697335658E+01  0.31886009975E+02  0.00000000000E+00 0. -1.
         11    1    3    3    0    0  0.13256988370E+02  0.18797739518E+02 -0.28284656788E+01  0.23175482087E+02  0.51100000000E-03 0. -1.
        -11    1    3    3    0    0  0.12984560219E+02 -0.23062363582E+02  0.24806322476E+00  0.26467583072E+02  0.51100000000E-03 0.  1.
        -12    1    3    3    0    0  0.46242346707E+01  0.68569569281E+01 -0.49893311118E+01  0.96589248650E+01  0.00000000000E+00 0.  1.
</event>
<event>
 7    1  0.7457761E-012  0.5930194E+02  0.7816164E-02  0.1266605E+00
        -11   -1    0    0    0    0  0.00000000000E+00  0.00000000000E+00  0.45593999997E+02  0.45594000000E+02  0.51100000000E-03 0.  1.
         11   -1    0    0    0    0 -0.00000000000E+00 -0.00000000000E+00 -0.45593999997E+02  0.45594000000E+02  0.51100000000E-03 0. -1.
    9900012    2    1    2    0    0 -0.13327768554E+02  0.28159991248E+02  0.67901738063E+01  0.59301937496E+02  0.49999988087E+02 0.  0.
         12    1    1    2    0    0  0.13327768554E+02 -0.28159991248E+02 -0.67901738063E+01  0.31886062504E+02  0.00000000000E+00 0. -1.
         11    1    3    3    0    0 -0.45383909335E+01 -0.63910078615E+00 -0.47478967046E+01  0.65990882293E+01  0.51100000000E-03 0. -1.
        -11    1    3    3    0    0  0.92806753872E+01  0.31782343242E+02  0.74637283408E+01  0.33940470217E+02  0.51100000000E-03 0.  1.
        -12    1    3    3    0    0 -0.18070053007E+02 -0.29832512073E+01  0.40743421701E+01  0.18762379049E+02  0.00000000000E+00 0.  1.
</event>
<event>
 7    1  0.7457761E-012  0.5930198E+02  0.7816164E-02  0.1266605E+00
        -11   -1    0    0    0    0  0.00000000000E+00  0.00000000000E+00  0.45593999997E+02  0.45594000000E+02  0.51100000000E-03 0.  1.
         11   -1    0    0    0    0 -0.00000000000E+00 -0.00000000000E+00 -0.45593999997E+02  0.45594000000E+02  0.51100000000E-03 0. -1.
    9900012    2    1    2    0    0  0.21605508156E+02  0.16079638238E+02  0.17069435566E+02  0.59301978312E+02  0.50000062526E+02 0.  0.
         12    1    1    2    0    0 -0.21605508156E+02 -0.16079638238E+02 -0.17069435566E+02  0.31886021688E+02  0.00000000000E+00 0. -1.
         11    1    3    3    0    0  0.13452778715E+02 -0.20776872883E+01  0.29853913591E+02  0.32810824382E+02  0.51100000000E-03 0.  1.
        -11    1    3    3    0    0  0.10440633462E+02  0.10292798528E+02 -0.59455553457E+01  0.15820814051E+02  0.51100000000E-03 0. -1.
        -12    1    3    3    0    0 -0.22879040214E+01  0.78645269980E+01 -0.68389226793E+01  0.10670339879E+02  0.00000000000E+00 0.  1.
</event>
<event>
 7    1  0.7457761E-012  0.5930200E+02  0.7816164E-02  0.1266605E+00
        -11   -1    0    0    0    0  0.00000000000E+00  0.00000000000E+00  0.45593999997E+02  0.45594000000E+02  0.51100000000E-03 0. -1.
         11   -1    0    0    0    0 -0.00000000000E+00 -0.00000000000E+00 -0.45593999997E+02  0.45594000000E+02  0.51100000000E-03 0.  1.
    9900012    2    1    2    0    0 -0.27871723515E+02  0.15434600218E+02  0.12873948461E+01  0.59301996157E+02  0.50000095071E+02 0.  0.
         12    1    1    2    0    0  0.27871723515E+02 -0.15434600218E+02 -0.12873948461E+01  0.31886003843E+02  0.00000000000E+00 0. -1.
         11    1    3    3    0    0 -0.20225632796E+00  0.41492434902E+01  0.11440386422E+02  0.12171260038E+02  0.51100000000E-03 0. -1.
        -11    1    3    3    0    0  0.33228687441E+01  0.16490655063E+00 -0.13621143969E+02  0.14021562471E+02  0.51100000000E-03 0.  1.
        -12    1    3    3    0    0 -0.30992335931E+02  0.11120450177E+02  0.34681523924E+01  0.33109173648E+02  0.00000000000E+00 0.  1.
</event>
<event>
 7    1  0.7457761E-012  0.5930196E+02  0.7816164E-02  0.1266605E+00
        -11   -1    0    0    0    0  0.00000000000E+00  0.00000000000E+00  0.45593999997E+02  0.45594000000E+02  0.51100000000E-03 0.  1.
         11   -1    0    0    0    0 -0.00000000000E+00 -0.00000000000E+00 -0.45593999997E+02  0.45594000000E+02  0.51100000000E-03 0. -1.
    9900012    2    1    2    0    0  0.22609588128E+02 -0.62670248811E+01  0.21592835615E+02  0.59301958758E+02  0.50000026865E+02 0.  0.
         12    1    1    2    0    0 -0.22609588128E+02  0.62670248811E+01 -0.21592835615E+02  0.31886041242E+02  0.00000000000E+00 0. -1.
         11    1    3    3    0    0  0.16479816489E+02 -0.10801514021E+02 -0.12288595133E+02  0.23222115047E+02  0.51100000000E-03 0. -1.
        -11    1    3    3    0    0  0.24836969111E+01  0.70603806841E+01  0.16117519709E+02  0.17770542130E+02  0.51100000000E-03 0.  1.
         12    1    3    3    0    0  0.36460747278E+01 -0.25258915439E+01  0.17763911038E+02  0.18309301581E+02  0.00000000000E+00 0. -1.
</event>
<event>
 7    1  0.7457761E-012  0.5930191E+02  0.7816164E-02  0.1266605E+00
        -11   -1    0    0    0    0  0.00000000000E+00  0.00000000000E+00  0.45593999997E+02  0.45594000000E+02  0.51100000000E-03 0.  1.
         11   -1    0    0    0    0 -0.00000000000E+00 -0.00000000000E+00 -0.45593999997E+02  0.45594000000E+02  0.51100000000E-03 0. -1.
    9900012    2    1    2    0    0 -0.21470251757E+02  0.17395310805E+02  0.15910822341E+02  0.59301908736E+02  0.49999935637E+02 0.  0.
         12    1    1    2    0    0  0.21470251757E+02 -0.17395310805E+02 -0.15910822341E+02  0.31886091264E+02  0.00000000000E+00 0. -1.
         11    1    3    3    0    0 -0.12162850163E+02 -0.89437147527E+01 -0.32316721087E+01  0.15439192419E+02  0.51100000000E-03 0. -1.
        -11    1    3    3    0    0 -0.14153322074E+02  0.34575005914E+01  0.13364155310E+02  0.19770469987E+02  0.51100000000E-03 0.  1.
         12    1    3    3    0    0  0.48459204799E+01  0.22881524966E+02  0.57783391394E+01  0.24092246331E+02  0.00000000000E+00 0. -1.
</event>
<event>
 7    1  0.7457761E-012  0.5930194E+02  0.7816164E-02  0.1266605E+00
        -11   -1    0    0    0    0  0.00000000000E+00  0.00000000000E+00  0.45593999997E+02  0.45594000000E+02  0.51100000000E-03 0. -1.
         11   -1    0    0    0    0 -0.00000000000E+00 -0.00000000000E+00 -0.45593999997E+02  0.45594000000E+02  0.51100000000E-03 0.  1.
    9900012    2    1    2    0    0 -0.20535163108E+02 -0.92806619986E+01 -0.22558748372E+02  0.59301941305E+02  0.49999995034E+02 0.  0.
         12    1    1    2    0    0  0.20535163108E+02  0.92806619986E+01  0.22558748372E+02  0.31886058695E+02  0.00000000000E+00 0. -1.
         11    1    3    3    0    0 -0.22622482148E+02  0.56350675037E+01 -0.26858588385E+02  0.35565635867E+02  0.51100000000E-03 0. -1.
        -11    1    3    3    0    0  0.61794165519E+01 -0.13145530547E+02 -0.33271890665E+01  0.14901689489E+02  0.51100000000E-03 0.  1.
        -12    1    3    3    0    0 -0.40920975117E+01 -0.17701989554E+01  0.76270290797E+01  0.88346159492E+01  0.00000000000E+00 0.  1.
</event>
<event>
 7    1  0.7457761E-012  0.5930195E+02  0.7816164E-02  0.1266605E+00
        -11   -1    0    0    0    0  0.00000000000E+00  0.00000000000E+00  0.45593999997E+02  0.45594000000E+02  0.51100000000E-03 0. -1.
         11   -1    0    0    0    0 -0.00000000000E+00 -0.00000000000E+00 -0.45593999997E+02  0.45594000000E+02  0.51100000000E-03 0.  1.
    9900012    2    1    2    0    0 -0.76203679611E+01  0.27497497136E+02 -0.14231569765E+02  0.59301953921E+02  0.50000018042E+02 0.  0.
         12    1    1    2    0    0  0.76203679611E+01 -0.27497497136E+02  0.14231569765E+02  0.31886046079E+02  0.00000000000E+00 0. -1.
         11    1    3    3    0    0 -0.19167531624E+02  0.56917951935E+01  0.45169398138E+01  0.20498623042E+02  0.51100000000E-03 0. -1.
        -11    1    3    3    0    0  0.18012165270E+02  0.10275972836E+02 -0.12056122499E+02  0.23987159178E+02  0.51100000000E-03 0.  1.
         12    1    3    3    0    0 -0.64650016077E+01  0.11529729106E+02 -0.66923870796E+01  0.14816171701E+02  0.00000000000E+00 0. -1.
</event>
<event>
 7    1  0.7457761E-012  0.5930197E+02  0.7816164E-02  0.1266605E+00
        -11   -1    0    0    0    0  0.00000000000E+00  0.00000000000E+00  0.45593999997E+02  0.45594000000E+02  0.51100000000E-03 0.  1.
         11   -1    0    0    0    0 -0.00000000000E+00 -0.00000000000E+00 -0.45593999997E+02  0.45594000000E+02  0.51100000000E-03 0. -1.
    9900012    2    1    2    0    0 -0.13363947928E+02  0.93013868621E+01 -0.27415474039E+02  0.59301966716E+02  0.50000041378E+02 0.  0.
         12    1    1    2    0    0  0.13363947928E+02 -0.93013868621E+01  0.27415474039E+02  0.31886033284E+02  0.00000000000E+00 0. -1.
         11    1    3    3    0    0  0.14283768024E+02  0.56369022381E+01 -0.75407626991E+01  0.17107419389E+02  0.51100000000E-03 0. -1.
        -11    1    3    3    0    0 -0.14842352086E+02  0.25491287216E+01  0.35522547108E+01  0.15472943691E+02  0.51100000000E-03 0.  1.
        -12    1    3    3    0    0 -0.12805363866E+02  0.11153559024E+01 -0.23426966051E+02  0.26721603636E+02  0.00000000000E+00 0.  1.
</event>
<event>
 7    1  0.7457761E-012  0.5930196E+02  0.7816164E-02  0.1266605E+00
        -11   -1    0    0    0    0  0.00000000000E+00  0.00000000000E+00  0.45593999997E+02  0.45594000000E+02  0.51100000000E-03 0. -1.
         11   -1    0    0    0    0 -0.00000000000E+00 -0.00000000000E+00 -0.45593999997E+02  0.45594000000E+02  0.51100000000E-03 0.  1.
    9900012    2    1    2    0    0  0.94377029753E+01 -0.16890351861E+02 -0.25344931358E+02  0.59301956517E+02  0.50000022778E+02 0.  0.
         12    1    1    2    0    0 -0.94377029753E+01  0.16890351861E+02  0.25344931358E+02  0.31886043483E+02  0.00000000000E+00 0. -1.
         11    1    3    3    0    0  0.14209769444E+01 -0.19298347225E+02  0.73704676442E+01  0.20706742251E+02  0.51100000000E-03 0. -1.
        -11    1    3    3    0    0  0.58392757368E+01  0.10012602386E+02 -0.13368429835E+02  0.17693622133E+02  0.51100000000E-03 0.  1.
        -12    1    3    3    0    0  0.21774502940E+01 -0.76046070221E+01 -0.19346969168E+02  0.20901592134E+02  0.00000000000E+00 0.  1.
</event>
<event>
 7    1  0.7457761E-012  0.5930195E+02  0.7816164E-02  0.1266605E+00
        -11   -1    0    0    0    0  0.00000000000E+00  0.00000000000E+00  0.45593999997E+02  0.45594000000E+02  0.51100000000E-03 0. -1.
         11   -1    0    0    0    0 -0.00000000000E+00 -0.00000000000E+00 -0.45593999997E+02  0.45594000000E+02  0.51100000000E-03 0.  1.
    9900012    2    1    2    0    0  0.15660511223E+02 -0.25278355407E+02  0.11509719337E+02  0.59301945006E+02  0.50000001784E+02 0.  0.
         12    1    1    2    0    0 -0.15660511223E+02  0.25278355407E+02 -0.11509719337E+02  0.31886054994E+02  0.00000000000E+00 0. -1.
         11    1    3    3    0    0 -0.15134447750E+02 -0.95571593850E+01  0.70973439201E+01  0.19255209560E+02  0.51100000000E-03 0. -1.
        -11    1    3    3    0    0  0.17811000300E+02 -0.14269905407E+02 -0.57024768583E+01  0.23524033978E+02  0.51100000000E-03 0.  1.
        -12    1    3    3    0    0  0.12983958673E+02 -0.14512906147E+01  0.10114852276E+02  0.16522701469E+02  0.00000000000E+00 0.  1.
</event>
<event>
 7    1  0.7457761E-012  0.5930193E+02  0.7816164E-02  0.1266605E+00
        -11   -1    0    0    0    0  0.00000000000E+00  0.00000000000E+00  0.45593999997E+02  0.45594000000E+02  0.51100000000E-03 0. -1.
         11   -1    0    0    0    0 -0.00000000000E+00 -0.00000000000E+00 -0.45593999997E+02  0.45594000000E+02  0.51100000000E-03 0.  1.
    9900012    2    1    2    0    0 -0.12487503381E+02  0.25624689046E+02 -0.14288432796E+02  0.59301925592E+02  0.49999966377E+02 0.  0.
         12    1    1    2    0    0  0.12487503381E+02 -0.25624689046E+02  0.14288432796E+02  0.31886074408E+02  0.00000000000E+00 0. -1.
         11    1    3    3    0    0  0.66475015125E+01 -0.96089904138E+01  0.34937540569E+01  0.12195420895E+02  0.51100000000E-03 0. -1.
        -11    1    3    3    0    0 -0.12497010933E+02  0.27556904924E+02 -0.20562572610E+02  0.36583844575E+02  0.51100000000E-03 0.  1.
         12    1    3    3    0    0 -0.66379939608E+01  0.76767745354E+01  0.27803857571E+01  0.10522660122E+02  0.00000000000E+00 0. -1.
</event>
<event>
 7    1  0.7457761E-012  0.5930193E+02  0.7816164E-02  0.1266605E+00
        -11   -1    0    0    0    0  0.00000000000E+00  0.00000000000E+00  0.45593999997E+02  0.45594000000E+02  0.51100000000E-03 0.  1.
         11   -1    0    0    0    0 -0.00000000000E+00 -0.00000000000E+00 -0.45593999997E+02  0.45594000000E+02  0.51100000000E-03 0. -1.
    9900012    2    1    2    0    0  0.23450364078E+02  0.74183633189E+01  0.20292113904E+02  0.59301928175E+02  0.49999971088E+02 0.  0.
         12    1    1    2    0    0 -0.23450364078E+02 -0.74183633189E+01 -0.20292113904E+02  0.31886071825E+02  0.00000000000E+00 0. -1.
         11    1    3    3    0    0 -0.22023729622E+01 -0.48144313070E+01 -0.10193970313E+02  0.11486784862E+02  0.51100000000E-03 0. -1.
        -11    1    3    3    0    0  0.14147671728E+02  0.13704964436E+02  0.30390910183E+02  0.36215881703E+02  0.51100000000E-03 0.  1.
         12    1    3    3    0    0  0.11505065312E+02 -0.14721698104E+01  0.95174033987E-01  0.11599261610E+02  0.00000000000E+00 0. -1.
</event>
<event>
 7    1  0.7457761E-012  0.5930197E+02  0.7816164E-02  0.1266605E+00
        -11   -1    0    0    0    0  0.00000000000E+00  0.00000000000E+00  0.45593999997E+02  0.45594000000E+02  0.51100000000E-03 0.  1.
         11   -1    0    0    0    0 -0.00000000000E+00 -0.00000000000E+00 -0.45593999997E+02  0.45594000000E+02  0.51100000000E-03 0. -1.
    9900012    2    1    2    0    0  0.23077576930E+02 -0.13929024896E+02  0.17033097298E+02  0.59301973357E+02  0.50000053489E+02 0.  0.
         12    1    1    2    0    0 -0.23077576930E+02  0.13929024896E+02 -0.17033097298E+02  0.31886026643E+02  0.00000000000E+00 0. -1.
         11    1    3    3    0    0  0.12648980743E+01  0.12572784608E+02 -0.50681888584E+01  0.13614750035E+02  0.51100000000E-03 0. -1.
        -11    1    3    3    0    0 -0.39185315408E+00 -0.13240034837E+02  0.12153613538E+02  0.17976718101E+02  0.51100000000E-03 0.  1.
         12    1    3    3    0    0  0.22204532010E+02 -0.13261774667E+02  0.99476726191E+01  0.27710505221E+02  0.00000000000E+00 0. -1.
</event>
<event>
 7    1  0.7457761E-012  0.5930193E+02  0.7816164E-02  0.1266605E+00
        -11   -1    0    0    0    0  0.00000000000E+00  0.00000000000E+00  0.45593999997E+02  0.45594000000E+02  0.51100000000E-03 0.  1.
         11   -1    0    0    0    0 -0.00000000000E+00 -0.00000000000E+00 -0.45593999997E+02  0.45594000000E+02  0.51100000000E-03 0. -1.
    9900012    2    1    2    0    0 -0.13950624712E+02 -0.27191058458E+02 -0.90965903807E+01  0.59301928645E+02  0.49999971946E+02 0.  0.
         12    1    1    2    0    0  0.13950624712E+02  0.27191058458E+02  0.90965903807E+01  0.31886071355E+02  0.00000000000E+00 0. -1.
         11    1    3    3    0    0  0.99587168562E+01 -0.27693105012E+02 -0.12419789105E+02  0.31942687243E+02  0.51100000000E-03 0. -1.
        -11    1    3    3    0    0 -0.14972253431E+02 -0.42577333665E+01 -0.23662855175E+01  0.15744712562E+02  0.51100000000E-03 0.  1.
         12    1    3    3    0    0 -0.89370881365E+01  0.47597799212E+01  0.56894842414E+01  0.11614528841E+02  0.00000000000E+00 0. -1.
</event>
<event>
 7    1  0.7457761E-012  0.5930198E+02  0.7816164E-02  0.1266605E+00
        -11   -1    0    0    0    0  0.00000000000E+00  0.00000000000E+00  0.45593999997E+02  0.45594000000E+02  0.51100000000E-03 0.  1.
         11   -1    0    0    0    0 -0.00000000000E+00 -0.00000000000E+00 -0.45593999997E+02  0.45594000000E+02  0.51100000000E-03 0. -1.
    9900012    2    1    2    0    0  0.28135970858E+02  0.36735524618E+01  0.14546153553E+02  0.59301977561E+02  0.50000061156E+02 0.  0.
         12    1    1    2    0    0 -0.28135970858E+02 -0.36735524618E+01 -0.14546153553E+02  0.31886022439E+02  0.00000000000E+00 0. -1.
         11    1    3    3    0    0 -0.13346547977E+02 -0.20855987913E+01 -0.22748488149E+01  0.13698722664E+02  0.51100000000E-03 0. -1.
        -11    1    3    3    0    0  0.53593588363E+01  0.88854474061E+00  0.47212828208E+01  0.71974127732E+01  0.51100000000E-03 0.  1.
         12    1    3    3    0    0  0.36123159999E+02  0.48706065125E+01  0.12099719547E+02  0.38405842124E+02  0.00000000000E+00 0. -1.
</event>
<event>
 7    1  0.7457761E-012  0.5930195E+02  0.7816164E-02  0.1266605E+00
        -11   -1    0    0    0    0  0.00000000000E+00  0.00000000000E+00  0.45593999997E+02  0.45594000000E+02  0.51100000000E-03 0.  1.
         11   -1    0    0    0    0 -0.00000000000E+00 -0.00000000000E+00 -0.45593999997E+02  0.45594000000E+02  0.51100000000E-03 0. -1.
    9900012    2    1    2    0    0  0.53457948017E+00  0.26411386973E+02 -0.17857022873E+02  0.59301946576E+02  0.50000004648E+02 0.  0.
         12    1    1    2    0    0 -0.53457948017E+00 -0.26411386973E+02  0.17857022873E+02  0.31886053424E+02  0.00000000000E+00 0. -1.
         11    1    3    3    0    0  0.55310343977E+01 -0.74840723961E+01  0.10795741274E+02  0.14253129869E+02  0.51100000000E-03 0. -1.
        -11    1    3    3    0    0 -0.40769554090E+00  0.10798220250E+02 -0.59362267359E+01  0.12329094223E+02  0.51100000000E-03 0.  1.
         12    1    3    3    0    0 -0.45887593766E+01  0.23097239118E+02 -0.22716537412E+02  0.32719722485E+02  0.00000000000E+00 0. -1.
</event>
<event>
 7    1  0.7457761E-012  0.5930194E+02  0.7816164E-02  0.1266605E+00
        -11   -1    0    0    0    0  0.00000000000E+00  0.00000000000E+00  0.45593999997E+02  0.45594000000E+02  0.51100000000E-03 0.  1.
         11   -1    0    0    0    0 -0.00000000000E+00 -0.00000000000E+00 -0.45593999997E+02  0.45594000000E+02  0.51100000000E-03 0. -1.
    9900012    2    1    2    0    0 -0.29242603678E+02 -0.10657845326E+02 -0.69282861419E+01  0.59301942142E+02  0.49999996561E+02 0.  0.
         12    1    1    2    0    0  0.29242603678E+02  0.10657845326E+02  0.69282861419E+01  0.31886057858E+02  0.00000000000E+00 0. -1.
         11    1    3    3    0    0 -0.18548962038E+01  0.91996454282E+01  0.14662416125E+02  0.17408634720E+02  0.51100000000E-03 0.  1.
        -11    1    3    3    0    0 -0.12447897845E+02 -0.97593624499E+01 -0.17132790221E+02  0.23317971978E+02  0.51100000000E-03 0. -1.
         12    1    3    3    0    0 -0.14939809629E+02 -0.10098128305E+02 -0.44579120468E+01  0.18575335443E+02  0.00000000000E+00 0. -1.
</event>
<event>
 7    1  0.7457761E-012  0.5930181E+02  0.7816164E-02  0.1266605E+00
        -11   -1    0    0    0    0  0.00000000000E+00  0.00000000000E+00  0.45593999997E+02  0.45594000000E+02  0.51100000000E-03 0.  1.
         11   -1    0    0    0    0 -0.00000000000E+00 -0.00000000000E+00 -0.45593999997E+02  0.45594000000E+02  0.51100000000E-03 0. -1.
    9900012    2    1    2    0    0  0.19348519294E+01 -0.11122080394E+02  0.29820876125E+02  0.59301812126E+02  0.49999759443E+02 0.  0.
         12    1    1    2    0    0 -0.19348519294E+01  0.11122080394E+02 -0.29820876125E+02  0.31886187874E+02  0.00000000000E+00 0. -1.
         11    1    3    3    0    0 -0.19475066567E+02 -0.11099745503E+02  0.17782987515E+02  0.28613234931E+02  0.51100000000E-03 0.  1.
        -11    1    3    3    0    0  0.85739308712E+01  0.47482436979E+01  0.13752787349E+02  0.16887784607E+02  0.51100000000E-03 0. -1.
         12    1    3    3    0    0  0.12835987625E+02 -0.47705785888E+01 -0.17148987393E+01  0.13800792588E+02  0.00000000000E+00 0. -1.
</event>
<event>
 7    1  0.7457761E-012  0.5930186E+02  0.7816164E-02  0.1266605E+00
        -11   -1    0    0    0    0  0.00000000000E+00  0.00000000000E+00  0.45593999997E+02  0.45594000000E+02  0.51100000000E-03 0. -1.
         11   -1    0    0    0    0 -0.00000000000E+00 -0.00000000000E+00 -0.45593999997E+02  0.45594000000E+02  0.51100000000E-03 0.  1.
    9900012    2    1    2    0    0 -0.30544605744E+02  0.56737370380E+01  0.71806331015E+01  0.59301863142E+02  0.49999852483E+02 0.  0.
         12    1    1    2    0    0  0.30544605744E+02 -0.56737370380E+01 -0.71806331015E+01  0.31886136858E+02  0.00000000000E+00 0. -1.
         11    1    3    3    0    0 -0.16079320539E+02  0.22135851182E+02 -0.17560772007E+01  0.27415766704E+02  0.51100000000E-03 0. -1.
        -11    1    3    3    0    0 -0.19627186063E+02 -0.13340603668E+02  0.39475093047E+01  0.24057867091E+02  0.51100000000E-03 0.  1.
        -12    1    3    3    0    0  0.51619008584E+01 -0.31215104759E+01  0.49892009975E+01  0.78282293475E+01  0.00000000000E+00 0.  1.
</event>
<event>
 7    1  0.7457761E-012  0.5930199E+02  0.7816164E-02  0.1266605E+00
        -11   -1    0    0    0    0  0.00000000000E+00  0.00000000000E+00  0.45593999997E+02  0.45594000000E+02  0.51100000000E-03 0.  1.
         11   -1    0    0    0    0 -0.00000000000E+00 -0.00000000000E+00 -0.45593999997E+02  0.45594000000E+02  0.51100000000E-03 0. -1.
    9900012    2    1    2    0    0 -0.18357589029E+02  0.43094162596E+01  0.25712746640E+02  0.59301992360E+02  0.50000088147E+02 0.  0.
         12    1    1    2    0    0  0.18357589029E+02 -0.43094162596E+01 -0.25712746640E+02  0.31886007640E+02  0.00000000000E+00 0. -1.
         11    1    3    3    0    0  0.93472470223E+01 -0.31756744596E+00 -0.91586322461E+01  0.13090165043E+02  0.51100000000E-03 0. -1.
        -11    1    3    3    0    0 -0.99190582628E+01 -0.37783839073E+01  0.11139978546E+02  0.15387105772E+02  0.51100000000E-03 0.  1.
         12    1    3    3    0    0 -0.17785777788E+02  0.84053676128E+01  0.23731400340E+02  0.30824721545E+02  0.00000000000E+00 0. -1.
</event>
<event>
 7    1  0.7457761E-012  0.5930198E+02  0.7816164E-02  0.1266605E+00
        -11   -1    0    0    0    0  0.00000000000E+00  0.00000000000E+00  0.45593999997E+02  0.45594000000E+02  0.51100000000E-03 0.  1.
         11   -1    0    0    0    0 -0.00000000000E+00 -0.00000000000E+00 -0.45593999997E+02  0.45594000000E+02  0.51100000000E-03 0. -1.
    9900012    2    1    2    0    0  0.28194114617E+02  0.14026521476E+02 -0.50067041175E+01  0.59301976575E+02  0.50000059358E+02 0.  0.
         12    1    1    2    0    0 -0.28194114617E+02 -0.14026521476E+02  0.50067041175E+01  0.31886023425E+02  0.00000000000E+00 0. -1.
         11    1    3    3    0    0  0.30846271043E+01 -0.10206943185E+02 -0.54907703015E+01  0.11993547112E+02  0.51100000000E-03 0. -1.
        -11    1    3    3    0    0  0.24487260225E+02  0.14282302235E+02 -0.12463328697E+02  0.30966831173E+02  0.51100000000E-03 0.  1.
         12    1    3    3    0    0  0.62222728811E+00  0.99511624266E+01  0.12947394881E+02  0.16341598289E+02  0.00000000000E+00 0. -1.
</event>
<event>
 7    1  0.7457761E-012  0.5930195E+02  0.7816164E-02  0.1266605E+00
        -11   -1    0    0    0    0  0.00000000000E+00  0.00000000000E+00  0.45593999997E+02  0.45594000000E+02  0.51100000000E-03 0.  1.
         11   -1    0    0    0    0 -0.00000000000E+00 -0.00000000000E+00 -0.45593999997E+02  0.45594000000E+02  0.51100000000E-03 0. -1.
    9900012    2    1    2    0    0 -0.11960733626E+02 -0.25873591044E+02  0.14290502236E+02  0.59301947931E+02  0.50000007119E+02 0.  0.
         12    1    1    2    0    0  0.11960733626E+02  0.25873591044E+02 -0.14290502236E+02  0.31886052069E+02  0.00000000000E+00 0. -1.
         11    1    3    3    0    0  0.45360439244E+01 -0.10953139418E+02 -0.14157273375E+02  0.18465517791E+02  0.51100000000E-03 0. -1.
        -11    1    3    3    0    0 -0.79176673434E+01 -0.15577171891E+02  0.91884039394E+01  0.19742454444E+02  0.51100000000E-03 0.  1.
         12    1    3    3    0    0 -0.85791102071E+01  0.65672026487E+00  0.19259371672E+02  0.21093975696E+02  0.00000000000E+00 0. -1.
</event>
<event>
 7    1  0.7457761E-012  0.5930209E+02  0.7816164E-02  0.1266604E+00
        -11   -1    0    0    0    0  0.00000000000E+00  0.00000000000E+00  0.45593999997E+02  0.45594000000E+02  0.51100000000E-03 0.  1.
         11   -1    0    0    0    0 -0.00000000000E+00 -0.00000000000E+00 -0.45593999997E+02  0.45594000000E+02  0.51100000000E-03 0. -1.
    9900012    2    1    2    0    0  0.11498654659E+02  0.30245228136E+01  0.29586220270E+02  0.59302090462E+02  0.50000267060E+02 0.  0.
         12    1    1    2    0    0 -0.11498654659E+02 -0.30245228136E+01 -0.29586220270E+02  0.31885909538E+02  0.00000000000E+00 0. -1.
         11    1    3    3    0    0  0.14392664430E+02 -0.11046842419E+02  0.17168952287E+02  0.24979080042E+02  0.51100000000E-03 0. -1.
        -11    1    3    3    0    0  0.75338292625E+01  0.18877909809E+02  0.97097421201E+01  0.22525833046E+02  0.51100000000E-03 0.  1.
         12    1    3    3    0    0 -0.10427839034E+02 -0.48065445768E+01  0.27075258630E+01  0.11797177374E+02  0.00000000000E+00 0. -1.
</event>
<event>
 7    1  0.7457761E-012  0.5930196E+02  0.7816164E-02  0.1266605E+00
        -11   -1    0    0    0    0  0.00000000000E+00  0.00000000000E+00  0.45593999997E+02  0.45594000000E+02  0.51100000000E-03 0.  1.
         11   -1    0    0    0    0 -0.00000000000E+00 -0.00000000000E+00 -0.45593999997E+02  0.45594000000E+02  0.51100000000E-03 0. -1.
    9900012    2    1    2    0    0  0.48160347324E+01 -0.33407774885E+00  0.31518465618E+02  0.59301961153E+02  0.50000031232E+02 0.  0.
         12    1    1    2    0    0 -0.48160347324E+01  0.33407774885E+00 -0.31518465618E+02  0.31886038847E+02  0.00000000000E+00 0. -1.
         11    1    3    3    0    0  0.10525119761E+02 -0.42211348155E+01  0.38613991015E+01  0.11979421037E+02  0.51100000000E-03 0. -1.
        -11    1    3    3    0    0 -0.58393493033E+01  0.13733325206E+02  0.32929161374E+02  0.36152896019E+02  0.51100000000E-03 0.  1.
        -12    1    3    3    0    0  0.13026427512E+00 -0.98462681395E+01 -0.52720948576E+01  0.11169644097E+02  0.00000000000E+00 0.  1.
</event>
<event>
 7    1  0.7457761E-012  0.5930188E+02  0.7816164E-02  0.1266605E+00
        -11   -1    0    0    0    0  0.00000000000E+00  0.00000000000E+00  0.45593999997E+02  0.45594000000E+02  0.51100000000E-03 0.  1.
         11   -1    0    0    0    0 -0.00000000000E+00 -0.00000000000E+00 -0.45593999997E+02  0.45594000000E+02  0.51100000000E-03 0. -1.
    9900012    2    1    2    0    0 -0.17050539241E+02 -0.21624298809E+02  0.16074628146E+02  0.59301876726E+02  0.49999877258E+02 0.  0.
         12    1    1    2    0    0  0.17050539241E+02  0.21624298809E+02 -0.16074628146E+02  0.31886123274E+02  0.00000000000E+00 0. -1.
         11    1    3    3    0    0 -0.11710452235E+02  0.93667324609E+00  0.26833993926E+02  0.29292921988E+02  0.51100000000E-03 0.  1.
        -11    1    3    3    0    0 -0.66297305493E+01 -0.12543826916E+02 -0.13457247976E+02  0.19555010718E+02  0.51100000000E-03 0. -1.
        -12    1    3    3    0    0  0.12896435435E+01 -0.10017145140E+02  0.26978821958E+01  0.10453944020E+02  0.00000000000E+00 0.  1.
</event>
<event>
 7    1  0.7457761E-012  0.5930192E+02  0.7816164E-02  0.1266605E+00
        -11   -1    0    0    0    0  0.00000000000E+00  0.00000000000E+00  0.45593999997E+02  0.45594000000E+02  0.51100000000E-03 0.  1.
         11   -1    0    0    0    0 -0.00000000000E+00 -0.00000000000E+00 -0.45593999997E+02  0.45594000000E+02  0.51100000000E-03 0. -1.
    9900012    2    1    2    0    0 -0.16636549187E+02  0.26571081750E+02  0.58245206712E+01  0.59301918471E+02  0.49999953391E+02 0.  0.
         12    1    1    2    0    0  0.16636549187E+02 -0.26571081750E+02 -0.58245206712E+01  0.31886081529E+02  0.00000000000E+00 0. -1.
         11    1    3    3    0    0 -0.18644359953E+02  0.14246888073E+02  0.18151810454E+02  0.29666044577E+02  0.51100000000E-03 0. -1.
        -11    1    3    3    0    0  0.10488542077E+02  0.10570993464E+02 -0.40074654293E+00  0.14896845832E+02  0.51100000000E-03 0.  1.
         12    1    3    3    0    0 -0.84807313106E+01  0.17532002133E+01 -0.11926543240E+02  0.14739028062E+02  0.00000000000E+00 0. -1.
</event>
<event>
 7    1  0.7457761E-012  0.5930194E+02  0.7816164E-02  0.1266605E+00
        -11   -1    0    0    0    0  0.00000000000E+00  0.00000000000E+00  0.45593999997E+02  0.45594000000E+02  0.51100000000E-03 0. -1.
         11   -1    0    0    0    0 -0.00000000000E+00 -0.00000000000E+00 -0.45593999997E+02  0.45594000000E+02  0.51100000000E-03 0.  1.
    9900012    2    1    2    0    0 -0.19957188476E+02  0.13696996686E+02 -0.20756287732E+02  0.59301943949E+02  0.49999999856E+02 0.  0.
         12    1    1    2    0    0  0.19957188476E+02 -0.13696996686E+02  0.20756287732E+02  0.31886056051E+02  0.00000000000E+00 0. -1.
         11    1    3    3    0    0  0.65789622020E+01 -0.10043994634E+02 -0.12498992748E+02  0.17331745205E+02  0.51100000000E-03 0. -1.
        -11    1    3    3    0    0 -0.22780311709E+02  0.78407516633E+01 -0.10541218909E+01  0.24114957214E+02  0.51100000000E-03 0.  1.
         12    1    3    3    0    0 -0.37558389684E+01  0.15900239656E+02 -0.72031730933E+01  0.17855241530E+02  0.00000000000E+00 0. -1.
</event>
<event>
 7    1  0.7457761E-012  0.5930192E+02  0.7816164E-02  0.1266605E+00
        -11   -1    0    0    0    0  0.00000000000E+00  0.00000000000E+00  0.45593999997E+02  0.45594000000E+02  0.51100000000E-03 0. -1.
         11   -1    0    0    0    0 -0.00000000000E+00 -0.00000000000E+00 -0.45593999997E+02  0.45594000000E+02  0.51100000000E-03 0.  1.
    9900012    2    1    2    0    0 -0.14007814408E+02 -0.24754433301E+02 -0.14412528236E+02  0.59301924627E+02  0.49999964618E+02 0.  0.
         12    1    1    2    0    0  0.14007814408E+02  0.24754433301E+02  0.14412528236E+02  0.31886075373E+02  0.00000000000E+00 0. -1.
         11    1    3    3    0    0 -0.19572654835E+02  0.85261277392E+01  0.13103544432E+01  0.21389266013E+02  0.51100000000E-03 0. -1.
        -11    1    3    3    0    0  0.20048883175E+01 -0.19962685276E+02 -0.56633735608E+01  0.20847114452E+02  0.51100000000E-03 0.  1.
         12    1    3    3    0    0  0.35599521097E+01 -0.13317875764E+02 -0.10059509118E+02  0.17065544163E+02  0.00000000000E+00 0. -1.
</event>
<event>
 7    1  0.7457761E-012  0.5930194E+02  0.7816164E-02  0.1266605E+00
        -11   -1    0    0    0    0  0.00000000000E+00  0.00000000000E+00  0.45593999997E+02  0.45594000000E+02  0.51100000000E-03 0.  1.
         11   -1    0    0    0    0 -0.00000000000E+00 -0.00000000000E+00 -0.45593999997E+02  0.45594000000E+02  0.51100000000E-03 0. -1.
    9900012    2    1    2    0    0 -0.27436070886E+02  0.10827232916E+02  0.12114190017E+02  0.59301944144E+02  0.50000000212E+02 0.  0.
         12    1    1    2    0    0  0.27436070886E+02 -0.10827232916E+02 -0.12114190017E+02  0.31886055856E+02  0.00000000000E+00 0. -1.
         11    1    3    3    0    0  0.12330811288E+01  0.77990780505E+01  0.12369442209E+02  0.14674781372E+02  0.51100000000E-03 0. -1.
        -11    1    3    3    0    0 -0.17465106946E+02 -0.13493927133E+02  0.73536239877E+01  0.23263529744E+02  0.51100000000E-03 0.  1.
        -12    1    3    3    0    0 -0.11204045069E+02  0.16522081998E+02 -0.76088761797E+01  0.21363633028E+02  0.00000000000E+00 0.  1.
</event>
<event>
 7    1  0.7457761E-012  0.5930193E+02  0.7816164E-02  0.1266605E+00
        -11   -1    0    0    0    0  0.00000000000E+00  0.00000000000E+00  0.45593999997E+02  0.45594000000E+02  0.51100000000E-03 0. -1.
         11   -1    0    0    0    0 -0.00000000000E+00 -0.00000000000E+00 -0.45593999997E+02  0.45594000000E+02  0.51100000000E-03 0.  1.
    9900012    2    1    2    0    0  0.94929527404E+01 -0.17173426818E+02 -0.25133215556E+02  0.59301933065E+02  0.49999980006E+02 0.  0.
         12    1    1    2    0    0 -0.94929527404E+01  0.17173426818E+02  0.25133215556E+02  0.31886066935E+02  0.00000000000E+00 0. -1.
         11    1    3    3    0    0  0.18363084292E+02 -0.44518138244E+01  0.65857017295E+01  0.20009822052E+02  0.51100000000E-03 0. -1.
        -11    1    3    3    0    0 -0.79298073687E+01  0.41719582568E+00 -0.20518943388E+02  0.22001884812E+02  0.51100000000E-03 0.  1.
         12    1    3    3    0    0 -0.94032418245E+00 -0.13138808819E+02 -0.11199973898E+02  0.17290226201E+02  0.00000000000E+00 0. -1.
</event>
<event>
 7    1  0.7457761E-012  0.5930196E+02  0.7816164E-02  0.1266605E+00
        -11   -1    0    0    0    0  0.00000000000E+00  0.00000000000E+00  0.45593999997E+02  0.45594000000E+02  0.51100000000E-03 0.  1.
         11   -1    0    0    0    0 -0.00000000000E+00 -0.00000000000E+00 -0.45593999997E+02  0.45594000000E+02  0.51100000000E-03 0. -1.
    9900012    2    1    2    0    0  0.20527151840E+02  0.23899163458E+02  0.49178865064E+01  0.59301959412E+02  0.50000028058E+02 0.  0.
         12    1    1    2    0    0 -0.20527151840E+02 -0.23899163458E+02 -0.49178865064E+01  0.31886040588E+02  0.00000000000E+00 0. -1.
         11    1    3    3    0    0  0.26144211992E+02  0.33489313875E+01  0.16653098858E+02  0.31177890627E+02  0.51100000000E-03 0. -1.
        -11    1    3    3    0    0  0.34343366912E-01  0.14031861338E+02 -0.13326107179E+02  0.19351471388E+02  0.51100000000E-03 0.  1.
        -12    1    3    3    0    0 -0.56514035186E+01  0.65183707330E+01  0.15908948279E+01  0.87725973974E+01  0.00000000000E+00 0.  1.
</event>
<event>
 7    1  0.7457761E-012  0.5930195E+02  0.7816164E-02  0.1266605E+00
        -11   -1    0    0    0    0  0.00000000000E+00  0.00000000000E+00  0.45593999997E+02  0.45594000000E+02  0.51100000000E-03 0. -1.
         11   -1    0    0    0    0 -0.00000000000E+00 -0.00000000000E+00 -0.45593999997E+02  0.45594000000E+02  0.51100000000E-03 0.  1.
    9900012    2    1    2    0    0 -0.20457092729E+02 -0.15648970820E+02 -0.18797265811E+02  0.59301950815E+02  0.50000012379E+02 0.  0.
         12    1    1    2    0    0  0.20457092729E+02  0.15648970820E+02  0.18797265811E+02  0.31886049185E+02  0.00000000000E+00 0. -1.
         11    1    3    3    0    0  0.64800384961E+01 -0.71973189910E+01  0.26301667968E+01  0.10035441057E+02  0.51100000000E-03 0. -1.
        -11    1    3    3    0    0 -0.28216120972E+02 -0.16784938880E+02 -0.23750756793E+02  0.40521378363E+02  0.51100000000E-03 0.  1.
        -12    1    3    3    0    0  0.12789897473E+01  0.83332870513E+01  0.23233241853E+01  0.87451313954E+01  0.00000000000E+00 0.  1.
</event>
<event>
 7    1  0.7457761E-012  0.5930209E+02  0.7816164E-02  0.1266604E+00
        -11   -1    0    0    0    0  0.00000000000E+00  0.00000000000E+00  0.45593999997E+02  0.45594000000E+02  0.51100000000E-03 0.  1.
         11   -1    0    0    0    0 -0.00000000000E+00 -0.00000000000E+00 -0.45593999997E+02  0.45594000000E+02  0.51100000000E-03 0. -1.
    9900012    2    1    2    0    0  0.33605007103E+01  0.51707582869E+00  0.31704118306E+02  0.59302086967E+02  0.50000260686E+02 0.  0.
         12    1    1    2    0    0 -0.33605007103E+01 -0.51707582869E+00 -0.31704118306E+02  0.31885913033E+02  0.00000000000E+00 0. -1.
         11    1    3    3    0    0 -0.10768758190E+02 -0.17524802730E+02  0.20625700156E+02  0.29129098353E+02  0.51100000000E-03 0.  1.
        -11    1    3    3    0    0  0.79877677428E+01  0.18598330321E+02  0.12572497995E+02  0.23827925431E+02  0.51100000000E-03 0. -1.
        -12    1    3    3    0    0  0.61414911577E+01 -0.55645176249E+00 -0.14940798457E+01  0.63450631825E+01  0.00000000000E+00 0.  1.
</event>
<event>
 7    1  0.7457761E-012  0.5930193E+02  0.7816164E-02  0.1266605E+00
        -11   -1    0    0    0    0  0.00000000000E+00  0.00000000000E+00  0.45593999997E+02  0.45594000000E+02  0.51100000000E-03 0. -1.
         11   -1    0    0    0    0 -0.00000000000E+00 -0.00000000000E+00 -0.45593999997E+02  0.45594000000E+02  0.51100000000E-03 0.  1.
    9900012    2    1    2    0    0  0.24484080592E+02  0.16871975596E+02 -0.11514673036E+02  0.59301930031E+02  0.49999974473E+02 0.  0.
         12    1    1    2    0    0 -0.24484080592E+02 -0.16871975596E+02  0.11514673036E+02  0.31886069969E+02  0.00000000000E+00 0. -1.
         11    1    3    3    0    0 -0.92550174622E+01  0.23457112347E+00  0.10756157645E+02  0.14191733488E+02  0.51100000000E-03 0. -1.
        -11    1    3    3    0    0  0.23263369086E+02  0.75289778055E+01 -0.18683305339E+02  0.30772321113E+02  0.51100000000E-03 0.  1.
        -12    1    3    3    0    0  0.10475728968E+02  0.91084266674E+01 -0.35875253431E+01  0.14337875430E+02  0.00000000000E+00 0.  1.
</event>
<event>
 7    1  0.7457761E-012  0.5930199E+02  0.7816164E-02  0.1266605E+00
        -11   -1    0    0    0    0  0.00000000000E+00  0.00000000000E+00  0.45593999997E+02  0.45594000000E+02  0.51100000000E-03 0.  1.
         11   -1    0    0    0    0 -0.00000000000E+00 -0.00000000000E+00 -0.45593999997E+02  0.45594000000E+02  0.51100000000E-03 0. -1.
    9900012    2    1    2    0    0 -0.80929647022E+01  0.23176871662E+01  0.30754668736E+02  0.59301993657E+02  0.50000090511E+02 0.  0.
         12    1    1    2    0    0  0.80929647022E+01 -0.23176871662E+01 -0.30754668736E+02  0.31886006343E+02  0.00000000000E+00 0. -1.
         11    1    3    3    0    0 -0.67884278122E+01 -0.12581238275E+02 -0.19790718290E+01  0.14432152794E+02  0.51100000000E-03 0. -1.
        -11    1    3    3    0    0  0.87221607711E+01  0.17641020131E+02  0.16961680266E+02  0.25980382551E+02  0.51100000000E-03 0.  1.
         12    1    3    3    0    0 -0.10026697661E+02 -0.27420946894E+01  0.15772060299E+02  0.18889458312E+02  0.00000000000E+00 0. -1.
</event>
<event>
 7    1  0.7457761E-012  0.5930195E+02  0.7816164E-02  0.1266605E+00
        -11   -1    0    0    0    0  0.00000000000E+00  0.00000000000E+00  0.45593999997E+02  0.45594000000E+02  0.51100000000E-03 0.  1.
         11   -1    0    0    0    0 -0.00000000000E+00 -0.00000000000E+00 -0.45593999997E+02  0.45594000000E+02  0.51100000000E-03 0. -1.
    9900012    2    1    2    0    0  0.82400895105E+01 -0.30794215178E+02  0.73294677577E+00  0.59301953294E+02  0.50000016900E+02 0.  0.
         12    1    1    2    0    0 -0.82400895105E+01  0.30794215178E+02 -0.73294677577E+00  0.31886046706E+02  0.00000000000E+00 0. -1.
         11    1    3    3    0    0  0.13013190691E+02 -0.31643567128E+02  0.13773047370E+02  0.36882994817E+02  0.51100000000E-03 0.  1.
        -11    1    3    3    0    0  0.30409598622E+01 -0.32189699337E+01 -0.12866872001E+02  0.13607556712E+02  0.51100000000E-03 0. -1.
         12    1    3    3    0    0 -0.78140610424E+01  0.40683218845E+01 -0.17322859349E+00  0.88114017657E+01  0.00000000000E+00 0. -1.
</event>
<event>
 7    1  0.7457761E-012  0.5930189E+02  0.7816164E-02  0.1266605E+00
        -11   -1    0    0    0    0  0.00000000000E+00  0.00000000000E+00  0.45593999997E+02  0.45594000000E+02  0.51100000000E-03 0.  1.
         11   -1    0    0    0    0 -0.00000000000E+00 -0.00000000000E+00 -0.45593999997E+02  0.45594000000E+02  0.51100000000E-03 0. -1.
    9900012    2    1    2    0    0 -0.25003382187E+02 -0.19669198617E+02 -0.21627871720E+01  0.59301887924E+02  0.49999897680E+02 0.  0.
         12    1    1    2    0    0  0.25003382187E+02  0.19669198617E+02  0.21627871720E+01  0.31886112076E+02  0.00000000000E+00 0. -1.
         11    1    3    3    0    0 -0.18317530054E+02 -0.13052565038E+02 -0.14850588805E+02  0.26952575933E+02  0.51100000000E-03 0. -1.
        -11    1    3    3    0    0 -0.10589770515E+02  0.88125073264E+01  0.69549349771E+01  0.15432907883E+02  0.51100000000E-03 0.  1.
         12    1    3    3    0    0  0.39039183825E+01 -0.15429140905E+02  0.57328666557E+01  0.16916404107E+02  0.00000000000E+00 0. -1.
</event>
<event>
 7    1  0.7457761E-012  0.5930195E+02  0.7816164E-02  0.1266605E+00
        -11   -1    0    0    0    0  0.00000000000E+00  0.00000000000E+00  0.45593999997E+02  0.45594000000E+02  0.51100000000E-03 0. -1.
         11   -1    0    0    0    0 -0.00000000000E+00 -0.00000000000E+00 -0.45593999997E+02  0.45594000000E+02  0.51100000000E-03 0.  1.
    9900012    2    1    2    0    0 -0.58261858288E+01  0.30051887386E+02 -0.89252170125E+01  0.59301954847E+02  0.50000019732E+02 0.  0.
         12    1    1    2    0    0  0.58261858288E+01 -0.30051887386E+02  0.89252170125E+01  0.31886045153E+02  0.00000000000E+00 0. -1.
         11    1    3    3    0    0 -0.40937253420E+01  0.39037820121E+02 -0.10344695062E+01  0.39265507948E+02  0.51100000000E-03 0. -1.
        -11    1    3    3    0    0 -0.63354332241E+01 -0.51735797835E+01 -0.10670569569E+02  0.13444876240E+02  0.51100000000E-03 0.  1.
         12    1    3    3    0    0  0.46029727373E+01 -0.38123529514E+01  0.27798220631E+01  0.65915706588E+01  0.00000000000E+00 0. -1.
</event>
<event>
 7    1  0.7457761E-012  0.5930193E+02  0.7816164E-02  0.1266605E+00
        -11   -1    0    0    0    0  0.00000000000E+00  0.00000000000E+00  0.45593999997E+02  0.45594000000E+02  0.51100000000E-03 0. -1.
         11   -1    0    0    0    0 -0.00000000000E+00 -0.00000000000E+00 -0.45593999997E+02  0.45594000000E+02  0.51100000000E-03 0.  1.
    9900012    2    1    2    0    0  0.12306410912E+02  0.21462147255E+02 -0.20115911523E+02  0.59301930773E+02  0.49999975827E+02 0.  0.
         12    1    1    2    0    0 -0.12306410912E+02 -0.21462147255E+02  0.20115911523E+02  0.31886069227E+02  0.00000000000E+00 0. -1.
         11    1    3    3    0    0  0.29647861148E+01  0.57975705055E-01  0.97615020266E+01  0.10201972357E+02  0.51100000000E-03 0. -1.
        -11    1    3    3    0    0  0.24858613205E+01  0.26211212542E+02 -0.30977592411E+02  0.40654869343E+02  0.51100000000E-03 0.  1.
        -12    1    3    3    0    0  0.68557634766E+01 -0.48070409920E+01  0.11001788613E+01  0.84450890743E+01  0.00000000000E+00 0.  1.
</event>
<event>
 7    1  0.7457761E-012  0.5930196E+02  0.7816164E-02  0.1266605E+00
        -11   -1    0    0    0    0  0.00000000000E+00  0.00000000000E+00  0.45593999997E+02  0.45594000000E+02  0.51100000000E-03 0. -1.
         11   -1    0    0    0    0 -0.00000000000E+00 -0.00000000000E+00 -0.45593999997E+02  0.45594000000E+02  0.51100000000E-03 0.  1.
    9900012    2    1    2    0    0 -0.31007781478E+02  0.74246790166E+01  0.33336790498E+00  0.59301960659E+02  0.50000030332E+02 0.  0.
         12    1    1    2    0    0  0.31007781478E+02 -0.74246790166E+01 -0.33336790498E+00  0.31886039341E+02  0.00000000000E+00 0. -1.
         11    1    3    3    0    0 -0.35707964920E+01  0.11072820032E+02  0.37179261741E+01  0.12213963581E+02  0.51100000000E-03 0. -1.
        -11    1    3    3    0    0 -0.20624925387E+02 -0.20313398601E+02 -0.26425168395E+01  0.29068962924E+02  0.51100000000E-03 0.  1.
        -12    1    3    3    0    0 -0.68120595987E+01  0.16665257586E+02 -0.74204142958E+00  0.18019034154E+02  0.00000000000E+00 0.  1.
</event>
<event>
 7    1  0.7457761E-012  0.5930195E+02  0.7816164E-02  0.1266605E+00
        -11   -1    0    0    0    0  0.00000000000E+00  0.00000000000E+00  0.45593999997E+02  0.45594000000E+02  0.51100000000E-03 0.  1.
         11   -1    0    0    0    0 -0.00000000000E+00 -0.00000000000E+00 -0.45593999997E+02  0.45594000000E+02  0.51100000000E-03 0. -1.
    9900012    2    1    2    0    0 -0.23548186729E+02  0.21452673019E+02  0.14091208418E+01  0.59301954472E+02  0.50000019048E+02 0.  0.
         12    1    1    2    0    0  0.23548186729E+02 -0.21452673019E+02 -0.14091208418E+01  0.31886045528E+02  0.00000000000E+00 0. -1.
         11    1    3    3    0    0 -0.49738196894E+01 -0.13619690733E+02 -0.16741234935E+00  0.14500444308E+02  0.51100000000E-03 0. -1.
        -11    1    3    3    0    0 -0.19655777485E+02  0.17739071881E+02 -0.35013827219E+01  0.26707376152E+02  0.51100000000E-03 0.  1.
         12    1    3    3    0    0  0.10814104447E+01  0.17333291871E+02  0.50779159131E+01  0.18094134012E+02  0.00000000000E+00 0. -1.
</event>
<event>
 7    1  0.7457761E-012  0.5930193E+02  0.7816164E-02  0.1266605E+00
        -11   -1    0    0    0    0  0.00000000000E+00  0.00000000000E+00  0.45593999997E+02  0.45594000000E+02  0.51100000000E-03 0.  1.
         11   -1    0    0    0    0 -0.00000000000E+00 -0.00000000000E+00 -0.45593999997E+02  0.45594000000E+02  0.51100000000E-03 0. -1.
    9900012    2    1    2    0    0 -0.25393142501E+02 -0.17531498030E+02 -0.80346982332E+01  0.59301929610E+02  0.49999973705E+02 0.  0.
         12    1    1    2    0    0  0.25393142501E+02  0.17531498030E+02  0.80346982332E+01  0.31886070390E+02  0.00000000000E+00 0. -1.
         11    1    3    3    0    0  0.41398378568E+01 -0.15789219610E+02  0.74862983959E+01  0.17957794333E+02  0.51100000000E-03 0. -1.
        -11    1    3    3    0    0 -0.26682003581E+02  0.20560448033E+01 -0.17967128204E+01  0.26821349939E+02  0.51100000000E-03 0.  1.
        -12    1    3    3    0    0 -0.28509767760E+01 -0.37983232238E+01 -0.13724283809E+02  0.14522785337E+02  0.00000000000E+00 0.  1.
</event>
<event>
 7    1  0.7457761E-012  0.5930178E+02  0.7816164E-02  0.1266605E+00
        -11   -1    0    0    0    0  0.00000000000E+00  0.00000000000E+00  0.45593999997E+02  0.45594000000E+02  0.51100000000E-03 0. -1.
         11   -1    0    0    0    0 -0.00000000000E+00 -0.00000000000E+00 -0.45593999997E+02  0.45594000000E+02  0.51100000000E-03 0.  1.
    9900012    2    1    2    0    0  0.99209114653E+01 -0.16120316497E-01 -0.30303568404E+02  0.59301780372E+02  0.49999701530E+02 0.  0.
         12    1    1    2    0    0 -0.99209114653E+01  0.16120316497E-01  0.30303568404E+02  0.31886219628E+02  0.00000000000E+00 0. -1.
         11    1    3    3    0    0 -0.14222875921E+02 -0.27020692699E+01 -0.11681166403E+02  0.18602178006E+02  0.51100000000E-03 0. -1.
        -11    1    3    3    0    0  0.18657434144E+02  0.74694310796E+01  0.64057023553E+00  0.20107276792E+02  0.51100000000E-03 0.  1.
        -12    1    3    3    0    0  0.54863532415E+01 -0.47834821262E+01 -0.19262972236E+02  0.20592325573E+02  0.00000000000E+00 0.  1.
</event>
<event>
 7    1  0.7457761E-012  0.5930194E+02  0.7816164E-02  0.1266605E+00
        -11   -1    0    0    0    0  0.00000000000E+00  0.00000000000E+00  0.45593999997E+02  0.45594000000E+02  0.51100000000E-03 0. -1.
         11   -1    0    0    0    0 -0.00000000000E+00 -0.00000000000E+00 -0.45593999997E+02  0.45594000000E+02  0.51100000000E-03 0.  1.
    9900012    2    1    2    0    0  0.40676425065E+01  0.29196737964E+02 -0.12154242698E+02  0.59301939741E+02  0.49999992182E+02 0.  0.
         12    1    1    2    0    0 -0.40676425065E+01 -0.29196737964E+02  0.12154242698E+02  0.31886060259E+02  0.00000000000E+00 0. -1.
         11    1    3    3    0    0 -0.19788413241E+02  0.24520008920E+02 -0.79496498532E+01  0.32496293159E+02  0.51100000000E-03 0. -1.
        -11    1    3    3    0    0  0.19537128481E+02  0.19218111956E+01 -0.71542126449E+01  0.20894389352E+02  0.51100000000E-03 0.  1.
         12    1    3    3    0    0  0.43189272663E+01  0.27549178482E+01  0.29496197999E+01  0.59112572306E+01  0.00000000000E+00 0. -1.
</event>
<event>
 7    1  0.7457761E-012  0.5930194E+02  0.7816164E-02  0.1266605E+00
        -11   -1    0    0    0    0  0.00000000000E+00  0.00000000000E+00  0.45593999997E+02  0.45594000000E+02  0.51100000000E-03 0. -1.
         11   -1    0    0    0    0 -0.00000000000E+00 -0.00000000000E+00 -0.45593999997E+02  0.45594000000E+02  0.51100000000E-03 0.  1.
    9900012    2    1    2    0    0 -0.96992537410E+01  0.28700739969E+02 -0.99454994709E+01  0.59301937878E+02  0.49999988784E+02 0.  0.
         12    1    1    2    0    0  0.96992537410E+01 -0.28700739969E+02  0.99454994709E+01  0.31886062122E+02  0.00000000000E+00 0. -1.
         11    1    3    3    0    0  0.41992860629E+01  0.15573365720E+02  0.42488656227E+01  0.16679825617E+02  0.51100000000E-03 0. -1.
        -11    1    3    3    0    0  0.40223384448E+01 -0.18829704483E+01 -0.18349251164E+02  0.18879083738E+02  0.51100000000E-03 0.  1.
        -12    1    3    3    0    0 -0.17920878249E+02  0.15010344698E+02  0.41548860701E+01  0.23743028522E+02  0.00000000000E+00 0.  1.
</event>
<event>
 7    1  0.7457761E-012  0.5930194E+02  0.7816164E-02  0.1266605E+00
        -11   -1    0    0    0    0  0.00000000000E+00  0.00000000000E+00  0.45593999997E+02  0.45594000000E+02  0.51100000000E-03 0.  1.
         11   -1    0    0    0    0 -0.00000000000E+00 -0.00000000000E+00 -0.45593999997E+02  0.45594000000E+02  0.51100000000E-03 0. -1.
    9900012    2    1    2    0    0  0.16535276386E+02  0.14461278025E+02  0.23112267505E+02  0.59301939778E+02  0.49999992250E+02 0.  0.
         12    1    1    2    0    0 -0.16535276386E+02 -0.14461278025E+02 -0.23112267505E+02  0.31886060222E+02  0.00000000000E+00 0. -1.
         11    1    3    3    0    0 -0.15359560095E+02  0.10578403810E+02  0.48555722012E+01  0.19271618903E+02  0.51100000000E-03 0. -1.
        -11    1    3    3    0    0  0.13863745751E+02  0.93167170821E+01  0.71712908030E+01  0.18177790720E+02  0.51100000000E-03 0.  1.
         12    1    3    3    0    0  0.18031090731E+02 -0.54338428673E+01  0.11085404500E+02  0.21852530155E+02  0.00000000000E+00 0. -1.
</event>
<event>
 7    1  0.7457761E-012  0.5930193E+02  0.7816164E-02  0.1266605E+00
        -11   -1    0    0    0    0  0.00000000000E+00  0.00000000000E+00  0.45593999997E+02  0.45594000000E+02  0.51100000000E-03 0.  1.
         11   -1    0    0    0    0 -0.00000000000E+00 -0.00000000000E+00 -0.45593999997E+02  0.45594000000E+02  0.51100000000E-03 0. -1.
    9900012    2    1    2    0    0  0.13864124904E+02 -0.27715018317E+02  0.75089907459E+01  0.59301934992E+02  0.49999983521E+02 0.  0.
         12    1    1    2    0    0 -0.13864124904E+02  0.27715018317E+02 -0.75089907459E+01  0.31886065008E+02  0.00000000000E+00 0. -1.
         11    1    3    3    0    0 -0.40425072829E+01 -0.14232190068E+02 -0.18439546972E+02  0.23641361891E+02  0.51100000000E-03 0. -1.
        -11    1    3    3    0    0  0.27997842715E+01 -0.77606198173E+00  0.95983141096E+01  0.10028394596E+02  0.51100000000E-03 0.  1.
        -12    1    3    3    0    0  0.15106847916E+02 -0.12706766267E+02  0.16350223608E+02  0.25632178506E+02  0.00000000000E+00 0.  1.
</event>
<event>
 7    1  0.7457761E-012  0.5930194E+02  0.7816164E-02  0.1266605E+00
        -11   -1    0    0    0    0  0.00000000000E+00  0.00000000000E+00  0.45593999997E+02  0.45594000000E+02  0.51100000000E-03 0.  1.
         11   -1    0    0    0    0 -0.00000000000E+00 -0.00000000000E+00 -0.45593999997E+02  0.45594000000E+02  0.51100000000E-03 0. -1.
    9900012    2    1    2    0    0  0.22961722588E+02 -0.22109998990E+02  0.79268357544E+00  0.59301935539E+02  0.49999984519E+02 0.  0.
         12    1    1    2    0    0 -0.22961722588E+02  0.22109998990E+02 -0.79268357544E+00  0.31886064461E+02  0.00000000000E+00 0. -1.
         11    1    3    3    0    0 -0.14190660725E+01  0.11099226543E+02 -0.73100433804E+00  0.11213427040E+02  0.51100000000E-03 0. -1.
        -11    1    3    3    0    0  0.21031334965E+02 -0.16637955165E+02  0.10676030880E+02  0.28863753015E+02  0.51100000000E-03 0.  1.
        -12    1    3    3    0    0  0.33494536963E+01 -0.16571270368E+02 -0.91523429665E+01  0.19224755485E+02  0.00000000000E+00 0.  1.
</event>
<event>
 7    1  0.7457761E-012  0.5930196E+02  0.7816164E-02  0.1266605E+00
        -11   -1    0    0    0    0  0.00000000000E+00  0.00000000000E+00  0.45593999997E+02  0.45594000000E+02  0.51100000000E-03 0. -1.
         11   -1    0    0    0    0 -0.00000000000E+00 -0.00000000000E+00 -0.45593999997E+02  0.45594000000E+02  0.51100000000E-03 0.  1.
    9900012    2    1    2    0    0  0.20821309174E+02  0.16903858168E+02  0.17246811546E+02  0.59301955323E+02  0.50000020599E+02 0.  0.
         12    1    1    2    0    0 -0.20821309174E+02 -0.16903858168E+02 -0.17246811546E+02  0.31886044677E+02  0.00000000000E+00 0. -1.
         11    1    3    3    0    0 -0.81144802560E+01 -0.91537623774E+01 -0.58168579169E+01  0.13545183342E+02  0.51100000000E-03 0. -1.
        -11    1    3    3    0    0  0.25065177883E+02  0.25154841339E+02  0.20158929801E+02  0.40833952002E+02  0.51100000000E-03 0.  1.
         12    1    3    3    0    0  0.38706115466E+01  0.90277920592E+00  0.29047396618E+01  0.49228199787E+01  0.00000000000E+00 0. -1.
</event>
<event>
 7    1  0.7457761E-012  0.5930195E+02  0.7816164E-02  0.1266605E+00
        -11   -1    0    0    0    0  0.00000000000E+00  0.00000000000E+00  0.45593999997E+02  0.45594000000E+02  0.51100000000E-03 0.  1.
         11   -1    0    0    0    0 -0.00000000000E+00 -0.00000000000E+00 -0.45593999997E+02  0.45594000000E+02  0.51100000000E-03 0. -1.
    9900012    2    1    2    0    0 -0.31396104135E+02  0.77634568095E+00 -0.55138210616E+01  0.59301948345E+02  0.50000007874E+02 0.  0.
         12    1    1    2    0    0  0.31396104135E+02 -0.77634568095E+00  0.55138210616E+01  0.31886051655E+02  0.00000000000E+00 0. -1.
         11    1    3    3    0    0 -0.19183270616E+02  0.10135324916E+02 -0.15929308772E+02  0.26915897921E+02  0.51100000000E-03 0. -1.
        -11    1    3    3    0    0 -0.17065512052E+02 -0.58016874907E+00  0.13634930496E+02  0.21851307221E+02  0.51100000000E-03 0.  1.
        -12    1    3    3    0    0  0.48526785337E+01 -0.87788104862E+01 -0.32194427855E+01  0.10534743203E+02  0.00000000000E+00 0.  1.
</event>
<event>
 7    1  0.7457761E-012  0.5930197E+02  0.7816164E-02  0.1266605E+00
        -11   -1    0    0    0    0  0.00000000000E+00  0.00000000000E+00  0.45593999997E+02  0.45594000000E+02  0.51100000000E-03 0.  1.
         11   -1    0    0    0    0 -0.00000000000E+00 -0.00000000000E+00 -0.45593999997E+02  0.45594000000E+02  0.51100000000E-03 0. -1.
    9900012    2    1    2    0    0 -0.68680774912E+01  0.31135709300E+02  0.34043176255E+00  0.59301972091E+02  0.50000051180E+02 0.  0.
         12    1    1    2    0    0  0.68680774912E+01 -0.31135709300E+02 -0.34043176255E+00  0.31886027909E+02  0.00000000000E+00 0. -1.
         11    1    3    3    0    0  0.93784740797E+01  0.24677180986E+02 -0.19454485315E+02  0.32793231567E+02  0.51100000000E-03 0. -1.
        -11    1    3    3    0    0 -0.20349012206E+01  0.13544273108E+01  0.37424316352E+01  0.44700213784E+01  0.51100000000E-03 0.  1.
         12    1    3    3    0    0 -0.14211650350E+02  0.51041010036E+01  0.16052485442E+02  0.22038719146E+02  0.00000000000E+00 0. -1.
</event>
<event>
 7    1  0.7457761E-012  0.5930195E+02  0.7816164E-02  0.1266605E+00
        -11   -1    0    0    0    0  0.00000000000E+00  0.00000000000E+00  0.45593999997E+02  0.45594000000E+02  0.51100000000E-03 0.  1.
         11   -1    0    0    0    0 -0.00000000000E+00 -0.00000000000E+00 -0.45593999997E+02  0.45594000000E+02  0.51100000000E-03 0. -1.
    9900012    2    1    2    0    0 -0.28579360440E+02 -0.11662037924E+02 -0.79960774256E+01  0.59301949352E+02  0.50000009711E+02 0.  0.
         12    1    1    2    0    0  0.28579360440E+02  0.11662037924E+02  0.79960774256E+01  0.31886050648E+02  0.00000000000E+00 0. -1.
         11    1    3    3    0    0 -0.18743537488E+02 -0.24786304403E+02 -0.66555334074E+01  0.31780138589E+02  0.51100000000E-03 0. -1.
        -11    1    3    3    0    0  0.16036783543E+01  0.10212699505E+02 -0.87848216053E+01  0.13566285650E+02  0.51100000000E-03 0.  1.
        -12    1    3    3    0    0 -0.11439501307E+02  0.29115669742E+01  0.74442775871E+01  0.13955525113E+02  0.00000000000E+00 0.  1.
</event>
<event>
 7    1  0.7457761E-012  0.5930188E+02  0.7816164E-02  0.1266605E+00
        -11   -1    0    0    0    0  0.00000000000E+00  0.00000000000E+00  0.45593999997E+02  0.45594000000E+02  0.51100000000E-03 0. -1.
         11   -1    0    0    0    0 -0.00000000000E+00 -0.00000000000E+00 -0.45593999997E+02  0.45594000000E+02  0.51100000000E-03 0.  1.
    9900012    2    1    2    0    0 -0.30995504135E+02  0.62788682866E+01 -0.40717569632E+01  0.59301879692E+02  0.49999882666E+02 0.  0.
         12    1    1    2    0    0  0.30995504135E+02 -0.62788682866E+01  0.40717569632E+01  0.31886120308E+02  0.00000000000E+00 0. -1.
         11    1    3    3    0    0 -0.11358757583E+01 -0.75007621197E+01  0.17791597474E+02  0.19341473239E+02  0.51100000000E-03 0. -1.
        -11    1    3    3    0    0 -0.33623917955E+01  0.29200142523E+01 -0.51309814831E+01  0.67940512996E+01  0.51100000000E-03 0.  1.
         12    1    3    3    0    0 -0.26497236582E+02  0.10859616154E+02 -0.16732372954E+02  0.33166355153E+02  0.00000000000E+00 0. -1.
</event>
<event>
 7    1  0.7457761E-012  0.5930195E+02  0.7816164E-02  0.1266605E+00
        -11   -1    0    0    0    0  0.00000000000E+00  0.00000000000E+00  0.45593999997E+02  0.45594000000E+02  0.51100000000E-03 0. -1.
         11   -1    0    0    0    0 -0.00000000000E+00 -0.00000000000E+00 -0.45593999997E+02  0.45594000000E+02  0.51100000000E-03 0.  1.
    9900012    2    1    2    0    0 -0.40494987682E+01 -0.31357152696E+02 -0.41292711099E+01  0.59301947479E+02  0.50000006293E+02 0.  0.
         12    1    1    2    0    0  0.40494987682E+01  0.31357152696E+02  0.41292711099E+01  0.31886052521E+02  0.00000000000E+00 0. -1.
         11    1    3    3    0    0  0.49875068932E+01 -0.75857715317E+01  0.99899618991E+01  0.13498833051E+02  0.51100000000E-03 0. -1.
        -11    1    3    3    0    0 -0.82581260701E+01 -0.28871171264E+02 -0.21404121805E+02  0.36876518366E+02  0.51100000000E-03 0.  1.
        -12    1    3    3    0    0 -0.77887959130E+00  0.50997900990E+01  0.72848887957E+01  0.89265960610E+01  0.00000000000E+00 0.  1.
</event>
<event>
 7    1  0.7457761E-012  0.5930200E+02  0.7816164E-02  0.1266605E+00
        -11   -1    0    0    0    0  0.00000000000E+00  0.00000000000E+00  0.45593999997E+02  0.45594000000E+02  0.51100000000E-03 0. -1.
         11   -1    0    0    0    0 -0.00000000000E+00 -0.00000000000E+00 -0.45593999997E+02  0.45594000000E+02  0.51100000000E-03 0.  1.
    9900012    2    1    2    0    0 -0.10228195500E+02 -0.17482054466E+02 -0.24626790150E+02  0.59301999865E+02  0.50000101833E+02 0.  0.
         12    1    1    2    0    0  0.10228195500E+02  0.17482054466E+02  0.24626790150E+02  0.31886000135E+02  0.00000000000E+00 0. -1.
         11    1    3    3    0    0  0.82711531121E+01  0.84344065254E+01 -0.67650287927E+01  0.13613111403E+02  0.51100000000E-03 0. -1.
        -11    1    3    3    0    0 -0.23701751704E+02 -0.12478817400E+02 -0.15891216964E+02  0.31145219447E+02  0.51100000000E-03 0.  1.
         12    1    3    3    0    0  0.52024030920E+01 -0.13437643591E+02 -0.19705443933E+01  0.14543669015E+02  0.00000000000E+00 0. -1.
</event>
<event>
 7    1  0.7457761E-012  0.5930199E+02  0.7816164E-02  0.1266605E+00
        -11   -1    0    0    0    0  0.00000000000E+00  0.00000000000E+00  0.45593999997E+02  0.45594000000E+02  0.51100000000E-03 0. -1.
         11   -1    0    0    0    0 -0.00000000000E+00 -0.00000000000E+00 -0.45593999997E+02  0.45594000000E+02  0.51100000000E-03 0.  1.
    9900012    2    1    2    0    0 -0.27774630944E+01 -0.17459524523E+02 -0.26536171185E+02  0.59301989291E+02  0.50000082549E+02 0.  0.
         12    1    1    2    0    0  0.27774630944E+01  0.17459524523E+02  0.26536171185E+02  0.31886010709E+02  0.00000000000E+00 0. -1.
         11    1    3    3    0    0  0.58207410620E+01  0.23666986668E+00  0.71860657281E+01  0.92507610523E+01  0.51100000000E-03 0. -1.
        -11    1    3    3    0    0 -0.38640690974E+01 -0.26485268408E+02 -0.26983519287E+02  0.38006720274E+02  0.51100000000E-03 0.  1.
        -12    1    3    3    0    0 -0.47341350590E+01  0.87890740185E+01 -0.67387176259E+01  0.12044507964E+02  0.00000000000E+00 0.  1.
</event>
<event>
 7    1  0.7457761E-012  0.5930182E+02  0.7816164E-02  0.1266605E+00
        -11   -1    0    0    0    0  0.00000000000E+00  0.00000000000E+00  0.45593999997E+02  0.45594000000E+02  0.51100000000E-03 0. -1.
         11   -1    0    0    0    0 -0.00000000000E+00 -0.00000000000E+00 -0.45593999997E+02  0.45594000000E+02  0.51100000000E-03 0.  1.
    9900012    2    1    2    0    0  0.25326074356E+02 -0.14887212280E+02 -0.12397157916E+02  0.59301817160E+02  0.49999768623E+02 0.  0.
         12    1    1    2    0    0 -0.25326074356E+02  0.14887212280E+02  0.12397157916E+02  0.31886182840E+02  0.00000000000E+00 0. -1.
         11    1    3    3    0    0  0.36655809701E+02 -0.18145192470E+02 -0.53024476160E+01  0.41243330923E+02  0.51100000000E-03 0. -1.
        -11    1    3    3    0    0 -0.72470773570E+01  0.68268097262E+01 -0.11664843181E+01  0.10024277888E+02  0.51100000000E-03 0.  1.
        -12    1    3    3    0    0 -0.40826579884E+01 -0.35688295360E+01 -0.59282259814E+01  0.80342083489E+01  0.00000000000E+00 0.  1.
</event>
<event>
 7    1  0.7457761E-012  0.5930193E+02  0.7816164E-02  0.1266605E+00
        -11   -1    0    0    0    0  0.00000000000E+00  0.00000000000E+00  0.45593999997E+02  0.45594000000E+02  0.51100000000E-03 0.  1.
         11   -1    0    0    0    0 -0.00000000000E+00 -0.00000000000E+00 -0.45593999997E+02  0.45594000000E+02  0.51100000000E-03 0. -1.
    9900012    2    1    2    0    0 -0.10727062889E+02  0.16987908710E+01  0.29979424216E+02  0.59301927100E+02  0.49999969128E+02 0.  0.
         12    1    1    2    0    0  0.10727062889E+02 -0.16987908710E+01 -0.29979424216E+02  0.31886072900E+02  0.00000000000E+00 0. -1.
         11    1    3    3    0    0 -0.41488526440E+01 -0.19923412041E+02  0.86623923947E+01  0.22117693548E+02  0.51100000000E-03 0. -1.
        -11    1    3    3    0    0 -0.73507009066E+01  0.90760119912E+01  0.21661573315E+02  0.24609562292E+02  0.51100000000E-03 0.  1.
         12    1    3    3    0    0  0.77249066155E+00  0.12546190921E+02 -0.34454149364E+00  0.12574671260E+02  0.00000000000E+00 0. -1.
</event>
<event>
 7    1  0.7457761E-012  0.5930218E+02  0.7816164E-02  0.1266604E+00
        -11   -1    0    0    0    0  0.00000000000E+00  0.00000000000E+00  0.45593999997E+02  0.45594000000E+02  0.51100000000E-03 0.  1.
         11   -1    0    0    0    0 -0.00000000000E+00 -0.00000000000E+00 -0.45593999997E+02  0.45594000000E+02  0.51100000000E-03 0. -1.
    9900012    2    1    2    0    0  0.19679430252E+02  0.17345207653E+02  0.18126489457E+02  0.59302175193E+02  0.50000421589E+02 0.  0.
         12    1    1    2    0    0 -0.19679430252E+02 -0.17345207653E+02 -0.18126489457E+02  0.31885824807E+02  0.00000000000E+00 0. -1.
         11    1    3    3    0    0 -0.36328684534E+01  0.52612286522E+00 -0.14275648318E+02  0.14740036419E+02  0.51100000000E-03 0. -1.
        -11    1    3    3    0    0  0.94535036728E+01  0.12419962458E+02  0.20536651437E+02  0.25794926859E+02  0.51100000000E-03 0.  1.
         12    1    3    3    0    0  0.13858795032E+02  0.43991223300E+01  0.11865486338E+02  0.18767211915E+02  0.00000000000E+00 0. -1.
</event>
<event>
 7    1  0.7457761E-012  0.5930194E+02  0.7816164E-02  0.1266605E+00
        -11   -1    0    0    0    0  0.00000000000E+00  0.00000000000E+00  0.45593999997E+02  0.45594000000E+02  0.51100000000E-03 0. -1.
         11   -1    0    0    0    0 -0.00000000000E+00 -0.00000000000E+00 -0.45593999997E+02  0.45594000000E+02  0.51100000000E-03 0.  1.
    9900012    2    1    2    0    0 -0.23832910083E+02 -0.20508452330E+02 -0.53025055841E+01  0.59301940578E+02  0.49999993709E+02 0.  0.
         12    1    1    2    0    0  0.23832910083E+02  0.20508452330E+02  0.53025055841E+01  0.31886059422E+02  0.00000000000E+00 0. -1.
         11    1    3    3    0    0 -0.24477385817E+01  0.72160675391E+01  0.94801467469E+01  0.12162904156E+02  0.51100000000E-03 0. -1.
        -11    1    3    3    0    0 -0.24224279981E+02 -0.12219323645E+02 -0.26759287234E+01  0.27263312450E+02  0.51100000000E-03 0.  1.
        -12    1    3    3    0    0  0.28391084803E+01 -0.15505196225E+02 -0.12106723608E+02  0.19875723973E+02  0.00000000000E+00 0.  1.
</event>
<event>
 7    1  0.7457761E-012  0.5930197E+02  0.7816164E-02  0.1266605E+00
        -11   -1    0    0    0    0  0.00000000000E+00  0.00000000000E+00  0.45593999997E+02  0.45594000000E+02  0.51100000000E-03 0.  1.
         11   -1    0    0    0    0 -0.00000000000E+00 -0.00000000000E+00 -0.45593999997E+02  0.45594000000E+02  0.51100000000E-03 0. -1.
    9900012    2    1    2    0    0  0.12834567837E+01  0.20551447891E+02  0.24345627662E+02  0.59301970802E+02  0.50000048830E+02 0.  0.
         12    1    1    2    0    0 -0.12834567837E+01 -0.20551447891E+02 -0.24345627662E+02  0.31886029198E+02  0.00000000000E+00 0. -1.
         11    1    3    3    0    0 -0.19272602752E+01 -0.38809882583E+01 -0.12430616927E+02  0.13164218149E+02  0.51100000000E-03 0. -1.
        -11    1    3    3    0    0  0.73833881548E+00  0.23207891200E+02  0.25323651731E+02  0.34357512940E+02  0.51100000000E-03 0.  1.
         12    1    3    3    0    0  0.24723782434E+01  0.12245449490E+01  0.11452592859E+02  0.11780239713E+02  0.00000000000E+00 0. -1.
</event>
<event>
 7    1  0.7457761E-012  0.5930196E+02  0.7816164E-02  0.1266605E+00
        -11   -1    0    0    0    0  0.00000000000E+00  0.00000000000E+00  0.45593999997E+02  0.45594000000E+02  0.51100000000E-03 0. -1.
         11   -1    0    0    0    0 -0.00000000000E+00 -0.00000000000E+00 -0.45593999997E+02  0.45594000000E+02  0.51100000000E-03 0.  1.
    9900012    2    1    2    0    0  0.60341965760E+00  0.29641090776E+02  0.11737178717E+02  0.59301956942E+02  0.50000023552E+02 0.  0.
         12    1    1    2    0    0 -0.60341965760E+00 -0.29641090776E+02 -0.11737178717E+02  0.31886043058E+02  0.00000000000E+00 0. -1.
         11    1    3    3    0    0  0.97284526443E+01  0.17916305430E+02  0.23945307560E+02  0.31448601647E+02  0.51100000000E-03 0. -1.
        -11    1    3    3    0    0 -0.81331921922E+01  0.17093334730E+02 -0.66533052530E+01  0.20064829391E+02  0.51100000000E-03 0.  1.
         12    1    3    3    0    0 -0.99184079452E+00 -0.53685493840E+01 -0.55548235900E+01  0.77885259046E+01  0.00000000000E+00 0. -1.
</event>
<event>
 7    1  0.7457761E-012  0.5930196E+02  0.7816164E-02  0.1266605E+00
        -11   -1    0    0    0    0  0.00000000000E+00  0.00000000000E+00  0.45593999997E+02  0.45594000000E+02  0.51100000000E-03 0. -1.
         11   -1    0    0    0    0 -0.00000000000E+00 -0.00000000000E+00 -0.45593999997E+02  0.45594000000E+02  0.51100000000E-03 0.  1.
    9900012    2    1    2    0    0 -0.13595909644E+02  0.24181345399E+02 -0.15720470504E+02  0.59301962033E+02  0.50000032837E+02 0.  0.
         12    1    1    2    0    0  0.13595909644E+02 -0.24181345399E+02  0.15720470504E+02  0.31886037967E+02  0.00000000000E+00 0. -1.
         11    1    3    3    0    0  0.92788361046E+01 -0.58888805542E+01 -0.60463639064E+01  0.12543294240E+02  0.51100000000E-03 0. -1.
        -11    1    3    3    0    0 -0.14014874992E+02  0.17236855061E+02  0.76067134879E+01  0.23481652067E+02  0.51100000000E-03 0.  1.
        -12    1    3    3    0    0 -0.88598707567E+01  0.12833370892E+02 -0.17280820085E+02  0.23277015726E+02  0.00000000000E+00 0.  1.
</event>
<event>
 7    1  0.7457761E-012  0.5930196E+02  0.7816164E-02  0.1266605E+00
        -11   -1    0    0    0    0  0.00000000000E+00  0.00000000000E+00  0.45593999997E+02  0.45594000000E+02  0.51100000000E-03 0.  1.
         11   -1    0    0    0    0 -0.00000000000E+00 -0.00000000000E+00 -0.45593999997E+02  0.45594000000E+02  0.51100000000E-03 0. -1.
    9900012    2    1    2    0    0  0.70127126172E+01  0.29342755631E+02  0.10322015448E+02  0.59301961532E+02  0.50000031924E+02 0.  0.
         12    1    1    2    0    0 -0.70127126172E+01 -0.29342755631E+02 -0.10322015448E+02  0.31886038468E+02  0.00000000000E+00 0. -1.
         11    1    3    3    0    0 -0.82127392984E+01 -0.24258743549E+01  0.49512469192E+01  0.98918552095E+01  0.51100000000E-03 0. -1.
        -11    1    3    3    0    0  0.22093217764E+02  0.17131003961E+02 -0.72699951107E+01  0.28886578147E+02  0.51100000000E-03 0.  1.
        -12    1    3    3    0    0 -0.68677658488E+01  0.14637626025E+02  0.12640763639E+02  0.20523528176E+02  0.00000000000E+00 0.  1.
</event>
<event>
 7    1  0.7457761E-012  0.5930199E+02  0.7816164E-02  0.1266605E+00
        -11   -1    0    0    0    0  0.00000000000E+00  0.00000000000E+00  0.45593999997E+02  0.45594000000E+02  0.51100000000E-03 0.  1.
         11   -1    0    0    0    0 -0.00000000000E+00 -0.00000000000E+00 -0.45593999997E+02  0.45594000000E+02  0.51100000000E-03 0. -1.
    9900012    2    1    2    0    0 -0.30184739723E+02 -0.93291577477E+01  0.43087883498E+01  0.59301994394E+02  0.50000091856E+02 0.  0.
         12    1    1    2    0    0  0.30184739723E+02  0.93291577477E+01 -0.43087883498E+01  0.31886005606E+02  0.00000000000E+00 0. -1.
         11    1    3    3    0    0  0.44516276259E+01  0.38164426044E+01 -0.10702030182E+01  0.59604997637E+01  0.51100000000E-03 0. -1.
        -11    1    3    3    0    0 -0.25999251903E+02 -0.24930517749E+02  0.11036165091E+02  0.37673448939E+02  0.51100000000E-03 0.  1.
        -12    1    3    3    0    0 -0.86371154459E+01  0.11784917397E+02 -0.56571737229E+01  0.15668045692E+02  0.00000000000E+00 0.  1.
</event>
<event>
 7    1  0.7457761E-012  0.5930195E+02  0.7816164E-02  0.1266605E+00
        -11   -1    0    0    0    0  0.00000000000E+00  0.00000000000E+00  0.45593999997E+02  0.45594000000E+02  0.51100000000E-03 0. -1.
         11   -1    0    0    0    0 -0.00000000000E+00 -0.00000000000E+00 -0.45593999997E+02  0.45594000000E+02  0.51100000000E-03 0.  1.
    9900012    2    1    2    0    0  0.98289011623E+01 -0.25714185591E+02 -0.16090165982E+02  0.59301951640E+02  0.50000013883E+02 0.  0.
         12    1    1    2    0    0 -0.98289011623E+01  0.25714185591E+02  0.16090165982E+02  0.31886048360E+02  0.00000000000E+00 0. -1.
         11    1    3    3    0    0  0.76516803248E+01 -0.22011420971E+02  0.30713813840E+01  0.23504983489E+02  0.51100000000E-03 0. -1.
        -11    1    3    3    0    0 -0.11204813315E+02  0.15174363756E+01 -0.18167048843E+02  0.21398413925E+02  0.51100000000E-03 0.  1.
         12    1    3    3    0    0  0.13382034152E+02 -0.52202009956E+01 -0.99449852296E+00  0.14398554226E+02  0.00000000000E+00 0. -1.
</event>
<event>
 7    1  0.7457761E-012  0.5930197E+02  0.7816164E-02  0.1266605E+00
        -11   -1    0    0    0    0  0.00000000000E+00  0.00000000000E+00  0.45593999997E+02  0.45594000000E+02  0.51100000000E-03 0.  1.
         11   -1    0    0    0    0 -0.00000000000E+00 -0.00000000000E+00 -0.45593999997E+02  0.45594000000E+02  0.51100000000E-03 0. -1.
    9900012    2    1    2    0    0  0.21326963325E+02 -0.15173485408E+02  0.18211125854E+02  0.59301966553E+02  0.50000041081E+02 0.  0.
         12    1    1    2    0    0 -0.21326963325E+02  0.15173485408E+02 -0.18211125854E+02  0.31886033447E+02  0.00000000000E+00 0. -1.
         11    1    3    3    0    0  0.27360551585E+02 -0.11370639167E+02  0.14847445694E+02  0.33141180758E+02  0.51100000000E-03 0.  1.
        -11    1    3    3    0    0 -0.52381119555E+01 -0.84067428307E+01 -0.87254915855E+01  0.13200202481E+02  0.51100000000E-03 0. -1.
        -12    1    3    3    0    0 -0.79547630470E+00  0.46038965897E+01  0.12089171745E+02  0.12960583314E+02  0.00000000000E+00 0.  1.
</event>
<event>
 7    1  0.7457761E-012  0.5930196E+02  0.7816164E-02  0.1266605E+00
        -11   -1    0    0    0    0  0.00000000000E+00  0.00000000000E+00  0.45593999997E+02  0.45594000000E+02  0.51100000000E-03 0. -1.
         11   -1    0    0    0    0 -0.00000000000E+00 -0.00000000000E+00 -0.45593999997E+02  0.45594000000E+02  0.51100000000E-03 0.  1.
    9900012    2    1    2    0    0 -0.18874634270E+02 -0.68877098970E+01 -0.24759392003E+02  0.59301955109E+02  0.50000020210E+02 0.  0.
         12    1    1    2    0    0  0.18874634270E+02  0.68877098970E+01  0.24759392003E+02  0.31886044891E+02  0.00000000000E+00 0. -1.
         11    1    3    3    0    0 -0.21851301282E+02 -0.23953092341E+01 -0.82881202141E+01  0.23492760821E+02  0.51100000000E-03 0. -1.
        -11    1    3    3    0    0  0.11738540314E+02  0.80886903099E+01 -0.14227466221E+01  0.14326355009E+02  0.51100000000E-03 0.  1.
        -12    1    3    3    0    0 -0.87618733016E+01 -0.12581090973E+02 -0.15048525167E+02  0.21482839280E+02  0.00000000000E+00 0.  1.
</event>
<event>
 7    1  0.7457761E-012  0.5930189E+02  0.7816164E-02  0.1266605E+00
        -11   -1    0    0    0    0  0.00000000000E+00  0.00000000000E+00  0.45593999997E+02  0.45594000000E+02  0.51100000000E-03 0. -1.
         11   -1    0    0    0    0 -0.00000000000E+00 -0.00000000000E+00 -0.45593999997E+02  0.45594000000E+02  0.51100000000E-03 0.  1.
    9900012    2    1    2    0    0 -0.15248157269E+02  0.27030927097E+02 -0.73175777475E+01  0.59301886033E+02  0.49999894231E+02 0.  0.
         12    1    1    2    0    0  0.15248157269E+02 -0.27030927097E+02  0.73175777475E+01  0.31886113967E+02  0.00000000000E+00 0. -1.
         11    1    3    3    0    0 -0.90566469695E+01  0.38621583116E+02  0.55559238695E+01  0.40056433030E+02  0.51100000000E-03 0. -1.
        -11    1    3    3    0    0 -0.45815617379E+01 -0.43976693636E+01 -0.87117229420E+01  0.10780738410E+02  0.51100000000E-03 0.  1.
         12    1    3    3    0    0 -0.16099485620E+01 -0.71929866555E+01 -0.41617786751E+01  0.84647145929E+01  0.00000000000E+00 0. -1.
</event>
<event>
 7    1  0.7457761E-012  0.5930194E+02  0.7816164E-02  0.1266605E+00
        -11   -1    0    0    0    0  0.00000000000E+00  0.00000000000E+00  0.45593999997E+02  0.45594000000E+02  0.51100000000E-03 0.  1.
         11   -1    0    0    0    0 -0.00000000000E+00 -0.00000000000E+00 -0.45593999997E+02  0.45594000000E+02  0.51100000000E-03 0. -1.
    9900012    2    1    2    0    0 -0.10219248820E+02 -0.17577549890E+02  0.24562525815E+02  0.59301937512E+02  0.49999988117E+02 0.  0.
         12    1    1    2    0    0  0.10219248820E+02  0.17577549890E+02 -0.24562525815E+02  0.31886062488E+02  0.00000000000E+00 0. -1.
         11    1    3    3    0    0  0.40469866207E+01 -0.43341626842E+01 -0.12235299262E+02  0.13596529527E+02  0.51100000000E-03 0. -1.
        -11    1    3    3    0    0 -0.43632792462E+00 -0.45286334576E+01  0.25334840578E+02  0.25740105874E+02  0.51100000000E-03 0.  1.
         12    1    3    3    0    0 -0.13829907516E+02 -0.87147537477E+01  0.11462984499E+02  0.19965302112E+02  0.00000000000E+00 0. -1.
</event>
<event>
 7    1  0.7457761E-012  0.5930197E+02  0.7816164E-02  0.1266605E+00
        -11   -1    0    0    0    0  0.00000000000E+00  0.00000000000E+00  0.45593999997E+02  0.45594000000E+02  0.51100000000E-03 0.  1.
         11   -1    0    0    0    0 -0.00000000000E+00 -0.00000000000E+00 -0.45593999997E+02  0.45594000000E+02  0.51100000000E-03 0. -1.
    9900012    2    1    2    0    0  0.16497999434E+02  0.26351955145E+02  0.70788182553E+01  0.59301965546E+02  0.50000039245E+02 0.  0.
         12    1    1    2    0    0 -0.16497999434E+02 -0.26351955145E+02 -0.70788182553E+01  0.31886034454E+02  0.00000000000E+00 0. -1.
         11    1    3    3    0    0 -0.12845512751E+02 -0.60515413462E+01 -0.27382553454E+01  0.14461203031E+02  0.51100000000E-03 0. -1.
        -11    1    3    3    0    0  0.80876863205E+01  0.10165342880E+02  0.28963083636E+01  0.13309149795E+02  0.51100000000E-03 0.  1.
         12    1    3    3    0    0  0.21255825865E+02  0.22238153611E+02  0.69207652371E+01  0.31531612720E+02  0.00000000000E+00 0. -1.
</event>
<event>
 7    1  0.7457761E-012  0.5930182E+02  0.7816164E-02  0.1266605E+00
        -11   -1    0    0    0    0  0.00000000000E+00  0.00000000000E+00  0.45593999997E+02  0.45594000000E+02  0.51100000000E-03 0.  1.
         11   -1    0    0    0    0 -0.00000000000E+00 -0.00000000000E+00 -0.45593999997E+02  0.45594000000E+02  0.51100000000E-03 0. -1.
    9900012    2    1    2    0    0 -0.10400299457E+02  0.56684887751E+01  0.29604564117E+02  0.59301824150E+02  0.49999781372E+02 0.  0.
         12    1    1    2    0    0  0.10400299457E+02 -0.56684887751E+01 -0.29604564117E+02  0.31886175850E+02  0.00000000000E+00 0. -1.
         11    1    3    3    0    0  0.57416119483E+01 -0.80442798116E+00  0.65706801816E+01  0.87628220599E+01  0.51100000000E-03 0. -1.
        -11    1    3    3    0    0 -0.18966689558E+02  0.19045791879E+02  0.34551914494E+01  0.27100107920E+02  0.51100000000E-03 0.  1.
        -12    1    3    3    0    0  0.28247781525E+01 -0.12572875123E+02  0.19578692486E+02  0.23438894170E+02  0.00000000000E+00 0.  1.
</event>
<event>
 7    1  0.7457761E-012  0.5930196E+02  0.7816164E-02  0.1266605E+00
        -11   -1    0    0    0    0  0.00000000000E+00  0.00000000000E+00  0.45593999997E+02  0.45594000000E+02  0.51100000000E-03 0. -1.
         11   -1    0    0    0    0 -0.00000000000E+00 -0.00000000000E+00 -0.45593999997E+02  0.45594000000E+02  0.51100000000E-03 0.  1.
    9900012    2    1    2    0    0  0.12913051841E+02 -0.35857074319E+01 -0.28932948007E+02  0.59301957819E+02  0.50000025151E+02 0.  0.
         12    1    1    2    0    0 -0.12913051841E+02  0.35857074319E+01  0.28932948007E+02  0.31886042181E+02  0.00000000000E+00 0. -1.
         11    1    3    3    0    0  0.13088545873E+01  0.44547171394E+01  0.71811131714E+01  0.85513736770E+01  0.51100000000E-03 0. -1.
        -11    1    3    3    0    0  0.11081443088E+02  0.27935480662E+01 -0.38053044972E+02  0.39732059141E+02  0.51100000000E-03 0.  1.
         12    1    3    3    0    0  0.52275416593E+00 -0.10833972637E+02  0.19389837942E+01  0.11018525000E+02  0.00000000000E+00 0. -1.
</event>
<event>
 7    1  0.7457761E-012  0.5930199E+02  0.7816164E-02  0.1266605E+00
        -11   -1    0    0    0    0  0.00000000000E+00  0.00000000000E+00  0.45593999997E+02  0.45594000000E+02  0.51100000000E-03 0. -1.
         11   -1    0    0    0    0 -0.00000000000E+00 -0.00000000000E+00 -0.45593999997E+02  0.45594000000E+02  0.51100000000E-03 0.  1.
    9900012    2    1    2    0    0 -0.69124161385E+01 -0.23121090820E+02 -0.20841101382E+02  0.59301986696E+02  0.50000077816E+02 0.  0.
         12    1    1    2    0    0  0.69124161385E+01  0.23121090820E+02  0.20841101382E+02  0.31886013304E+02  0.00000000000E+00 0. -1.
         11    1    3    3    0    0 -0.10668736964E+02 -0.80623093007E+01 -0.24512207447E+02  0.27922591102E+02  0.51100000000E-03 0.  1.
        -11    1    3    3    0    0 -0.98665348669E+01 -0.30171561788E+01  0.75542277832E+01  0.12787419574E+02  0.51100000000E-03 0. -1.
         12    1    3    3    0    0  0.13622855692E+02 -0.12041625341E+02 -0.38831217189E+01  0.18591976021E+02  0.00000000000E+00 0. -1.
</event>
<event>
 7    1  0.7457761E-012  0.5930192E+02  0.7816164E-02  0.1266605E+00
        -11   -1    0    0    0    0  0.00000000000E+00  0.00000000000E+00  0.45593999997E+02  0.45594000000E+02  0.51100000000E-03 0. -1.
         11   -1    0    0    0    0 -0.00000000000E+00 -0.00000000000E+00 -0.45593999997E+02  0.45594000000E+02  0.51100000000E-03 0.  1.
    9900012    2    1    2    0    0  0.26705548764E+02  0.16999407552E+02 -0.38152369902E+01  0.59301918002E+02  0.49999952536E+02 0.  0.
         12    1    1    2    0    0 -0.26705548764E+02 -0.16999407552E+02  0.38152369902E+01  0.31886081998E+02  0.00000000000E+00 0. -1.
         11    1    3    3    0    0  0.82490563345E+01 -0.12043047927E+02  0.84222417970E+01  0.16852776950E+02  0.51100000000E-03 0. -1.
        -11    1    3    3    0    0  0.17441987390E+02  0.27726508454E+02 -0.28104022212E+01  0.32876747954E+02  0.51100000000E-03 0.  1.
         12    1    3    3    0    0  0.10145050397E+01  0.13159470248E+01 -0.94270765661E+01  0.95723930984E+01  0.00000000000E+00 0. -1.
</event>
<event>
 7    1  0.7457761E-012  0.5930196E+02  0.7816164E-02  0.1266605E+00
        -11   -1    0    0    0    0  0.00000000000E+00  0.00000000000E+00  0.45593999997E+02  0.45594000000E+02  0.51100000000E-03 0. -1.
         11   -1    0    0    0    0 -0.00000000000E+00 -0.00000000000E+00 -0.45593999997E+02  0.45594000000E+02  0.51100000000E-03 0.  1.
    9900012    2    1    2    0    0  0.28960950024E+02 -0.40757209004E+01  0.12703207205E+02  0.59301959160E+02  0.50000027598E+02 0.  0.
         12    1    1    2    0    0 -0.28960950024E+02  0.40757209004E+01 -0.12703207205E+02  0.31886040840E+02  0.00000000000E+00 0. -1.
         11    1    3    3    0    0  0.18738933607E+02 -0.22067830126E+02  0.58437878474E+01  0.29534498740E+02  0.51100000000E-03 0. -1.
        -11    1    3    3    0    0  0.95069136803E+00  0.12847110941E+02 -0.50366194622E+01  0.13831833193E+02  0.51100000000E-03 0.  1.
         12    1    3    3    0    0  0.92713250489E+01  0.51449982844E+01  0.11896038820E+02  0.15935627227E+02  0.00000000000E+00 0. -1.
</event>
<event>
 7    1  0.7457761E-012  0.5930194E+02  0.7816164E-02  0.1266605E+00
        -11   -1    0    0    0    0  0.00000000000E+00  0.00000000000E+00  0.45593999997E+02  0.45594000000E+02  0.51100000000E-03 0.  1.
         11   -1    0    0    0    0 -0.00000000000E+00 -0.00000000000E+00 -0.45593999997E+02  0.45594000000E+02  0.51100000000E-03 0. -1.
    9900012    2    1    2    0    0  0.17485456987E+02 -0.17749751900E+02  0.19897884199E+02  0.59301942010E+02  0.49999996320E+02 0.  0.
         12    1    1    2    0    0 -0.17485456987E+02  0.17749751900E+02 -0.19897884199E+02  0.31886057990E+02  0.00000000000E+00 0. -1.
         11    1    3    3    0    0 -0.16843622287E+01  0.13394486335E+01  0.86461215385E+01  0.89099167604E+01  0.51100000000E-03 0. -1.
        -11    1    3    3    0    0  0.19250099671E+02 -0.29496440773E+02  0.16316005300E+02  0.38817758627E+02  0.51100000000E-03 0.  1.
        -12    1    3    3    0    0 -0.80280455535E-01  0.10407240239E+02 -0.50642426395E+01  0.11574266623E+02  0.00000000000E+00 0.  1.
</event>
<event>
 7    1  0.7457761E-012  0.5930195E+02  0.7816164E-02  0.1266605E+00
        -11   -1    0    0    0    0  0.00000000000E+00  0.00000000000E+00  0.45593999997E+02  0.45594000000E+02  0.51100000000E-03 0.  1.
         11   -1    0    0    0    0 -0.00000000000E+00 -0.00000000000E+00 -0.45593999997E+02  0.45594000000E+02  0.51100000000E-03 0. -1.
    9900012    2    1    2    0    0 -0.52380693838E+01  0.44988654058E+01  0.31129453788E+02  0.59301952049E+02  0.50000014628E+02 0.  0.
         12    1    1    2    0    0  0.52380693838E+01 -0.44988654058E+01 -0.31129453788E+02  0.31886047951E+02  0.00000000000E+00 0. -1.
         11    1    3    3    0    0  0.13111118799E+02  0.63736417523E+00 -0.60564068616E+01  0.14456408046E+02  0.51100000000E-03 0. -1.
        -11    1    3    3    0    0  0.13124761222E+01  0.38039517071E+01  0.13368867035E+02  0.13961348366E+02  0.51100000000E-03 0.  1.
         12    1    3    3    0    0 -0.19661664305E+02  0.57549523468E-01  0.23816993615E+02  0.30884195636E+02  0.00000000000E+00 0. -1.
</event>
<event>
 7    1  0.7457761E-012  0.5930197E+02  0.7816164E-02  0.1266605E+00
        -11   -1    0    0    0    0  0.00000000000E+00  0.00000000000E+00  0.45593999997E+02  0.45594000000E+02  0.51100000000E-03 0.  1.
         11   -1    0    0    0    0 -0.00000000000E+00 -0.00000000000E+00 -0.45593999997E+02  0.45594000000E+02  0.51100000000E-03 0. -1.
    9900012    2    1    2    0    0  0.26067862147E+02  0.50303794849E+01  0.17660152416E+02  0.59301966411E+02  0.50000040822E+02 0.  0.
         12    1    1    2    0    0 -0.26067862147E+02 -0.50303794849E+01 -0.17660152416E+02  0.31886033589E+02  0.00000000000E+00 0. -1.
         11    1    3    3    0    0 -0.10462124829E+02 -0.28902889199E+01  0.13606385122E+02  0.17405273406E+02  0.51100000000E-03 0. -1.
        -11    1    3    3    0    0  0.28238882324E+02  0.11405730384E+02  0.88351136563E+01  0.31710950697E+02  0.51100000000E-03 0.  1.
         12    1    3    3    0    0  0.82911046515E+01 -0.34850619794E+01 -0.47813463623E+01  0.10185742309E+02  0.00000000000E+00 0. -1.
</event>
<event>
 7    1  0.7457761E-012  0.5930195E+02  0.7816164E-02  0.1266605E+00
        -11   -1    0    0    0    0  0.00000000000E+00  0.00000000000E+00  0.45593999997E+02  0.45594000000E+02  0.51100000000E-03 0.  1.
         11   -1    0    0    0    0 -0.00000000000E+00 -0.00000000000E+00 -0.45593999997E+02  0.45594000000E+02  0.51100000000E-03 0. -1.
    9900012    2    1    2    0    0 -0.88973546856E+00 -0.19082180464E+02  0.25530359560E+02  0.59301945059E+02  0.50000001880E+02 0.  0.
         12    1    1    2    0    0  0.88973546856E+00  0.19082180464E+02 -0.25530359560E+02  0.31886054941E+02  0.00000000000E+00 0. -1.
         11    1    3    3    0    0 -0.55742940757E+01 -0.73667354822E+01  0.20838129850E+01  0.94701543242E+01  0.51100000000E-03 0. -1.
        -11    1    3    3    0    0  0.75560433444E+01  0.15136878224E+02  0.10167014823E+02  0.19737959977E+02  0.51100000000E-03 0.  1.
        -12    1    3    3    0    0 -0.28714847372E+01 -0.26852323205E+02  0.13279531753E+02  0.30093830758E+02  0.00000000000E+00 0.  1.
</event>
<event>
 7    1  0.7457761E-012  0.5930193E+02  0.7816164E-02  0.1266605E+00
        -11   -1    0    0    0    0  0.00000000000E+00  0.00000000000E+00  0.45593999997E+02  0.45594000000E+02  0.51100000000E-03 0. -1.
         11   -1    0    0    0    0 -0.00000000000E+00 -0.00000000000E+00 -0.45593999997E+02  0.45594000000E+02  0.51100000000E-03 0.  1.
    9900012    2    1    2    0    0  0.28649633434E+02  0.26393114533E+00  0.13994643379E+02  0.59301934096E+02  0.49999981886E+02 0.  0.
         12    1    1    2    0    0 -0.28649633434E+02 -0.26393114533E+00 -0.13994643379E+02  0.31886065904E+02  0.00000000000E+00 0. -1.
         11    1    3    3    0    0  0.28760215558E+01  0.13743695117E+02 -0.26330448271E+01  0.14286132464E+02  0.51100000000E-03 0.  1.
        -11    1    3    3    0    0  0.24279571565E+02 -0.83582774289E+01  0.24509947310E+02  0.35497829713E+02  0.51100000000E-03 0. -1.
        -12    1    3    3    0    0  0.14940403133E+01 -0.51214865425E+01 -0.78822591037E+01  0.95179719185E+01  0.00000000000E+00 0.  1.
</event>
<event>
 7    1  0.7457761E-012  0.5930193E+02  0.7816164E-02  0.1266605E+00
        -11   -1    0    0    0    0  0.00000000000E+00  0.00000000000E+00  0.45593999997E+02  0.45594000000E+02  0.51100000000E-03 0.  1.
         11   -1    0    0    0    0 -0.00000000000E+00 -0.00000000000E+00 -0.45593999997E+02  0.45594000000E+02  0.51100000000E-03 0. -1.
    9900012    2    1    2    0    0  0.88208342919E+01 -0.30471399841E+02 -0.32261602776E+01  0.59301930377E+02  0.49999975105E+02 0.  0.
         12    1    1    2    0    0 -0.88208342919E+01  0.30471399841E+02  0.32261602776E+01  0.31886069623E+02  0.00000000000E+00 0. -1.
         11    1    3    3    0    0 -0.11473371151E+02 -0.25334144497E+02 -0.79390022448E+01  0.28922048335E+02  0.51100000000E-03 0. -1.
        -11    1    3    3    0    0  0.11236732518E+02  0.77093048920E+01 -0.97983948969E+00  0.13662270136E+02  0.51100000000E-03 0.  1.
         12    1    3    3    0    0  0.90574729253E+01 -0.12846560236E+02  0.56926814569E+01  0.16717611906E+02  0.00000000000E+00 0. -1.
</event>
<event>
 7    1  0.7457761E-012  0.5930184E+02  0.7816164E-02  0.1266605E+00
        -11   -1    0    0    0    0  0.00000000000E+00  0.00000000000E+00  0.45593999997E+02  0.45594000000E+02  0.51100000000E-03 0. -1.
         11   -1    0    0    0    0 -0.00000000000E+00 -0.00000000000E+00 -0.45593999997E+02  0.45594000000E+02  0.51100000000E-03 0.  1.
    9900012    2    1    2    0    0  0.25488460737E+02  0.15344584565E+02  0.11472101267E+02  0.59301842915E+02  0.49999815594E+02 0.  0.
         12    1    1    2    0    0 -0.25488460737E+02 -0.15344584565E+02 -0.11472101267E+02  0.31886157085E+02  0.00000000000E+00 0. -1.
         11    1    3    3    0    0 -0.66282344122E+01  0.76375768520E+01 -0.81797067630E+01  0.13006678076E+02  0.51100000000E-03 0. -1.
        -11    1    3    3    0    0  0.19777333264E+02  0.57540328082E+01  0.25266682953E+02  0.32598421316E+02  0.51100000000E-03 0.  1.
        -12    1    3    3    0    0  0.12339361885E+02  0.19529749044E+01 -0.56148749232E+01  0.13696743522E+02  0.00000000000E+00 0.  1.
</event>
<event>
 7    1  0.7457761E-012  0.5930196E+02  0.7816164E-02  0.1266605E+00
        -11   -1    0    0    0    0  0.00000000000E+00  0.00000000000E+00  0.45593999997E+02  0.45594000000E+02  0.51100000000E-03 0.  1.
         11   -1    0    0    0    0 -0.00000000000E+00 -0.00000000000E+00 -0.45593999997E+02  0.45594000000E+02  0.51100000000E-03 0. -1.
    9900012    2    1    2    0    0 -0.11917540626E+02  0.21593631490E+02  0.20209085476E+02  0.59301955541E+02  0.50000020998E+02 0.  0.
         12    1    1    2    0    0  0.11917540626E+02 -0.21593631490E+02 -0.20209085476E+02  0.31886044459E+02  0.00000000000E+00 0. -1.
         11    1    3    3    0    0 -0.27156283792E+01 -0.63285468738E+01 -0.13116856620E+02  0.14814758549E+02  0.51100000000E-03 0. -1.
        -11    1    3    3    0    0 -0.16321961890E+01  0.47077990232E+01  0.68531164394E+01  0.84730538317E+01  0.51100000000E-03 0.  1.
         12    1    3    3    0    0 -0.75697160573E+01  0.23214379340E+02  0.26472825656E+02  0.36014143160E+02  0.00000000000E+00 0. -1.
</event>
<event>
 7    1  0.7457761E-012  0.5930184E+02  0.7816164E-02  0.1266605E+00
        -11   -1    0    0    0    0  0.00000000000E+00  0.00000000000E+00  0.45593999997E+02  0.45594000000E+02  0.51100000000E-03 0.  1.
         11   -1    0    0    0    0 -0.00000000000E+00 -0.00000000000E+00 -0.45593999997E+02  0.45594000000E+02  0.51100000000E-03 0. -1.
    9900012    2    1    2    0    0  0.31867199529E+02  0.78260954421E-01 -0.10965435117E+01  0.59301844097E+02  0.49999817750E+02 0.  0.
         12    1    1    2    0    0 -0.31867199529E+02 -0.78260954421E-01  0.10965435117E+01  0.31886155903E+02  0.00000000000E+00 0. -1.
         11    1    3    3    0    0  0.36741515910E+02 -0.17576662016E+01  0.42270923835E+00  0.36785962883E+02  0.51100000000E-03 0. -1.
        -11    1    3    3    0    0 -0.88665964517E+00 -0.99655797911E+01 -0.50594034940E+00  0.10017730372E+02  0.51100000000E-03 0.  1.
         12    1    3    3    0    0 -0.39876567363E+01  0.11801506947E+02 -0.10133124007E+01  0.12498150843E+02  0.00000000000E+00 0. -1.
</event>
<event>
 7    1  0.7457761E-012  0.5930194E+02  0.7816164E-02  0.1266605E+00
        -11   -1    0    0    0    0  0.00000000000E+00  0.00000000000E+00  0.45593999997E+02  0.45594000000E+02  0.51100000000E-03 0. -1.
         11   -1    0    0    0    0 -0.00000000000E+00 -0.00000000000E+00 -0.45593999997E+02  0.45594000000E+02  0.51100000000E-03 0.  1.
    9900012    2    1    2    0    0  0.26159765075E+02  0.17116261540E+02 -0.62786097265E+01  0.59301942577E+02  0.49999997355E+02 0.  0.
         12    1    1    2    0    0 -0.26159765075E+02 -0.17116261540E+02  0.62786097265E+01  0.31886057423E+02  0.00000000000E+00 0. -1.
         11    1    3    3    0    0  0.40318962778E+01  0.14842465041E+02  0.16414170996E+02  0.22493998441E+02  0.51100000000E-03 0. -1.
        -11    1    3    3    0    0  0.23373953021E+02  0.24291565981E+01 -0.12652570901E+02  0.26689511653E+02  0.51100000000E-03 0.  1.
         12    1    3    3    0    0 -0.12460842242E+01 -0.15536009966E+00 -0.10040209822E+02  0.10118432483E+02  0.00000000000E+00 0. -1.
</event>
<event>
 7    1  0.7457761E-012  0.5930189E+02  0.7816164E-02  0.1266605E+00
        -11   -1    0    0    0    0  0.00000000000E+00  0.00000000000E+00  0.45593999997E+02  0.45594000000E+02  0.51100000000E-03 0. -1.
         11   -1    0    0    0    0 -0.00000000000E+00 -0.00000000000E+00 -0.45593999997E+02  0.45594000000E+02  0.51100000000E-03 0.  1.
    9900012    2    1    2    0    0 -0.10766589719E+02  0.11840484576E+02 -0.27579118692E+02  0.59301885200E+02  0.49999892713E+02 0.  0.
         12    1    1    2    0    0  0.10766589719E+02 -0.11840484576E+02  0.27579118692E+02  0.31886114800E+02  0.00000000000E+00 0. -1.
         11    1    3    3    0    0 -0.39171336537E+01  0.10668305518E+02 -0.86246764952E+01  0.14266804954E+02  0.51100000000E-03 0.  1.
        -11    1    3    3    0    0 -0.33913984612E+01 -0.41770307992E+00  0.12700505528E+02  0.13152144324E+02  0.51100000000E-03 0. -1.
        -12    1    3    3    0    0 -0.34580576040E+01  0.15898821386E+01 -0.31654947725E+02  0.31882935923E+02  0.00000000000E+00 0.  1.
</event>
<event>
 7    1  0.7457761E-012  0.5930193E+02  0.7816164E-02  0.1266605E+00
        -11   -1    0    0    0    0  0.00000000000E+00  0.00000000000E+00  0.45593999997E+02  0.45594000000E+02  0.51100000000E-03 0. -1.
         11   -1    0    0    0    0 -0.00000000000E+00 -0.00000000000E+00 -0.45593999997E+02  0.45594000000E+02  0.51100000000E-03 0.  1.
    9900012    2    1    2    0    0 -0.10022506210E+02  0.12401171976E+02 -0.27613067147E+02  0.59301934480E+02  0.49999982586E+02 0.  0.
         12    1    1    2    0    0  0.10022506210E+02 -0.12401171976E+02  0.27613067147E+02  0.31886065520E+02  0.00000000000E+00 0. -1.
         11    1    3    3    0    0  0.64326604931E+01  0.13191585093E+02  0.59388809441E+01  0.15832477551E+02  0.51100000000E-03 0. -1.
        -11    1    3    3    0    0 -0.22021690666E+02 -0.12013647034E+01 -0.26979627093E+02  0.34846784863E+02  0.51100000000E-03 0.  1.
         12    1    3    3    0    0  0.55665239636E+01  0.41095158671E+00 -0.65723209979E+01  0.86226720652E+01  0.00000000000E+00 0. -1.
</event>
<event>
 7    1  0.7457761E-012  0.5930191E+02  0.7816164E-02  0.1266605E+00
        -11   -1    0    0    0    0  0.00000000000E+00  0.00000000000E+00  0.45593999997E+02  0.45594000000E+02  0.51100000000E-03 0. -1.
         11   -1    0    0    0    0 -0.00000000000E+00 -0.00000000000E+00 -0.45593999997E+02  0.45594000000E+02  0.51100000000E-03 0.  1.
    9900012    2    1    2    0    0 -0.20229166005E+01  0.27089361016E+02 -0.16697217697E+02  0.59301909762E+02  0.49999937508E+02 0.  0.
         12    1    1    2    0    0  0.20229166005E+01 -0.27089361016E+02  0.16697217697E+02  0.31886090238E+02  0.00000000000E+00 0. -1.
         11    1    3    3    0    0 -0.86697662468E+00 -0.73429175523E+01 -0.47340014457E+01  0.87795704107E+01  0.51100000000E-03 0. -1.
        -11    1    3    3    0    0 -0.14548683806E+02  0.32104576207E+02 -0.10868307124E+02  0.36884795159E+02  0.51100000000E-03 0.  1.
        -12    1    3    3    0    0  0.13392743831E+02  0.23277023615E+01 -0.10949091268E+01  0.13637544192E+02  0.00000000000E+00 0.  1.
</event>
<event>
 7    1  0.7457761E-012  0.5930195E+02  0.7816164E-02  0.1266605E+00
        -11   -1    0    0    0    0  0.00000000000E+00  0.00000000000E+00  0.45593999997E+02  0.45594000000E+02  0.51100000000E-03 0.  1.
         11   -1    0    0    0    0 -0.00000000000E+00 -0.00000000000E+00 -0.45593999997E+02  0.45594000000E+02  0.51100000000E-03 0. -1.
    9900012    2    1    2    0    0 -0.66795576604E+01  0.11320023631E+01  0.31158025874E+02  0.59301945114E+02  0.50000001980E+02 0.  0.
         12    1    1    2    0    0  0.66795576604E+01 -0.11320023631E+01 -0.31158025874E+02  0.31886054886E+02  0.00000000000E+00 0. -1.
         11    1    3    3    0    0  0.54182706063E+01  0.23426694960E+01 -0.22744439934E+01  0.63260455634E+01  0.51100000000E-03 0. -1.
        -11    1    3    3    0    0 -0.19518360789E+02 -0.29130374055E+01  0.11065435957E+01  0.19765541576E+02  0.51100000000E-03 0.  1.
         12    1    3    3    0    0  0.74205325222E+01  0.17023702726E+01  0.32325926271E+02  0.33210357974E+02  0.00000000000E+00 0. -1.
</event>
<event>
 7    1  0.7457761E-012  0.5930194E+02  0.7816164E-02  0.1266605E+00
        -11   -1    0    0    0    0  0.00000000000E+00  0.00000000000E+00  0.45593999997E+02  0.45594000000E+02  0.51100000000E-03 0.  1.
         11   -1    0    0    0    0 -0.00000000000E+00 -0.00000000000E+00 -0.45593999997E+02  0.45594000000E+02  0.51100000000E-03 0. -1.
    9900012    2    1    2    0    0  0.28141021703E+02  0.11615429438E+02 -0.94808130138E+01  0.59301935349E+02  0.49999984172E+02 0.  0.
         12    1    1    2    0    0 -0.28141021703E+02 -0.11615429438E+02  0.94808130138E+01  0.31886064651E+02  0.00000000000E+00 0. -1.
         11    1    3    3    0    0  0.20424024920E+01  0.14334005316E+02 -0.23560889088E+02  0.27654124669E+02  0.51100000000E-03 0. -1.
        -11    1    3    3    0    0  0.12894372644E+01 -0.31355415103E+01  0.27745022743E+01  0.43808825769E+01  0.51100000000E-03 0.  1.
         12    1    3    3    0    0  0.24809181947E+02  0.41696563160E+00  0.11305573800E+02  0.27266928103E+02  0.00000000000E+00 0. -1.
</event>
<event>
 7    1  0.7457761E-012  0.5930191E+02  0.7816164E-02  0.1266605E+00
        -11   -1    0    0    0    0  0.00000000000E+00  0.00000000000E+00  0.45593999997E+02  0.45594000000E+02  0.51100000000E-03 0.  1.
         11   -1    0    0    0    0 -0.00000000000E+00 -0.00000000000E+00 -0.45593999997E+02  0.45594000000E+02  0.51100000000E-03 0. -1.
    9900012    2    1    2    0    0  0.65575680034E+01 -0.31187583747E+02 -0.10273074257E+01  0.59301914655E+02  0.49999946431E+02 0.  0.
         12    1    1    2    0    0 -0.65575680034E+01  0.31187583747E+02  0.10273074257E+01  0.31886085345E+02  0.00000000000E+00 0. -1.
         11    1    3    3    0    0 -0.69997608694E+01 -0.72206293273E+01 -0.16925617966E+02  0.19687830859E+02  0.51100000000E-03 0. -1.
        -11    1    3    3    0    0  0.98390897153E+01 -0.16534130316E+02  0.22057406197E+02  0.29269682611E+02  0.51100000000E-03 0.  1.
         12    1    3    3    0    0  0.37182391575E+01 -0.74328241030E+01 -0.61590956563E+01  0.10344401185E+02  0.00000000000E+00 0. -1.
</event>
<event>
 7    1  0.7457761E-012  0.5930193E+02  0.7816164E-02  0.1266605E+00
        -11   -1    0    0    0    0  0.00000000000E+00  0.00000000000E+00  0.45593999997E+02  0.45594000000E+02  0.51100000000E-03 0. -1.
         11   -1    0    0    0    0 -0.00000000000E+00 -0.00000000000E+00 -0.45593999997E+02  0.45594000000E+02  0.51100000000E-03 0.  1.
    9900012    2    1    2    0    0  0.20403011172E+02 -0.81707147659E+01 -0.23101465774E+02  0.59301934618E+02  0.49999982838E+02 0.  0.
         12    1    1    2    0    0 -0.20403011172E+02  0.81707147659E+01  0.23101465774E+02  0.31886065382E+02  0.00000000000E+00 0. -1.
         11    1    3    3    0    0 -0.26349325161E+01 -0.29084281583E+01  0.11926541406E+01  0.41017371779E+01  0.51100000000E-03 0. -1.
        -11    1    3    3    0    0  0.89993577523E+01 -0.24779360120E+01 -0.35699387751E+02  0.36899524291E+02  0.51100000000E-03 0.  1.
        -12    1    3    3    0    0  0.14038585935E+02 -0.27843505956E+01  0.11405267836E+02  0.18300673149E+02  0.00000000000E+00 0.  1.
</event>
<event>
 7    1  0.7457761E-012  0.5930193E+02  0.7816164E-02  0.1266605E+00
        -11   -1    0    0    0    0  0.00000000000E+00  0.00000000000E+00  0.45593999997E+02  0.45594000000E+02  0.51100000000E-03 0. -1.
         11   -1    0    0    0    0 -0.00000000000E+00 -0.00000000000E+00 -0.45593999997E+02  0.45594000000E+02  0.51100000000E-03 0.  1.
    9900012    2    1    2    0    0  0.20138873099E+02  0.60990497556E+01 -0.23957228713E+02  0.59301930546E+02  0.49999975413E+02 0.  0.
         12    1    1    2    0    0 -0.20138873099E+02 -0.60990497556E+01  0.23957228713E+02  0.31886069454E+02  0.00000000000E+00 0. -1.
         11    1    3    3    0    0  0.29780339468E+02 -0.50497863830E+01 -0.89873369348E+01  0.31514142647E+02  0.51100000000E-03 0. -1.
        -11    1    3    3    0    0 -0.30826317834E+01  0.57199075892E+01 -0.17693258576E+02  0.18848643475E+02  0.51100000000E-03 0.  1.
         12    1    3    3    0    0 -0.65588345859E+01  0.54289285495E+01  0.27233667975E+01  0.89391444241E+01  0.00000000000E+00 0. -1.
</event>
<event>
 7    1  0.7457761E-012  0.5930194E+02  0.7816164E-02  0.1266605E+00
        -11   -1    0    0    0    0  0.00000000000E+00  0.00000000000E+00  0.45593999997E+02  0.45594000000E+02  0.51100000000E-03 0. -1.
         11   -1    0    0    0    0 -0.00000000000E+00 -0.00000000000E+00 -0.45593999997E+02  0.45594000000E+02  0.51100000000E-03 0.  1.
    9900012    2    1    2    0    0 -0.23500852581E+02  0.80042022868E+01 -0.20009079895E+02  0.59301943415E+02  0.49999998883E+02 0.  0.
         12    1    1    2    0    0  0.23500852581E+02 -0.80042022868E+01  0.20009079895E+02  0.31886056585E+02  0.00000000000E+00 0. -1.
         11    1    3    3    0    0 -0.36138383569E+01 -0.11635234094E+00 -0.12265054340E+02  0.12786904385E+02  0.51100000000E-03 0. -1.
        -11    1    3    3    0    0 -0.32098942781E+02  0.61827471467E+01 -0.16511286317E+01  0.32730638795E+02  0.51100000000E-03 0.  1.
        -12    1    3    3    0    0  0.12211928557E+02  0.19378074810E+01 -0.60928969238E+01  0.13784400235E+02  0.00000000000E+00 0.  1.
</event>
<event>
 7    1  0.7457761E-012  0.5930215E+02  0.7816164E-02  0.1266604E+00
        -11   -1    0    0    0    0  0.00000000000E+00  0.00000000000E+00  0.45593999997E+02  0.45594000000E+02  0.51100000000E-03 0.  1.
         11   -1    0    0    0    0 -0.00000000000E+00 -0.00000000000E+00 -0.45593999997E+02  0.45594000000E+02  0.51100000000E-03 0. -1.
    9900012    2    1    2    0    0  0.12682789100E+02  0.17075309033E+02  0.23754752886E+02  0.59302147297E+02  0.50000370712E+02 0.  0.
         12    1    1    2    0    0 -0.12682789100E+02 -0.17075309033E+02 -0.23754752886E+02  0.31885852703E+02  0.00000000000E+00 0. -1.
         11    1    3    3    0    0 -0.49900666357E+01  0.27959400713E+02  0.11270878343E+02  0.30555875902E+02  0.51100000000E-03 0. -1.
        -11    1    3    3    0    0  0.61296172238E+01 -0.12649311025E+02  0.52212995519E+01  0.14994640575E+02  0.51100000000E-03 0.  1.
         12    1    3    3    0    0  0.11543238512E+02  0.17652193448E+01  0.72625749908E+01  0.13751630819E+02  0.00000000000E+00 0. -1.
</event>
<event>
 7    1  0.7457761E-012  0.5930196E+02  0.7816164E-02  0.1266605E+00
        -11   -1    0    0    0    0  0.00000000000E+00  0.00000000000E+00  0.45593999997E+02  0.45594000000E+02  0.51100000000E-03 0. -1.
         11   -1    0    0    0    0 -0.00000000000E+00 -0.00000000000E+00 -0.45593999997E+02  0.45594000000E+02  0.51100000000E-03 0.  1.
    9900012    2    1    2    0    0  0.16349706840E+02  0.71549232367E+01 -0.26423730776E+02  0.59301962485E+02  0.50000033662E+02 0.  0.
         12    1    1    2    0    0 -0.16349706840E+02 -0.71549232367E+01  0.26423730776E+02  0.31886037515E+02  0.00000000000E+00 0. -1.
         11    1    3    3    0    0  0.33848311964E+01 -0.20944621437E+02 -0.98966329126E+01  0.23411057059E+02  0.51100000000E-03 0. -1.
        -11    1    3    3    0    0  0.55657227276E+01  0.53380670457E+01 -0.22989893182E+01  0.80472095419E+01  0.51100000000E-03 0.  1.
         12    1    3    3    0    0  0.73991529156E+01  0.22761477628E+02 -0.14228108546E+02  0.27843695884E+02  0.00000000000E+00 0. -1.
</event>
<event>
 7    1  0.7457761E-012  0.5930197E+02  0.7816164E-02  0.1266605E+00
        -11   -1    0    0    0    0  0.00000000000E+00  0.00000000000E+00  0.45593999997E+02  0.45594000000E+02  0.51100000000E-03 0.  1.
         11   -1    0    0    0    0 -0.00000000000E+00 -0.00000000000E+00 -0.45593999997E+02  0.45594000000E+02  0.51100000000E-03 0. -1.
    9900012    2    1    2    0    0 -0.51907353134E+01  0.14373939342E+02  0.27985086479E+02  0.59301969665E+02  0.50000046756E+02 0.  0.
         12    1    1    2    0    0  0.51907353134E+01 -0.14373939342E+02 -0.27985086479E+02  0.31886030335E+02  0.00000000000E+00 0. -1.
         11    1    3    3    0    0 -0.11674029076E+02  0.13146152383E+02  0.18019018217E+02  0.25175172196E+02  0.51100000000E-03 0. -1.
        -11    1    3    3    0    0 -0.91435651314E+00 -0.71662757241E+01 -0.93430052584E+01  0.11810304954E+02  0.51100000000E-03 0.  1.
        -12    1    3    3    0    0  0.73976502755E+01  0.83940626826E+01  0.19309073521E+02  0.22316492514E+02  0.00000000000E+00 0.  1.
</event>
<event>
 7    1  0.7457761E-012  0.5930193E+02  0.7816164E-02  0.1266605E+00
        -11   -1    0    0    0    0  0.00000000000E+00  0.00000000000E+00  0.45593999997E+02  0.45594000000E+02  0.51100000000E-03 0. -1.
         11   -1    0    0    0    0 -0.00000000000E+00 -0.00000000000E+00 -0.45593999997E+02  0.45594000000E+02  0.51100000000E-03 0.  1.
    9900012    2    1    2    0    0 -0.61051251664E+00  0.78528694564E+01 -0.30897913796E+02  0.59301931550E+02  0.49999977244E+02 0.  0.
         12    1    1    2    0    0  0.61051251664E+00 -0.78528694564E+01  0.30897913796E+02  0.31886068450E+02  0.00000000000E+00 0. -1.
         11    1    3    3    0    0  0.12015604512E+02 -0.34121098506E+00 -0.15117419864E+02  0.19313921412E+02  0.51100000000E-03 0. -1.
        -11    1    3    3    0    0 -0.74708080576E+01  0.85902112128E+01  0.91009293481E+01  0.14575034030E+02  0.51100000000E-03 0.  1.
        -12    1    3    3    0    0 -0.51553089714E+01 -0.39613077141E+00 -0.24881423281E+02  0.25412976108E+02  0.00000000000E+00 0.  1.
</event>
<event>
 7    1  0.7457761E-012  0.5930195E+02  0.7816164E-02  0.1266605E+00
        -11   -1    0    0    0    0  0.00000000000E+00  0.00000000000E+00  0.45593999997E+02  0.45594000000E+02  0.51100000000E-03 0.  1.
         11   -1    0    0    0    0 -0.00000000000E+00 -0.00000000000E+00 -0.45593999997E+02  0.45594000000E+02  0.51100000000E-03 0. -1.
    9900012    2    1    2    0    0 -0.39719863450E+01  0.95521089447E+01  0.30161245842E+02  0.59301949577E+02  0.50000010121E+02 0.  0.
         12    1    1    2    0    0  0.39719863450E+01 -0.95521089447E+01 -0.30161245842E+02  0.31886050423E+02  0.00000000000E+00 0. -1.
         11    1    3    3    0    0 -0.53608326676E+01 -0.18008121290E+01 -0.36908878321E+00  0.56672460689E+01  0.51100000000E-03 0.  1.
        -11    1    3    3    0    0  0.88254766642E+01  0.17453751147E+02 -0.20488502462E+01  0.19665204170E+02  0.51100000000E-03 0. -1.
        -12    1    3    3    0    0 -0.74366303416E+01 -0.61008300735E+01  0.32579184871E+02  0.33969499338E+02  0.00000000000E+00 0.  1.
</event>
<event>
 7    1  0.7457761E-012  0.5930206E+02  0.7816164E-02  0.1266604E+00
        -11   -1    0    0    0    0  0.00000000000E+00  0.00000000000E+00  0.45593999997E+02  0.45594000000E+02  0.51100000000E-03 0. -1.
         11   -1    0    0    0    0 -0.00000000000E+00 -0.00000000000E+00 -0.45593999997E+02  0.45594000000E+02  0.51100000000E-03 0.  1.
    9900012    2    1    2    0    0  0.27174623045E+02 -0.77327987947E+01  0.14780296649E+02  0.59302055074E+02  0.50000202521E+02 0.  0.
         12    1    1    2    0    0 -0.27174623045E+02  0.77327987947E+01 -0.14780296649E+02  0.31885944926E+02  0.00000000000E+00 0. -1.
         11    1    3    3    0    0 -0.12679139314E+02 -0.33845070441E+01  0.10693463617E+02  0.16928249351E+02  0.51100000000E-03 0. -1.
        -11    1    3    3    0    0  0.26991045252E+02 -0.14593951227E+00 -0.28963494252E+01  0.27146393174E+02  0.51100000000E-03 0.  1.
        -12    1    3    3    0    0  0.12862717107E+02 -0.42023522383E+01  0.69831824565E+01  0.15227412549E+02  0.00000000000E+00 0.  1.
</event>
<event>
 7    1  0.7457761E-012  0.5930197E+02  0.7816164E-02  0.1266605E+00
        -11   -1    0    0    0    0  0.00000000000E+00  0.00000000000E+00  0.45593999997E+02  0.45594000000E+02  0.51100000000E-03 0.  1.
         11   -1    0    0    0    0 -0.00000000000E+00 -0.00000000000E+00 -0.45593999997E+02  0.45594000000E+02  0.51100000000E-03 0. -1.
    9900012    2    1    2    0    0 -0.10018010392E+02 -0.19974037589E+02  0.22746344248E+02  0.59301970356E+02  0.50000048016E+02 0.  0.
         12    1    1    2    0    0  0.10018010392E+02  0.19974037589E+02 -0.22746344248E+02  0.31886029644E+02  0.00000000000E+00 0. -1.
         11    1    3    3    0    0  0.98833513631E+01 -0.14824201017E+02 -0.64073012722E+01  0.18933860668E+02  0.51100000000E-03 0. -1.
        -11    1    3    3    0    0 -0.21104341530E+02 -0.46208218938E+01  0.15350414215E+02  0.26502461079E+02  0.51100000000E-03 0.  1.
         12    1    3    3    0    0  0.12029797751E+01 -0.52901467880E+00  0.13803231306E+02  0.13865648609E+02  0.00000000000E+00 0. -1.
</event>
<event>
 7    1  0.7457761E-012  0.5930197E+02  0.7816164E-02  0.1266605E+00
        -11   -1    0    0    0    0  0.00000000000E+00  0.00000000000E+00  0.45593999997E+02  0.45594000000E+02  0.51100000000E-03 0.  1.
         11   -1    0    0    0    0 -0.00000000000E+00 -0.00000000000E+00 -0.45593999997E+02  0.45594000000E+02  0.51100000000E-03 0. -1.
    9900012    2    1    2    0    0 -0.12872842088E+02  0.16786427190E+02  0.23858436957E+02  0.59301965200E+02  0.50000038614E+02 0.  0.
         12    1    1    2    0    0  0.12872842088E+02 -0.16786427190E+02 -0.23858436957E+02  0.31886034800E+02  0.00000000000E+00 0. -1.
         11    1    3    3    0    0 -0.17841763855E+01  0.97563054134E+01 -0.11861461153E+02  0.15461663612E+02  0.51100000000E-03 0. -1.
        -11    1    3    3    0    0 -0.12473266916E+02  0.11508660687E+02  0.15172000626E+02  0.22764473673E+02  0.51100000000E-03 0.  1.
         12    1    3    3    0    0  0.13846012143E+01 -0.44785389106E+01  0.20547897484E+02  0.21075827915E+02  0.00000000000E+00 0. -1.
</event>
<event>
 7    1  0.7457761E-012  0.5930202E+02  0.7816164E-02  0.1266605E+00
        -11   -1    0    0    0    0  0.00000000000E+00  0.00000000000E+00  0.45593999997E+02  0.45594000000E+02  0.51100000000E-03 0.  1.
         11   -1    0    0    0    0 -0.00000000000E+00 -0.00000000000E+00 -0.45593999997E+02  0.45594000000E+02  0.51100000000E-03 0. -1.
    9900012    2    1    2    0    0  0.70422978924E+01 -0.19336095185E+02  0.24356464105E+02  0.59302017495E+02  0.50000133987E+02 0.  0.
         12    1    1    2    0    0 -0.70422978924E+01  0.19336095185E+02 -0.24356464105E+02  0.31885982505E+02  0.00000000000E+00 0. -1.
         11    1    3    3    0    0  0.21373938981E+02 -0.20998804951E+01  0.37784013008E+01  0.21806675178E+02  0.51100000000E-03 0. -1.
        -11    1    3    3    0    0 -0.13712694989E+02 -0.12369507958E+02  0.24870171536E+02  0.30976897254E+02  0.51100000000E-03 0.  1.
         12    1    3    3    0    0 -0.61894609962E+00 -0.48667067317E+01 -0.42921087314E+01  0.65184450637E+01  0.00000000000E+00 0. -1.
</event>
<event>
 7    1  0.7457761E-012  0.5930194E+02  0.7816164E-02  0.1266605E+00
        -11   -1    0    0    0    0  0.00000000000E+00  0.00000000000E+00  0.45593999997E+02  0.45594000000E+02  0.51100000000E-03 0.  1.
         11   -1    0    0    0    0 -0.00000000000E+00 -0.00000000000E+00 -0.45593999997E+02  0.45594000000E+02  0.51100000000E-03 0. -1.
    9900012    2    1    2    0    0 -0.47164024922E+01 -0.29366426372E+02  0.11493008029E+02  0.59301942171E+02  0.49999996613E+02 0.  0.
         12    1    1    2    0    0  0.47164024922E+01  0.29366426372E+02 -0.11493008029E+02  0.31886057829E+02  0.00000000000E+00 0. -1.
         11    1    3    3    0    0 -0.22275733757E+02 -0.55702796042E+01  0.14216201793E+02  0.27006234891E+02  0.51100000000E-03 0. -1.
        -11    1    3    3    0    0  0.71830795524E+01 -0.11998365596E+02 -0.75072915850E+01  0.15871888231E+02  0.51100000000E-03 0.  1.
        -12    1    3    3    0    0  0.10376251712E+02 -0.11797781173E+02  0.47840978205E+01  0.16423819049E+02  0.00000000000E+00 0.  1.
</event>
<event>
 7    1  0.7457761E-012  0.5930203E+02  0.7816164E-02  0.1266604E+00
        -11   -1    0    0    0    0  0.00000000000E+00  0.00000000000E+00  0.45593999997E+02  0.45594000000E+02  0.51100000000E-03 0.  1.
         11   -1    0    0    0    0 -0.00000000000E+00 -0.00000000000E+00 -0.45593999997E+02  0.45594000000E+02  0.51100000000E-03 0. -1.
    9900012    2    1    2    0    0 -0.22159720037E+02 -0.22658267409E+02  0.35021155944E+01  0.59302029923E+02  0.50000156652E+02 0.  0.
         12    1    1    2    0    0  0.22159720037E+02  0.22658267409E+02 -0.35021155944E+01  0.31885970077E+02  0.00000000000E+00 0. -1.
         11    1    3    3    0    0 -0.12260340156E+02 -0.80062752499E+01  0.20039032419E+02  0.24818928355E+02  0.51100000000E-03 0. -1.
        -11    1    3    3    0    0  0.34160490238E+01 -0.15784064862E+02 -0.12800102117E+02  0.20607006308E+02  0.51100000000E-03 0.  1.
        -12    1    3    3    0    0 -0.13315428905E+02  0.11320727025E+01 -0.37368147074E+01  0.13876095261E+02  0.00000000000E+00 0.  1.
</event>
<event>
 7    1  0.7457761E-012  0.5930196E+02  0.7816164E-02  0.1266605E+00
        -11   -1    0    0    0    0  0.00000000000E+00  0.00000000000E+00  0.45593999997E+02  0.45594000000E+02  0.51100000000E-03 0.  1.
         11   -1    0    0    0    0 -0.00000000000E+00 -0.00000000000E+00 -0.45593999997E+02  0.45594000000E+02  0.51100000000E-03 0. -1.
    9900012    2    1    2    0    0  0.27931222143E+02  0.10336377905E+02  0.11389722966E+02  0.59301958103E+02  0.50000025671E+02 0.  0.
         12    1    1    2    0    0 -0.27931222143E+02 -0.10336377905E+02 -0.11389722966E+02  0.31886041897E+02  0.00000000000E+00 0. -1.
         11    1    3    3    0    0  0.27037083730E+02  0.17060743795E+02  0.10091158160E+02  0.33524682679E+02  0.51100000000E-03 0. -1.
        -11    1    3    3    0    0 -0.81731123572E+00 -0.16059260681E+02  0.22605346182E+01  0.16238160865E+02  0.51100000000E-03 0.  1.
         12    1    3    3    0    0  0.17114496484E+01  0.93348947908E+01 -0.96196981246E+00  0.95391145592E+01  0.00000000000E+00 0. -1.
</event>
<event>
 7    1  0.7457761E-012  0.5930190E+02  0.7816164E-02  0.1266605E+00
        -11   -1    0    0    0    0  0.00000000000E+00  0.00000000000E+00  0.45593999997E+02  0.45594000000E+02  0.51100000000E-03 0.  1.
         11   -1    0    0    0    0 -0.00000000000E+00 -0.00000000000E+00 -0.45593999997E+02  0.45594000000E+02  0.51100000000E-03 0. -1.
    9900012    2    1    2    0    0  0.24724296134E+02 -0.19800755094E+02 -0.36554604610E+01  0.59301904083E+02  0.49999927150E+02 0.  0.
         12    1    1    2    0    0 -0.24724296134E+02  0.19800755094E+02  0.36554604610E+01  0.31886095917E+02  0.00000000000E+00 0. -1.
         11    1    3    3    0    0 -0.95332982926E+01 -0.12638703544E+02  0.45885112575E+01  0.16482567744E+02  0.51100000000E-03 0. -1.
        -11    1    3    3    0    0  0.95052360699E+01 -0.28936273510E+01  0.81280574876E+01  0.12836974362E+02  0.51100000000E-03 0.  1.
         12    1    3    3    0    0  0.24752358357E+02 -0.42684241988E+01 -0.16372029206E+02  0.29982361977E+02  0.00000000000E+00 0. -1.
</event>
<event>
 7    1  0.7457761E-012  0.5930194E+02  0.7816164E-02  0.1266605E+00
        -11   -1    0    0    0    0  0.00000000000E+00  0.00000000000E+00  0.45593999997E+02  0.45594000000E+02  0.51100000000E-03 0.  1.
         11   -1    0    0    0    0 -0.00000000000E+00 -0.00000000000E+00 -0.45593999997E+02  0.45594000000E+02  0.51100000000E-03 0. -1.
    9900012    2    1    2    0    0 -0.10231415642E+02  0.28443502576E+02  0.10149191061E+02  0.59301940601E+02  0.49999993750E+02 0.  0.
         12    1    1    2    0    0  0.10231415642E+02 -0.28443502576E+02 -0.10149191061E+02  0.31886059399E+02  0.00000000000E+00 0. -1.
         11    1    3    3    0    0  0.50813580810E+01 -0.57151765879E+01  0.38789318840E+01  0.85749376791E+01  0.51100000000E-03 0. -1.
        -11    1    3    3    0    0  0.35167677042E+01  0.30357197538E+02  0.75367203302E+01  0.31475851872E+02  0.51100000000E-03 0.  1.
        -12    1    3    3    0    0 -0.18829541427E+02  0.38014816252E+01 -0.12664611535E+01  0.19251151050E+02  0.00000000000E+00 0.  1.
</event>
<event>
 7    1  0.7457761E-012  0.5930193E+02  0.7816164E-02  0.1266605E+00
        -11   -1    0    0    0    0  0.00000000000E+00  0.00000000000E+00  0.45593999997E+02  0.45594000000E+02  0.51100000000E-03 0.  1.
         11   -1    0    0    0    0 -0.00000000000E+00 -0.00000000000E+00 -0.45593999997E+02  0.45594000000E+02  0.51100000000E-03 0. -1.
    9900012    2    1    2    0    0 -0.12559241776E+02  0.26401863114E+02  0.12725102830E+02  0.59301934518E+02  0.49999982656E+02 0.  0.
         12    1    1    2    0    0  0.12559241776E+02 -0.26401863114E+02 -0.12725102830E+02  0.31886065482E+02  0.00000000000E+00 0. -1.
         11    1    3    3    0    0  0.68719650077E+01  0.48057521633E+01  0.21844512451E+02  0.23398758117E+02  0.51100000000E-03 0. -1.
        -11    1    3    3    0    0 -0.21956341861E+02  0.22129430521E+02 -0.58165926899E+01  0.31711597151E+02  0.51100000000E-03 0.  1.
        -12    1    3    3    0    0  0.25251350773E+01 -0.53331956970E+00 -0.33028169317E+01  0.41915792497E+01  0.00000000000E+00 0.  1.
</event>
<event>
 7    1  0.7457761E-012  0.5930195E+02  0.7816164E-02  0.1266605E+00
        -11   -1    0    0    0    0  0.00000000000E+00  0.00000000000E+00  0.45593999997E+02  0.45594000000E+02  0.51100000000E-03 0. -1.
         11   -1    0    0    0    0 -0.00000000000E+00 -0.00000000000E+00 -0.45593999997E+02  0.45594000000E+02  0.51100000000E-03 0.  1.
    9900012    2    1    2    0    0 -0.20747473847E+02 -0.49494024652E+01 -0.23701597416E+02  0.59301953274E+02  0.50000016862E+02 0.  0.
         12    1    1    2    0    0  0.20747473847E+02  0.49494024652E+01  0.23701597416E+02  0.31886046726E+02  0.00000000000E+00 0. -1.
         11    1    3    3    0    0 -0.14955325016E+02 -0.98834134791E+01 -0.28506486362E+01  0.18151303156E+02  0.51100000000E-03 0. -1.
        -11    1    3    3    0    0  0.10196785785E+02 -0.19933971358E+01 -0.21322517198E+02  0.23719144429E+02  0.51100000000E-03 0.  1.
        -12    1    3    3    0    0 -0.15988934616E+02  0.69274081498E+01  0.47156841920E+00  0.17431505689E+02  0.00000000000E+00 0.  1.
</event>
<event>
 7    1  0.7457761E-012  0.5930185E+02  0.7816164E-02  0.1266605E+00
        -11   -1    0    0    0    0  0.00000000000E+00  0.00000000000E+00  0.45593999997E+02  0.45594000000E+02  0.51100000000E-03 0.  1.
         11   -1    0    0    0    0 -0.00000000000E+00 -0.00000000000E+00 -0.45593999997E+02  0.45594000000E+02  0.51100000000E-03 0. -1.
    9900012    2    1    2    0    0  0.13507534666E+02 -0.11311665611E+02  0.26576674057E+02  0.59301845080E+02  0.49999819542E+02 0.  0.
         12    1    1    2    0    0 -0.13507534666E+02  0.11311665611E+02 -0.26576674057E+02  0.31886154920E+02  0.00000000000E+00 0. -1.
         11    1    3    3    0    0 -0.31621104332E+01  0.78044357489E+01  0.87473021979E+01  0.12141806116E+02  0.51100000000E-03 0. -1.
        -11    1    3    3    0    0  0.12802176396E+02 -0.21088279713E+02  0.27267529941E+02  0.36771312882E+02  0.51100000000E-03 0.  1.
        -12    1    3    3    0    0  0.38674687031E+01  0.19721783525E+01 -0.94381580820E+01  0.10388726082E+02  0.00000000000E+00 0.  1.
</event>
<event>
 7    1  0.7457761E-012  0.5930194E+02  0.7816164E-02  0.1266605E+00
        -11   -1    0    0    0    0  0.00000000000E+00  0.00000000000E+00  0.45593999997E+02  0.45594000000E+02  0.51100000000E-03 0. -1.
         11   -1    0    0    0    0 -0.00000000000E+00 -0.00000000000E+00 -0.45593999997E+02  0.45594000000E+02  0.51100000000E-03 0.  1.
    9900012    2    1    2    0    0  0.22972571689E+01  0.10377830041E+01 -0.31786260237E+02  0.59301941543E+02  0.49999995468E+02 0.  0.
         12    1    1    2    0    0 -0.22972571689E+01 -0.10377830041E+01  0.31786260237E+02  0.31886058457E+02  0.00000000000E+00 0. -1.
         11    1    3    3    0    0  0.52651280731E+01  0.20425847810E+02 -0.43665329880E+01  0.21540739146E+02  0.51100000000E-03 0. -1.
        -11    1    3    3    0    0 -0.96738260081E+01 -0.74634711834E+01 -0.11620087499E+02  0.16861576008E+02  0.51100000000E-03 0.  1.
         12    1    3    3    0    0  0.67059551039E+01 -0.11924593622E+02 -0.15799639751E+02  0.20899626388E+02  0.00000000000E+00 0. -1.
</event>
<event>
 7    1  0.7457761E-012  0.5930195E+02  0.7816164E-02  0.1266605E+00
        -11   -1    0    0    0    0  0.00000000000E+00  0.00000000000E+00  0.45593999997E+02  0.45594000000E+02  0.51100000000E-03 0. -1.
         11   -1    0    0    0    0 -0.00000000000E+00 -0.00000000000E+00 -0.45593999997E+02  0.45594000000E+02  0.51100000000E-03 0.  1.
    9900012    2    1    2    0    0  0.16458600297E+02 -0.14094264753E+02 -0.23392015122E+02  0.59301949850E+02  0.50000010619E+02 0.  0.
         12    1    1    2    0    0 -0.16458600297E+02  0.14094264753E+02  0.23392015122E+02  0.31886050150E+02  0.00000000000E+00 0. -1.
         11    1    3    3    0    0 -0.19976316046E+00  0.78757616008E+01  0.58414581336E+01  0.98076582068E+01  0.51100000000E-03 0. -1.
        -11    1    3    3    0    0  0.12353846826E+02 -0.75338103064E+01 -0.31113006722E+02  0.34313190127E+02  0.51100000000E-03 0.  1.
         12    1    3    3    0    0  0.43045166308E+01 -0.14436216048E+02  0.18795334662E+01  0.15181101517E+02  0.00000000000E+00 0. -1.
</event>
<event>
 7    1  0.7457761E-012  0.5930195E+02  0.7816164E-02  0.1266605E+00
        -11   -1    0    0    0    0  0.00000000000E+00  0.00000000000E+00  0.45593999997E+02  0.45594000000E+02  0.51100000000E-03 0.  1.
         11   -1    0    0    0    0 -0.00000000000E+00 -0.00000000000E+00 -0.45593999997E+02  0.45594000000E+02  0.51100000000E-03 0. -1.
    9900012    2    1    2    0    0  0.66280335382E+01 -0.10661046568E+02  0.29310948618E+02  0.59301945817E+02  0.50000003263E+02 0.  0.
         12    1    1    2    0    0 -0.66280335382E+01  0.10661046568E+02 -0.29310948618E+02  0.31886054183E+02  0.00000000000E+00 0. -1.
         11    1    3    3    0    0  0.39566142872E+00  0.69648465996E+01 -0.25258437416E+01  0.74192670117E+01  0.51100000000E-03 0. -1.
        -11    1    3    3    0    0 -0.88281012230E+01 -0.16662963930E+02  0.26729544816E+01  0.19045588047E+02  0.51100000000E-03 0.  1.
        -12    1    3    3    0    0  0.15060473332E+02 -0.96292923742E+00  0.29163837878E+02  0.32837090758E+02  0.00000000000E+00 0.  1.
</event>
<event>
 7    1  0.7457761E-012  0.5930195E+02  0.7816164E-02  0.1266605E+00
        -11   -1    0    0    0    0  0.00000000000E+00  0.00000000000E+00  0.45593999997E+02  0.45594000000E+02  0.51100000000E-03 0.  1.
         11   -1    0    0    0    0 -0.00000000000E+00 -0.00000000000E+00 -0.45593999997E+02  0.45594000000E+02  0.51100000000E-03 0. -1.
    9900012    2    1    2    0    0 -0.71413348700E+01 -0.24365377295E+02  0.19288602756E+02  0.59301945513E+02  0.50000002709E+02 0.  0.
         12    1    1    2    0    0  0.71413348700E+01  0.24365377295E+02 -0.19288602756E+02  0.31886054487E+02  0.00000000000E+00 0. -1.
         11    1    3    3    0    0  0.76664377310E+01 -0.62168508975E+01 -0.14128880983E+02  0.17235103152E+02  0.51100000000E-03 0. -1.
        -11    1    3    3    0    0 -0.11599154080E+02 -0.17392677055E+02  0.22727629431E+02  0.30880264414E+02  0.51100000000E-03 0.  1.
         12    1    3    3    0    0 -0.32086185212E+01 -0.75584934300E+00  0.10689854308E+02  0.11186577947E+02  0.00000000000E+00 0. -1.
</event>
<event>
 7    1  0.7457761E-012  0.5930194E+02  0.7816164E-02  0.1266605E+00
        -11   -1    0    0    0    0  0.00000000000E+00  0.00000000000E+00  0.45593999997E+02  0.45594000000E+02  0.51100000000E-03 0. -1.
         11   -1    0    0    0    0 -0.00000000000E+00 -0.00000000000E+00 -0.45593999997E+02  0.45594000000E+02  0.51100000000E-03 0.  1.
    9900012    2    1    2    0    0  0.64900772012E+01 -0.25948261675E+01 -0.31110555444E+02  0.59301939017E+02  0.49999990863E+02 0.  0.
         12    1    1    2    0    0 -0.64900772012E+01  0.25948261675E+01  0.31110555444E+02  0.31886060983E+02  0.00000000000E+00 0. -1.
         11    1    3    3    0    0  0.76064077559E+01  0.20981756813E+01  0.87007963941E+01  0.11745792365E+02  0.51100000000E-03 0. -1.
        -11    1    3    3    0    0 -0.87077773599E+01 -0.44854146463E+01 -0.34110232062E+01  0.10372049492E+02  0.51100000000E-03 0.  1.
         12    1    3    3    0    0  0.75914468052E+01 -0.20758720253E+00 -0.36400328632E+02  0.37184097160E+02  0.00000000000E+00 0. -1.
</event>
<event>
 7    1  0.7457761E-012  0.5930205E+02  0.7816164E-02  0.1266604E+00
        -11   -1    0    0    0    0  0.00000000000E+00  0.00000000000E+00  0.45593999997E+02  0.45594000000E+02  0.51100000000E-03 0. -1.
         11   -1    0    0    0    0 -0.00000000000E+00 -0.00000000000E+00 -0.45593999997E+02  0.45594000000E+02  0.51100000000E-03 0.  1.
    9900012    2    1    2    0    0  0.22462145841E+02 -0.12109142030E+02 -0.19118949653E+02  0.59302054000E+02  0.50000200562E+02 0.  0.
         12    1    1    2    0    0 -0.22462145841E+02  0.12109142030E+02  0.19118949653E+02  0.31885946000E+02  0.00000000000E+00 0. -1.
         11    1    3    3    0    0 -0.50509804426E+01  0.40028212955E+01 -0.25490854496E+02  0.26292939070E+02  0.51100000000E-03 0. -1.
        -11    1    3    3    0    0  0.98374008383E+01 -0.56754797056E+01 -0.48432968467E+00  0.11367501953E+02  0.51100000000E-03 0.  1.
         12    1    3    3    0    0  0.17675725445E+02 -0.10436483620E+02  0.68562345270E+01  0.21641612977E+02  0.00000000000E+00 0. -1.
</event>
<event>
 7    1  0.7457761E-012  0.5930179E+02  0.7816164E-02  0.1266605E+00
        -11   -1    0    0    0    0  0.00000000000E+00  0.00000000000E+00  0.45593999997E+02  0.45594000000E+02  0.51100000000E-03 0.  1.
         11   -1    0    0    0    0 -0.00000000000E+00 -0.00000000000E+00 -0.45593999997E+02  0.45594000000E+02  0.51100000000E-03 0. -1.
    9900012    2    1    2    0    0  0.12232489886E+02 -0.27828898716E+02  0.96254363329E+01  0.59301789231E+02  0.49999717688E+02 0.  0.
         12    1    1    2    0    0 -0.12232489886E+02  0.27828898716E+02 -0.96254363329E+01  0.31886210769E+02  0.00000000000E+00 0. -1.
         11    1    3    3    0    0  0.21579787767E+02 -0.92392410774E+01  0.14255402090E+02  0.27463927337E+02  0.51100000000E-03 0. -1.
        -11    1    3    3    0    0 -0.37951762983E+01 -0.90526796393E+01  0.96672245559E+01  0.13777140584E+02  0.51100000000E-03 0.  1.
        -12    1    3    3    0    0 -0.55521215819E+01 -0.95369779994E+01 -0.14297190313E+02  0.18060721311E+02  0.00000000000E+00 0.  1.
</event>
<event>
 7    1  0.7457761E-012  0.5930193E+02  0.7816164E-02  0.1266605E+00
        -11   -1    0    0    0    0  0.00000000000E+00  0.00000000000E+00  0.45593999997E+02  0.45594000000E+02  0.51100000000E-03 0.  1.
         11   -1    0    0    0    0 -0.00000000000E+00 -0.00000000000E+00 -0.45593999997E+02  0.45594000000E+02  0.51100000000E-03 0. -1.
    9900012    2    1    2    0    0 -0.26836557272E+02  0.11008830973E+02  0.13241074261E+02  0.59301933871E+02  0.49999981476E+02 0.  0.
         12    1    1    2    0    0  0.26836557272E+02 -0.11008830973E+02 -0.13241074261E+02  0.31886066129E+02  0.00000000000E+00 0. -1.
         11    1    3    3    0    0 -0.35014842969E+02 -0.21488196302E+01  0.12635228547E+02  0.37286802688E+02  0.51100000000E-03 0. -1.
        -11    1    3    3    0    0 -0.68300560504E+00  0.80430737316E+01  0.63601157520E+01  0.10276604709E+02  0.51100000000E-03 0.  1.
         12    1    3    3    0    0  0.88612913016E+01  0.51145768711E+01 -0.57542700383E+01  0.11738526474E+02  0.00000000000E+00 0. -1.
</event>
<event>
 7    1  0.7457761E-012  0.5930193E+02  0.7816164E-02  0.1266605E+00
        -11   -1    0    0    0    0  0.00000000000E+00  0.00000000000E+00  0.45593999997E+02  0.45594000000E+02  0.51100000000E-03 0. -1.
         11   -1    0    0    0    0 -0.00000000000E+00 -0.00000000000E+00 -0.45593999997E+02  0.45594000000E+02  0.51100000000E-03 0.  1.
    9900012    2    1    2    0    0  0.58005579998E+01 -0.31332193830E+02 -0.11698005413E+01  0.59301932876E+02  0.49999979663E+02 0.  0.
         12    1    1    2    0    0 -0.58005579998E+01  0.31332193830E+02  0.11698005413E+01  0.31886067124E+02  0.00000000000E+00 0. -1.
         11    1    3    3    0    0 -0.10538830796E+02 -0.13383398686E+02  0.17276147163E+02  0.24262060424E+02  0.51100000000E-03 0. -1.
        -11    1    3    3    0    0  0.81675586063E+01 -0.16042311800E+02 -0.19550680091E+02  0.26576189978E+02  0.51100000000E-03 0.  1.
        -12    1    3    3    0    0  0.81718301897E+01 -0.19064833448E+01  0.11047323863E+01  0.84636824750E+01  0.00000000000E+00 0.  1.
</event>
<event>
 7    1  0.7457761E-012  0.5930194E+02  0.7816164E-02  0.1266605E+00
        -11   -1    0    0    0    0  0.00000000000E+00  0.00000000000E+00  0.45593999997E+02  0.45594000000E+02  0.51100000000E-03 0.  1.
         11   -1    0    0    0    0 -0.00000000000E+00 -0.00000000000E+00 -0.45593999997E+02  0.45594000000E+02  0.51100000000E-03 0. -1.
    9900012    2    1    2    0    0  0.13674825857E+02  0.27123310821E+02  0.96977155949E+01  0.59301944429E+02  0.50000000732E+02 0.  0.
         12    1    1    2    0    0 -0.13674825857E+02 -0.27123310821E+02 -0.96977155949E+01  0.31886055571E+02  0.00000000000E+00 0. -1.
         11    1    3    3    0    0  0.17725301161E+01 -0.75375212726E+01  0.63070951755E+01  0.99867682341E+01  0.51100000000E-03 0. -1.
        -11    1    3    3    0    0  0.64160166637E+01  0.35752746222E+02  0.12678401034E+02  0.38472925354E+02  0.51100000000E-03 0.  1.
        -12    1    3    3    0    0  0.54862790769E+01 -0.10919141281E+01 -0.92877806142E+01  0.10842250841E+02  0.00000000000E+00 0.  1.
</event>
<event>
 7    1  0.7457761E-012  0.5930226E+02  0.7816164E-02  0.1266604E+00
        -11   -1    0    0    0    0  0.00000000000E+00  0.00000000000E+00  0.45593999997E+02  0.45594000000E+02  0.51100000000E-03 0.  1.
         11   -1    0    0    0    0 -0.00000000000E+00 -0.00000000000E+00 -0.45593999997E+02  0.45594000000E+02  0.51100000000E-03 0. -1.
    9900012    2    1    2    0    0 -0.85462019655E+01 -0.20439500155E+02  0.22932283904E+02  0.59302260559E+02  0.50000577275E+02 0.  0.
         12    1    1    2    0    0  0.85462019655E+01  0.20439500155E+02 -0.22932283904E+02  0.31885739441E+02  0.00000000000E+00 0. -1.
         11    1    3    3    0    0 -0.14353702098E+02  0.36340077788E+01 -0.69495231118E+01  0.16356364150E+02  0.51100000000E-03 0. -1.
        -11    1    3    3    0    0  0.11156924462E+02 -0.16729710216E+02  0.13521368275E+02  0.24231953443E+02  0.51100000000E-03 0.  1.
         12    1    3    3    0    0 -0.53494243300E+01 -0.73437977177E+01  0.16360438741E+02  0.18713942967E+02  0.00000000000E+00 0. -1.
</event>
<event>
 7    1  0.7457761E-012  0.5930195E+02  0.7816164E-02  0.1266605E+00
        -11   -1    0    0    0    0  0.00000000000E+00  0.00000000000E+00  0.45593999997E+02  0.45594000000E+02  0.51100000000E-03 0. -1.
         11   -1    0    0    0    0 -0.00000000000E+00 -0.00000000000E+00 -0.45593999997E+02  0.45594000000E+02  0.51100000000E-03 0.  1.
    9900012    2    1    2    0    0 -0.13540592074E+02 -0.18033267064E+02 -0.22542717744E+02  0.59301945399E+02  0.50000002501E+02 0.  0.
         12    1    1    2    0    0  0.13540592074E+02  0.18033267064E+02  0.22542717744E+02  0.31886054601E+02  0.00000000000E+00 0. -1.
         11    1    3    3    0    0 -0.20636354627E+02 -0.18594425552E+02 -0.26622906398E+02  0.38475848778E+02  0.51100000000E-03 0.  1.
        -11    1    3    3    0    0  0.15840707873E+01 -0.76299727503E+01  0.70580811916E+01  0.10513908636E+02  0.51100000000E-03 0. -1.
        -12    1    3    3    0    0  0.55116917660E+01  0.81911312377E+01 -0.29778925378E+01  0.10312187985E+02  0.00000000000E+00 0.  1.
</event>
<event>
 7    1  0.7457761E-012  0.5930192E+02  0.7816164E-02  0.1266605E+00
        -11   -1    0    0    0    0  0.00000000000E+00  0.00000000000E+00  0.45593999997E+02  0.45594000000E+02  0.51100000000E-03 0.  1.
         11   -1    0    0    0    0 -0.00000000000E+00 -0.00000000000E+00 -0.45593999997E+02  0.45594000000E+02  0.51100000000E-03 0. -1.
    9900012    2    1    2    0    0  0.22353425198E+02  0.21578125837E+02  0.71715182642E+01  0.59301924560E+02  0.49999964496E+02 0.  0.
         12    1    1    2    0    0 -0.22353425198E+02 -0.21578125837E+02 -0.71715182642E+01  0.31886075440E+02  0.00000000000E+00 0. -1.
         11    1    3    3    0    0 -0.40631294646E+01  0.32276298795E+01 -0.86490231348E+01  0.10086238998E+02  0.51100000000E-03 0. -1.
        -11    1    3    3    0    0  0.14099389962E+02 -0.71403014897E+01  0.13543627581E+02  0.20813614558E+02  0.51100000000E-03 0.  1.
        -12    1    3    3    0    0  0.12317164701E+02  0.25490797447E+02  0.22769138180E+01  0.28402071003E+02  0.00000000000E+00 0.  1.
</event>
<event>
 7    1  0.7457761E-012  0.5930190E+02  0.7816164E-02  0.1266605E+00
        -11   -1    0    0    0    0  0.00000000000E+00  0.00000000000E+00  0.45593999997E+02  0.45594000000E+02  0.51100000000E-03 0. -1.
         11   -1    0    0    0    0 -0.00000000000E+00 -0.00000000000E+00 -0.45593999997E+02  0.45594000000E+02  0.51100000000E-03 0.  1.
    9900012    2    1    2    0    0  0.13776679373E+02 -0.11347411275E+02 -0.26422768018E+02  0.59301901040E+02  0.49999921600E+02 0.  0.
         12    1    1    2    0    0 -0.13776679373E+02  0.11347411275E+02  0.26422768018E+02  0.31886098960E+02  0.00000000000E+00 0. -1.
         11    1    3    3    0    0 -0.17415977488E+02 -0.25423534803E+01 -0.77650838481E+01  0.19237368856E+02  0.51100000000E-03 0. -1.
        -11    1    3    3    0    0  0.25251642921E+01 -0.55136749588E+01 -0.76734537788E+00  0.61127641410E+01  0.51100000000E-03 0.  1.
         12    1    3    3    0    0  0.28667492569E+02 -0.32913828363E+01 -0.17890338792E+02  0.33951768043E+02  0.00000000000E+00 0. -1.
</event>
<event>
 7    1  0.7457761E-012  0.5930166E+02  0.7816164E-02  0.1266606E+00
        -11   -1    0    0    0    0  0.00000000000E+00  0.00000000000E+00  0.45593999997E+02  0.45594000000E+02  0.51100000000E-03 0.  1.
         11   -1    0    0    0    0 -0.00000000000E+00 -0.00000000000E+00 -0.45593999997E+02  0.45594000000E+02  0.51100000000E-03 0. -1.
    9900012    2    1    2    0    0  0.78439698415E+01  0.91683610646E+01  0.29515285200E+02  0.59301658599E+02  0.49999479445E+02 0.  0.
         12    1    1    2    0    0 -0.78439698415E+01 -0.91683610646E+01 -0.29515285200E+02  0.31886341401E+02  0.00000000000E+00 0. -1.
         11    1    3    3    0    0  0.19543111960E+02  0.35574363827E+01  0.52935198835E+01  0.20557478730E+02  0.51100000000E-03 0. -1.
        -11    1    3    3    0    0 -0.76494730969E+00  0.28845590946E+01  0.26978391142E+02  0.27142944100E+02  0.51100000000E-03 0.  1.
         12    1    3    3    0    0 -0.10934194809E+02  0.27263655873E+01 -0.27566258255E+01  0.11601235770E+02  0.00000000000E+00 0. -1.
</event>
<event>
 7    1  0.7457761E-012  0.5930194E+02  0.7816164E-02  0.1266605E+00
        -11   -1    0    0    0    0  0.00000000000E+00  0.00000000000E+00  0.45593999997E+02  0.45594000000E+02  0.51100000000E-03 0. -1.
         11   -1    0    0    0    0 -0.00000000000E+00 -0.00000000000E+00 -0.45593999997E+02  0.45594000000E+02  0.51100000000E-03 0.  1.
    9900012    2    1    2    0    0  0.55505355912E+01 -0.17880124073E+02 -0.25811110141E+02  0.59301942092E+02  0.49999996469E+02 0.  0.
         12    1    1    2    0    0 -0.55505355912E+01  0.17880124073E+02  0.25811110141E+02  0.31886057908E+02  0.00000000000E+00 0. -1.
         11    1    3    3    0    0  0.87857092411E+01 -0.23314811536E+02 -0.77011058780E+01  0.26078269801E+02  0.51100000000E-03 0.  1.
        -11    1    3    3    0    0 -0.64984024414E+01  0.55688640854E+01  0.49814879299E+01  0.99023584942E+01  0.51100000000E-03 0. -1.
         12    1    3    3    0    0  0.32632287915E+01 -0.13417662300E+00 -0.23091492193E+02  0.23321313797E+02  0.00000000000E+00 0. -1.
</event>
<event>
 7    1  0.7457761E-012  0.5930198E+02  0.7816164E-02  0.1266605E+00
        -11   -1    0    0    0    0  0.00000000000E+00  0.00000000000E+00  0.45593999997E+02  0.45594000000E+02  0.51100000000E-03 0.  1.
         11   -1    0    0    0    0 -0.00000000000E+00 -0.00000000000E+00 -0.45593999997E+02  0.45594000000E+02  0.51100000000E-03 0. -1.
    9900012    2    1    2    0    0 -0.16207928166E+02  0.15910512415E+02  0.22380285098E+02  0.59301976388E+02  0.50000059018E+02 0.  0.
         12    1    1    2    0    0  0.16207928166E+02 -0.15910512415E+02 -0.22380285098E+02  0.31886023612E+02  0.00000000000E+00 0. -1.
         11    1    3    3    0    0 -0.26333422650E+02  0.17670841322E+02  0.24758116160E+02  0.40232724212E+02  0.51100000000E-03 0.  1.
        -11    1    3    3    0    0  0.71470643976E+01  0.63416852483E+01 -0.38702811297E+01  0.10309053185E+02  0.51100000000E-03 0. -1.
        -12    1    3    3    0    0  0.29784300867E+01 -0.81020141555E+01  0.14924500674E+01  0.87601989909E+01  0.00000000000E+00 0.  1.
</event>
<event>
 7    1  0.7457761E-012  0.5930192E+02  0.7816164E-02  0.1266605E+00
        -11   -1    0    0    0    0  0.00000000000E+00  0.00000000000E+00  0.45593999997E+02  0.45594000000E+02  0.51100000000E-03 0.  1.
         11   -1    0    0    0    0 -0.00000000000E+00 -0.00000000000E+00 -0.45593999997E+02  0.45594000000E+02  0.51100000000E-03 0. -1.
    9900012    2    1    2    0    0  0.19063862093E+02  0.24761784872E+02  0.63360447803E+01  0.59301916964E+02  0.49999950642E+02 0.  0.
         12    1    1    2    0    0 -0.19063862093E+02 -0.24761784872E+02 -0.63360447803E+01  0.31886083036E+02  0.00000000000E+00 0. -1.
         11    1    3    3    0    0  0.25259557479E+02 -0.18396598887E+01 -0.82804095728E+00  0.25339992988E+02  0.51100000000E-03 0. -1.
        -11    1    3    3    0    0 -0.98063140785E+00  0.12438002549E+02  0.12777681583E+02  0.17858742740E+02  0.51100000000E-03 0.  1.
        -12    1    3    3    0    0 -0.52150639782E+01  0.14163442212E+02 -0.56135958458E+01  0.16103181236E+02  0.00000000000E+00 0.  1.
</event>
<event>
 7    1  0.7457761E-012  0.5930192E+02  0.7816164E-02  0.1266605E+00
        -11   -1    0    0    0    0  0.00000000000E+00  0.00000000000E+00  0.45593999997E+02  0.45594000000E+02  0.51100000000E-03 0. -1.
         11   -1    0    0    0    0 -0.00000000000E+00 -0.00000000000E+00 -0.45593999997E+02  0.45594000000E+02  0.51100000000E-03 0.  1.
    9900012    2    1    2    0    0  0.36574754051E+01  0.17292840194E+02 -0.26538701118E+02  0.59301919882E+02  0.49999955963E+02 0.  0.
         12    1    1    2    0    0 -0.36574754051E+01 -0.17292840194E+02  0.26538701118E+02  0.31886080118E+02  0.00000000000E+00 0. -1.
         11    1    3    3    0    0  0.24054011287E+02  0.12107619318E+02 -0.27007122907E+02  0.38138885570E+02  0.51100000000E-03 0.  1.
        -11    1    3    3    0    0 -0.17055460273E+02  0.50316410176E+01  0.81277121283E+00  0.17800750933E+02  0.51100000000E-03 0. -1.
        -12    1    3    3    0    0 -0.33410756084E+01  0.15357985795E+00 -0.34434942328E+00  0.33622833787E+01  0.00000000000E+00 0.  1.
</event>
<event>
 7    1  0.7457761E-012  0.5930194E+02  0.7816164E-02  0.1266605E+00
        -11   -1    0    0    0    0  0.00000000000E+00  0.00000000000E+00  0.45593999997E+02  0.45594000000E+02  0.51100000000E-03 0.  1.
         11   -1    0    0    0    0 -0.00000000000E+00 -0.00000000000E+00 -0.45593999997E+02  0.45594000000E+02  0.51100000000E-03 0. -1.
    9900012    2    1    2    0    0 -0.26113648047E+02 -0.69050025624E+01  0.16944595893E+02  0.59301937140E+02  0.49999987438E+02 0.  0.
         12    1    1    2    0    0  0.26113648047E+02  0.69050025624E+01 -0.16944595893E+02  0.31886062860E+02  0.00000000000E+00 0. -1.
         11    1    3    3    0    0 -0.92732959927E+01 -0.19067030911E+02  0.25903280924E+02  0.33474253527E+02  0.51100000000E-03 0. -1.
        -11    1    3    3    0    0 -0.15632062404E+02  0.49818258757E+01 -0.36261360715E+01  0.16802643456E+02  0.51100000000E-03 0.  1.
         12    1    3    3    0    0 -0.12082896511E+01  0.71802024727E+01 -0.53325489591E+01  0.90250401568E+01  0.00000000000E+00 0. -1.
</event>
<event>
 7    1  0.7457761E-012  0.5930190E+02  0.7816164E-02  0.1266605E+00
        -11   -1    0    0    0    0  0.00000000000E+00  0.00000000000E+00  0.45593999997E+02  0.45594000000E+02  0.51100000000E-03 0. -1.
         11   -1    0    0    0    0 -0.00000000000E+00 -0.00000000000E+00 -0.45593999997E+02  0.45594000000E+02  0.51100000000E-03 0.  1.
    9900012    2    1    2    0    0  0.12550253898E+02 -0.28211701406E+02  0.79570440095E+01  0.59301897721E+02  0.49999915548E+02 0.  0.
         12    1    1    2    0    0 -0.12550253898E+02  0.28211701406E+02 -0.79570440095E+01  0.31886102279E+02  0.00000000000E+00 0. -1.
         11    1    3    3    0    0  0.41831564936E+01 -0.19364662532E+02  0.78790110743E+01  0.21320594949E+02  0.51100000000E-03 0. -1.
        -11    1    3    3    0    0  0.14226730750E+02 -0.11893878567E+02 -0.13463059014E+02  0.22915457086E+02  0.51100000000E-03 0.  1.
        -12    1    3    3    0    0 -0.58596333455E+01  0.30468396922E+01  0.13541091949E+02  0.15065845686E+02  0.00000000000E+00 0.  1.
</event>
<event>
 7    1  0.7457761E-012  0.5930194E+02  0.7816164E-02  0.1266605E+00
        -11   -1    0    0    0    0  0.00000000000E+00  0.00000000000E+00  0.45593999997E+02  0.45594000000E+02  0.51100000000E-03 0. -1.
         11   -1    0    0    0    0 -0.00000000000E+00 -0.00000000000E+00 -0.45593999997E+02  0.45594000000E+02  0.51100000000E-03 0.  1.
    9900012    2    1    2    0    0  0.12394097747E+02 -0.29366023208E+02 -0.86257330424E+00  0.59301937046E+02  0.49999987267E+02 0.  0.
         12    1    1    2    0    0 -0.12394097747E+02  0.29366023208E+02  0.86257330424E+00  0.31886062954E+02  0.00000000000E+00 0. -1.
         11    1    3    3    0    0  0.57002859459E+01  0.49082397250E+00  0.10590114104E+02  0.12036805433E+02  0.51100000000E-03 0. -1.
        -11    1    3    3    0    0  0.11361255850E+02 -0.15819802674E+02 -0.21784390992E+02  0.29221635517E+02  0.51100000000E-03 0.  1.
        -12    1    3    3    0    0 -0.46674440487E+01 -0.14037044506E+02  0.10331703585E+02  0.18043496096E+02  0.00000000000E+00 0.  1.
</event>
<event>
 7    1  0.7457761E-012  0.5930193E+02  0.7816164E-02  0.1266605E+00
        -11   -1    0    0    0    0  0.00000000000E+00  0.00000000000E+00  0.45593999997E+02  0.45594000000E+02  0.51100000000E-03 0. -1.
         11   -1    0    0    0    0 -0.00000000000E+00 -0.00000000000E+00 -0.45593999997E+02  0.45594000000E+02  0.51100000000E-03 0.  1.
    9900012    2    1    2    0    0  0.10207024457E+01  0.28097848346E+02 -0.15039634656E+02  0.59301928970E+02  0.49999972538E+02 0.  0.
         12    1    1    2    0    0 -0.10207024457E+01 -0.28097848346E+02  0.15039634656E+02  0.31886071030E+02  0.00000000000E+00 0. -1.
         11    1    3    3    0    0 -0.73040203834E+01  0.30466763758E+02 -0.10102918867E+02  0.32918708625E+02  0.51100000000E-03 0. -1.
        -11    1    3    3    0    0  0.11811080345E+02  0.14051460123E+01  0.67079060201E+01  0.13655477204E+02  0.51100000000E-03 0.  1.
        -12    1    3    3    0    0 -0.34863575162E+01 -0.37740614248E+01 -0.11644621810E+02  0.12727743141E+02  0.00000000000E+00 0.  1.
</event>
<event>
 7    1  0.7457761E-012  0.5930183E+02  0.7816164E-02  0.1266605E+00
        -11   -1    0    0    0    0  0.00000000000E+00  0.00000000000E+00  0.45593999997E+02  0.45594000000E+02  0.51100000000E-03 0. -1.
         11   -1    0    0    0    0 -0.00000000000E+00 -0.00000000000E+00 -0.45593999997E+02  0.45594000000E+02  0.51100000000E-03 0.  1.
    9900012    2    1    2    0    0 -0.31094542535E+02  0.63272296211E+01 -0.31342136132E+01  0.59301832072E+02  0.49999795820E+02 0.  0.
         12    1    1    2    0    0  0.31094542535E+02 -0.63272296211E+01  0.31342136132E+01  0.31886167928E+02  0.00000000000E+00 0. -1.
         11    1    3    3    0    0 -0.16681866822E+02  0.21723162385E+02 -0.13819872100E+02  0.30678483173E+02  0.51100000000E-03 0.  1.
        -11    1    3    3    0    0 -0.12079825781E+02 -0.17667563426E+02  0.48567062442E+01  0.21946584794E+02  0.51100000000E-03 0. -1.
        -12    1    3    3    0    0 -0.23328499316E+01  0.22716306619E+01  0.58289522425E+01  0.66767641050E+01  0.00000000000E+00 0.  1.
</event>
<event>
 7    1  0.7457761E-012  0.5930195E+02  0.7816164E-02  0.1266605E+00
        -11   -1    0    0    0    0  0.00000000000E+00  0.00000000000E+00  0.45593999997E+02  0.45594000000E+02  0.51100000000E-03 0. -1.
         11   -1    0    0    0    0 -0.00000000000E+00 -0.00000000000E+00 -0.45593999997E+02  0.45594000000E+02  0.51100000000E-03 0.  1.
    9900012    2    1    2    0    0 -0.29332548462E+02 -0.63723107570E+01  0.10757117949E+02  0.59301947716E+02  0.50000006727E+02 0.  0.
         12    1    1    2    0    0  0.29332548462E+02  0.63723107570E+01 -0.10757117949E+02  0.31886052284E+02  0.00000000000E+00 0. -1.
         11    1    3    3    0    0 -0.32102585750E+01  0.49953741350E+01 -0.13681405967E+02  0.14914435703E+02  0.51100000000E-03 0. -1.
        -11    1    3    3    0    0 -0.24779784851E+02 -0.97286476888E+01  0.28995124001E+02  0.39362438176E+02  0.51100000000E-03 0.  1.
        -12    1    3    3    0    0 -0.13425050363E+01 -0.16390372033E+01 -0.45566000851E+01  0.50250738365E+01  0.00000000000E+00 0.  1.
</event>
<event>
 7    1  0.7457761E-012  0.5930194E+02  0.7816164E-02  0.1266605E+00
        -11   -1    0    0    0    0  0.00000000000E+00  0.00000000000E+00  0.45593999997E+02  0.45594000000E+02  0.51100000000E-03 0.  1.
         11   -1    0    0    0    0 -0.00000000000E+00 -0.00000000000E+00 -0.45593999997E+02  0.45594000000E+02  0.51100000000E-03 0. -1.
    9900012    2    1    2    0    0  0.21901700456E+02 -0.23165519747E+02 -0.62853343031E+00  0.59301939687E+02  0.49999992083E+02 0.  0.
         12    1    1    2    0    0 -0.21901700456E+02  0.23165519747E+02  0.62853343031E+00  0.31886060313E+02  0.00000000000E+00 0. -1.
         11    1    3    3    0    0  0.78087082312E+01 -0.33230983720E+02 -0.63791115901E+01  0.34727039439E+02  0.51100000000E-03 0.  1.
        -11    1    3    3    0    0  0.63729317214E+01  0.11692092412E+02 -0.20583113906E+01  0.13474269172E+02  0.51100000000E-03 0. -1.
        -12    1    3    3    0    0  0.77200605036E+01 -0.16266284385E+01  0.78088895504E+01  0.11100631075E+02  0.00000000000E+00 0.  1.
</event>
<event>
 7    1  0.7457761E-012  0.5930192E+02  0.7816164E-02  0.1266605E+00
        -11   -1    0    0    0    0  0.00000000000E+00  0.00000000000E+00  0.45593999997E+02  0.45594000000E+02  0.51100000000E-03 0.  1.
         11   -1    0    0    0    0 -0.00000000000E+00 -0.00000000000E+00 -0.45593999997E+02  0.45594000000E+02  0.51100000000E-03 0. -1.
    9900012    2    1    2    0    0  0.22961181744E+01  0.29999741895E+02  0.10557711390E+02  0.59301922439E+02  0.49999960627E+02 0.  0.
         12    1    1    2    0    0 -0.22961181744E+01 -0.29999741895E+02 -0.10557711390E+02  0.31886077561E+02  0.00000000000E+00 0. -1.
         11    1    3    3    0    0 -0.15978957518E+02  0.13598272089E+02  0.86428430432E+01  0.22692263512E+02  0.51100000000E-03 0. -1.
        -11    1    3    3    0    0  0.24141202784E+02  0.65194687755E+01  0.22972988865E+01  0.25111326676E+02  0.51100000000E-03 0.  1.
        -12    1    3    3    0    0 -0.58661270917E+01  0.98820010306E+01 -0.38243053984E+00  0.11498332250E+02  0.00000000000E+00 0.  1.
</event>
<event>
 7    1  0.7457761E-012  0.5930193E+02  0.7816164E-02  0.1266605E+00
        -11   -1    0    0    0    0  0.00000000000E+00  0.00000000000E+00  0.45593999997E+02  0.45594000000E+02  0.51100000000E-03 0.  1.
         11   -1    0    0    0    0 -0.00000000000E+00 -0.00000000000E+00 -0.45593999997E+02  0.45594000000E+02  0.51100000000E-03 0. -1.
    9900012    2    1    2    0    0  0.90829496666E+01 -0.26726173412E+02 -0.14830145021E+02  0.59301929040E+02  0.49999972666E+02 0.  0.
         12    1    1    2    0    0 -0.90829496666E+01  0.26726173412E+02  0.14830145021E+02  0.31886070960E+02  0.00000000000E+00 0. -1.
         11    1    3    3    0    0 -0.10213802167E+02 -0.52194882452E+01 -0.12516624652E+02  0.16977358605E+02  0.51100000000E-03 0. -1.
        -11    1    3    3    0    0  0.21271779682E+02 -0.19779565305E+02  0.92367076762E+01  0.30480101435E+02  0.51100000000E-03 0.  1.
        -12    1    3    3    0    0 -0.19750278480E+01 -0.17271198616E+01 -0.11550228045E+02  0.11844469001E+02  0.00000000000E+00 0.  1.
</event>
<event>
 7    1  0.7457761E-012  0.5930194E+02  0.7816164E-02  0.1266605E+00
        -11   -1    0    0    0    0  0.00000000000E+00  0.00000000000E+00  0.45593999997E+02  0.45594000000E+02  0.51100000000E-03 0. -1.
         11   -1    0    0    0    0 -0.00000000000E+00 -0.00000000000E+00 -0.45593999997E+02  0.45594000000E+02  0.51100000000E-03 0.  1.
    9900012    2    1    2    0    0 -0.10095004789E+02  0.14597715481E+02 -0.26489973219E+02  0.59301935644E+02  0.49999984710E+02 0.  0.
         12    1    1    2    0    0  0.10095004789E+02 -0.14597715481E+02  0.26489973219E+02  0.31886064356E+02  0.00000000000E+00 0. -1.
         11    1    3    3    0    0  0.11061856628E+02  0.93809811681E+00  0.88796486874E+01  0.14215936874E+02  0.51100000000E-03 0. -1.
        -11    1    3    3    0    0 -0.53451816518E+01  0.87545124733E+01 -0.76378971626E+01  0.12788664077E+02  0.51100000000E-03 0.  1.
         12    1    3    3    0    0 -0.15811679766E+02  0.49051048912E+01 -0.27731724744E+02  0.32297334693E+02  0.00000000000E+00 0. -1.
</event>
<event>
 7    1  0.7457761E-012  0.5930193E+02  0.7816164E-02  0.1266605E+00
        -11   -1    0    0    0    0  0.00000000000E+00  0.00000000000E+00  0.45593999997E+02  0.45594000000E+02  0.51100000000E-03 0. -1.
         11   -1    0    0    0    0 -0.00000000000E+00 -0.00000000000E+00 -0.45593999997E+02  0.45594000000E+02  0.51100000000E-03 0.  1.
    9900012    2    1    2    0    0  0.25010896242E+02  0.11271422504E+02 -0.16252125020E+02  0.59301929942E+02  0.49999974311E+02 0.  0.
         12    1    1    2    0    0 -0.25010896242E+02 -0.11271422504E+02  0.16252125020E+02  0.31886070058E+02  0.00000000000E+00 0. -1.
         11    1    3    3    0    0  0.10729391492E+02  0.13229198894E+02 -0.14944720246E+02  0.22660013430E+02  0.51100000000E-03 0. -1.
        -11    1    3    3    0    0 -0.28468684702E+01  0.60377193363E+01  0.11857034081E+02  0.13606908992E+02  0.51100000000E-03 0.  1.
        -12    1    3    3    0    0  0.17128373221E+02 -0.79954957260E+01 -0.13164438855E+02  0.23035007520E+02  0.00000000000E+00 0.  1.
</event>
<event>
 7    1  0.7457761E-012  0.5930194E+02  0.7816164E-02  0.1266605E+00
        -11   -1    0    0    0    0  0.00000000000E+00  0.00000000000E+00  0.45593999997E+02  0.45594000000E+02  0.51100000000E-03 0.  1.
         11   -1    0    0    0    0 -0.00000000000E+00 -0.00000000000E+00 -0.45593999997E+02  0.45594000000E+02  0.51100000000E-03 0. -1.
    9900012    2    1    2    0    0 -0.51085355911E+01  0.28529674424E+02 -0.13292149489E+02  0.59301941970E+02  0.49999996248E+02 0.  0.
         12    1    1    2    0    0  0.51085355911E+01 -0.28529674424E+02  0.13292149489E+02  0.31886058030E+02  0.00000000000E+00 0. -1.
         11    1    3    3    0    0  0.10925810410E+02  0.12017351695E+02  0.44817233462E+00  0.16247797807E+02  0.51100000000E-03 0. -1.
        -11    1    3    3    0    0 -0.85495431678E+01 -0.78614298909E+01 -0.13157476924E+02  0.17550383687E+02  0.51100000000E-03 0.  1.
        -12    1    3    3    0    0 -0.74848028333E+01  0.24373752620E+02 -0.58284489990E+00  0.25503760476E+02  0.00000000000E+00 0.  1.
</event>
<event>
 7    1  0.7457761E-012  0.5930198E+02  0.7816164E-02  0.1266605E+00
        -11   -1    0    0    0    0  0.00000000000E+00  0.00000000000E+00  0.45593999997E+02  0.45594000000E+02  0.51100000000E-03 0.  1.
         11   -1    0    0    0    0 -0.00000000000E+00 -0.00000000000E+00 -0.45593999997E+02  0.45594000000E+02  0.51100000000E-03 0. -1.
    9900012    2    1    2    0    0 -0.55426989738E+01  0.76740927048E+01  0.30448403949E+02  0.59301976199E+02  0.50000058673E+02 0.  0.
         12    1    1    2    0    0  0.55426989738E+01 -0.76740927048E+01 -0.30448403949E+02  0.31886023801E+02  0.00000000000E+00 0. -1.
         11    1    3    3    0    0 -0.18091241266E+02  0.38159011036E+01 -0.41399308190E+01  0.18947114272E+02  0.51100000000E-03 0. -1.
        -11    1    3    3    0    0  0.10230896387E+02  0.99195709834E+01  0.25018634645E+02  0.28792381096E+02  0.51100000000E-03 0.  1.
         12    1    3    3    0    0  0.23176459045E+01 -0.60613793822E+01  0.95697001231E+01  0.11562480832E+02  0.00000000000E+00 0. -1.
</event>
<event>
 7    1  0.7457761E-012  0.5930186E+02  0.7816164E-02  0.1266605E+00
        -11   -1    0    0    0    0  0.00000000000E+00  0.00000000000E+00  0.45593999997E+02  0.45594000000E+02  0.51100000000E-03 0.  1.
         11   -1    0    0    0    0 -0.00000000000E+00 -0.00000000000E+00 -0.45593999997E+02  0.45594000000E+02  0.51100000000E-03 0. -1.
    9900012    2    1    2    0    0 -0.28289079739E+01 -0.18017478075E+02  0.26155189934E+02  0.59301855721E+02  0.49999838950E+02 0.  0.
         12    1    1    2    0    0  0.28289079739E+01  0.18017478075E+02 -0.26155189934E+02  0.31886144279E+02  0.00000000000E+00 0. -1.
         11    1    3    3    0    0 -0.40555801457E+01  0.13868713260E+02  0.87620790323E+01  0.16898608435E+02  0.51100000000E-03 0. -1.
        -11    1    3    3    0    0  0.12535225713E+01 -0.24948794809E+02  0.14571709790E+01  0.25022730242E+02  0.51100000000E-03 0.  1.
        -12    1    3    3    0    0 -0.26850399400E-01 -0.69373965259E+01  0.15935939923E+02  0.17380517044E+02  0.00000000000E+00 0.  1.
</event>
<event>
 7    1  0.7457761E-012  0.5930196E+02  0.7816164E-02  0.1266605E+00
        -11   -1    0    0    0    0  0.00000000000E+00  0.00000000000E+00  0.45593999997E+02  0.45594000000E+02  0.51100000000E-03 0.  1.
         11   -1    0    0    0    0 -0.00000000000E+00 -0.00000000000E+00 -0.45593999997E+02  0.45594000000E+02  0.51100000000E-03 0. -1.
    9900012    2    1    2    0    0 -0.11889165635E+02 -0.31445927220E+01  0.29419026277E+02  0.59301955561E+02  0.50000021035E+02 0.  0.
         12    1    1    2    0    0  0.11889165635E+02  0.31445927220E+01 -0.29419026277E+02  0.31886044439E+02  0.00000000000E+00 0. -1.
         11    1    3    3    0    0 -0.16492089558E+02 -0.14524740510E+02  0.10606760675E+02  0.24402058871E+02  0.51100000000E-03 0. -1.
        -11    1    3    3    0    0  0.94231977609E+01  0.15806799262E+02  0.21071844917E+02  0.27976315115E+02  0.51100000000E-03 0.  1.
        -12    1    3    3    0    0 -0.48202738374E+01 -0.44266514738E+01 -0.22595793154E+01  0.69235815746E+01  0.00000000000E+00 0.  1.
</event>
<event>
 7    1  0.7457761E-012  0.5930193E+02  0.7816164E-02  0.1266605E+00
        -11   -1    0    0    0    0  0.00000000000E+00  0.00000000000E+00  0.45593999997E+02  0.45594000000E+02  0.51100000000E-03 0. -1.
         11   -1    0    0    0    0 -0.00000000000E+00 -0.00000000000E+00 -0.45593999997E+02  0.45594000000E+02  0.51100000000E-03 0.  1.
    9900012    2    1    2    0    0  0.79665562266E+01 -0.30649647846E+02  0.37221369465E+01  0.59301933535E+02  0.49999980864E+02 0.  0.
         12    1    1    2    0    0 -0.79665562266E+01  0.30649647846E+02 -0.37221369465E+01  0.31886066465E+02  0.00000000000E+00 0. -1.
         11    1    3    3    0    0  0.13026480998E+02  0.70322611275E+01 -0.48379529680E+01  0.15573942755E+02  0.51100000000E-03 0. -1.
        -11    1    3    3    0    0  0.19127470178E+01 -0.34428922639E+02  0.99945491859E+01  0.35901258041E+02  0.51100000000E-03 0.  1.
        -12    1    3    3    0    0 -0.69726717890E+01 -0.32529863339E+01 -0.14344592714E+01  0.78267327390E+01  0.00000000000E+00 0.  1.
</event>
<event>
 7    1  0.7457761E-012  0.5930191E+02  0.7816164E-02  0.1266605E+00
        -11   -1    0    0    0    0  0.00000000000E+00  0.00000000000E+00  0.45593999997E+02  0.45594000000E+02  0.51100000000E-03 0. -1.
         11   -1    0    0    0    0 -0.00000000000E+00 -0.00000000000E+00 -0.45593999997E+02  0.45594000000E+02  0.51100000000E-03 0.  1.
    9900012    2    1    2    0    0 -0.19999160143E+02 -0.24557481349E+02 -0.36994900107E+01  0.59301913332E+02  0.49999944018E+02 0.  0.
         12    1    1    2    0    0  0.19999160143E+02  0.24557481349E+02  0.36994900107E+01  0.31886086668E+02  0.00000000000E+00 0. -1.
         11    1    3    3    0    0  0.99988891287E+01 -0.94648814533E+01  0.99637057986E+01  0.16995211038E+02  0.51100000000E-03 0. -1.
        -11    1    3    3    0    0 -0.17051382152E+02 -0.14217370367E+02 -0.18046154630E+02  0.28610259534E+02  0.51100000000E-03 0.  1.
        -12    1    3    3    0    0 -0.12946667120E+02 -0.87522952885E+00  0.43829588202E+01  0.13696442759E+02  0.00000000000E+00 0.  1.
</event>
<event>
 7    1  0.7457761E-012  0.5930194E+02  0.7816164E-02  0.1266605E+00
        -11   -1    0    0    0    0  0.00000000000E+00  0.00000000000E+00  0.45593999997E+02  0.45594000000E+02  0.51100000000E-03 0.  1.
         11   -1    0    0    0    0 -0.00000000000E+00 -0.00000000000E+00 -0.45593999997E+02  0.45594000000E+02  0.51100000000E-03 0. -1.
    9900012    2    1    2    0    0 -0.15334979288E+01  0.17222256621E+02  0.26791105673E+02  0.59301935925E+02  0.49999985223E+02 0.  0.
         12    1    1    2    0    0  0.15334979288E+01 -0.17222256621E+02 -0.26791105673E+02  0.31886064075E+02  0.00000000000E+00 0. -1.
         11    1    3    3    0    0  0.15090508758E+02 -0.93980648093E+01  0.10755321008E+02  0.20777969270E+02  0.51100000000E-03 0. -1.
        -11    1    3    3    0    0 -0.13363375237E+02  0.98676630119E+01  0.13211470677E+02  0.21224832832E+02  0.51100000000E-03 0.  1.
         12    1    3    3    0    0 -0.32606314500E+01  0.16752658419E+02  0.28243139878E+01  0.17299133823E+02  0.00000000000E+00 0. -1.
</event>
<event>
 7    1  0.7457761E-012  0.5930193E+02  0.7816164E-02  0.1266605E+00
        -11   -1    0    0    0    0  0.00000000000E+00  0.00000000000E+00  0.45593999997E+02  0.45594000000E+02  0.51100000000E-03 0. -1.
         11   -1    0    0    0    0 -0.00000000000E+00 -0.00000000000E+00 -0.45593999997E+02  0.45594000000E+02  0.51100000000E-03 0.  1.
    9900012    2    1    2    0    0 -0.21662187911E+02  0.12735265445E+02 -0.19628656051E+02  0.59301929226E+02  0.49999973005E+02 0.  0.
         12    1    1    2    0    0  0.21662187911E+02 -0.12735265445E+02  0.19628656051E+02  0.31886070774E+02  0.00000000000E+00 0. -1.
         11    1    3    3    0    0 -0.11860174806E+02 -0.92422026298E+01  0.30571777376E+01  0.15343675957E+02  0.51100000000E-03 0. -1.
        -11    1    3    3    0    0 -0.74820131802E+01  0.20943346651E+02 -0.29351247443E+02  0.36825263297E+02  0.51100000000E-03 0.  1.
        -12    1    3    3    0    0 -0.23199999244E+01  0.10341214237E+01  0.66654136541E+01  0.71329899726E+01  0.00000000000E+00 0.  1.
</event>
<event>
 7    1  0.7457761E-012  0.5930230E+02  0.7816164E-02  0.1266604E+00
        -11   -1    0    0    0    0  0.00000000000E+00  0.00000000000E+00  0.45593999997E+02  0.45594000000E+02  0.51100000000E-03 0. -1.
         11   -1    0    0    0    0 -0.00000000000E+00 -0.00000000000E+00 -0.45593999997E+02  0.45594000000E+02  0.51100000000E-03 0.  1.
    9900012    2    1    2    0    0 -0.16648466000E+02 -0.25982259302E+02 -0.80279853846E+01  0.59302301514E+02  0.50000651965E+02 0.  0.
         12    1    1    2    0    0  0.16648466000E+02  0.25982259302E+02  0.80279853846E+01  0.31885698486E+02  0.00000000000E+00 0. -1.
         11    1    3    3    0    0  0.27286025300E+01 -0.58532191036E+01 -0.16680609563E+01  0.66699230322E+01  0.51100000000E-03 0. -1.
        -11    1    3    3    0    0 -0.72313760797E+01 -0.11867973967E+02  0.18871546390E+02  0.23436656534E+02  0.51100000000E-03 0.  1.
        -12    1    3    3    0    0 -0.12145692450E+02 -0.82610662321E+01 -0.25231470819E+02  0.29195721948E+02  0.00000000000E+00 0.  1.
</event>
<event>
 7    1  0.7457761E-012  0.5930188E+02  0.7816164E-02  0.1266605E+00
        -11   -1    0    0    0    0  0.00000000000E+00  0.00000000000E+00  0.45593999997E+02  0.45594000000E+02  0.51100000000E-03 0.  1.
         11   -1    0    0    0    0 -0.00000000000E+00 -0.00000000000E+00 -0.45593999997E+02  0.45594000000E+02  0.51100000000E-03 0. -1.
    9900012    2    1    2    0    0 -0.22422193547E+02 -0.17216155223E+02  0.14750383220E+02  0.59301881245E+02  0.49999885499E+02 0.  0.
         12    1    1    2    0    0  0.22422193547E+02  0.17216155223E+02 -0.14750383220E+02  0.31886118755E+02  0.00000000000E+00 0. -1.
         11    1    3    3    0    0 -0.25065365113E+02 -0.83046165206E+00  0.27536124398E+02  0.37245138501E+02  0.51100000000E-03 0. -1.
        -11    1    3    3    0    0 -0.17599911099E+01 -0.97415031824E+01 -0.59032142015E+01  0.11525727358E+02  0.51100000000E-03 0.  1.
         12    1    3    3    0    0  0.44031626758E+01 -0.66441903888E+01 -0.68825269767E+01  0.10531015386E+02  0.00000000000E+00 0. -1.
</event>
<event>
 7    1  0.7457761E-012  0.5930194E+02  0.7816164E-02  0.1266605E+00
        -11   -1    0    0    0    0  0.00000000000E+00  0.00000000000E+00  0.45593999997E+02  0.45594000000E+02  0.51100000000E-03 0.  1.
         11   -1    0    0    0    0 -0.00000000000E+00 -0.00000000000E+00 -0.45593999997E+02  0.45594000000E+02  0.51100000000E-03 0. -1.
    9900012    2    1    2    0    0  0.23787769793E+02  0.83844589842E+01  0.19508044909E+02  0.59301937835E+02  0.49999988707E+02 0.  0.
         12    1    1    2    0    0 -0.23787769793E+02 -0.83844589842E+01 -0.19508044909E+02  0.31886062165E+02  0.00000000000E+00 0. -1.
         11    1    3    3    0    0 -0.34432806399E+01 -0.60879801563E+00  0.13403826578E+02  0.13852414367E+02  0.51100000000E-03 0.  1.
        -11    1    3    3    0    0  0.16437394689E+02  0.82525283410E+01 -0.13665040630E+02  0.22913435008E+02  0.51100000000E-03 0. -1.
        -12    1    3    3    0    0  0.10793655744E+02  0.74072865891E+00  0.19769258961E+02  0.22536088461E+02  0.00000000000E+00 0.  1.
</event>
<event>
 7    1  0.7457761E-012  0.5930190E+02  0.7816164E-02  0.1266605E+00
        -11   -1    0    0    0    0  0.00000000000E+00  0.00000000000E+00  0.45593999997E+02  0.45594000000E+02  0.51100000000E-03 0. -1.
         11   -1    0    0    0    0 -0.00000000000E+00 -0.00000000000E+00 -0.45593999997E+02  0.45594000000E+02  0.51100000000E-03 0.  1.
    9900012    2    1    2    0    0  0.79807061260E+00  0.30040204861E+01 -0.31734242888E+02  0.59301902285E+02  0.49999923872E+02 0.  0.
         12    1    1    2    0    0 -0.79807061260E+00 -0.30040204861E+01  0.31734242888E+02  0.31886097715E+02  0.00000000000E+00 0. -1.
         11    1    3    3    0    0  0.34109493458E+01  0.12764704157E+02 -0.54230009368E+01  0.14282198258E+02  0.51100000000E-03 0. -1.
        -11    1    3    3    0    0  0.14690333621E+02 -0.76240304549E+01 -0.21112153672E+02  0.26826382075E+02  0.51100000000E-03 0.  1.
        -12    1    3    3    0    0 -0.17303212354E+02 -0.21366532163E+01 -0.51990882790E+01  0.18193321953E+02  0.00000000000E+00 0.  1.
</event>
<event>
 7    1  0.7457761E-012  0.5930193E+02  0.7816164E-02  0.1266605E+00
        -11   -1    0    0    0    0  0.00000000000E+00  0.00000000000E+00  0.45593999997E+02  0.45594000000E+02  0.51100000000E-03 0.  1.
         11   -1    0    0    0    0 -0.00000000000E+00 -0.00000000000E+00 -0.45593999997E+02  0.45594000000E+02  0.51100000000E-03 0. -1.
    9900012    2    1    2    0    0 -0.18610435164E+02  0.20936139429E+02  0.15233233892E+02  0.59301927085E+02  0.49999969100E+02 0.  0.
         12    1    1    2    0    0  0.18610435164E+02 -0.20936139429E+02 -0.15233233892E+02  0.31886072915E+02  0.00000000000E+00 0. -1.
         11    1    3    3    0    0 -0.22949398949E+01  0.14724333441E+02 -0.57591397094E+01  0.15976245957E+02  0.51100000000E-03 0. -1.
        -11    1    3    3    0    0 -0.26024096791E+02 -0.27672340123E+00  0.16493482460E+02  0.30811769724E+02  0.51100000000E-03 0.  1.
         12    1    3    3    0    0  0.97086015215E+01  0.64885293887E+01  0.44988911414E+01  0.12513911404E+02  0.00000000000E+00 0. -1.
</event>
<event>
 7    1  0.7457761E-012  0.5930198E+02  0.7816164E-02  0.1266605E+00
        -11   -1    0    0    0    0  0.00000000000E+00  0.00000000000E+00  0.45593999997E+02  0.45594000000E+02  0.51100000000E-03 0.  1.
         11   -1    0    0    0    0 -0.00000000000E+00 -0.00000000000E+00 -0.45593999997E+02  0.45594000000E+02  0.51100000000E-03 0. -1.
    9900012    2    1    2    0    0  0.72587673676E+01 -0.27597105403E+02  0.14227722267E+02  0.59301984080E+02  0.50000073046E+02 0.  0.
         12    1    1    2    0    0 -0.72587673676E+01  0.27597105403E+02 -0.14227722267E+02  0.31886015920E+02  0.00000000000E+00 0. -1.
         11    1    3    3    0    0  0.34180591803E+01  0.36821859927E+01 -0.17597436235E+01  0.53233748813E+01  0.51100000000E-03 0. -1.
        -11    1    3    3    0    0 -0.48041223713E+01 -0.26338492731E+02 -0.80527853265E+01  0.27957881588E+02  0.51100000000E-03 0.  1.
        -12    1    3    3    0    0  0.86448305586E+01 -0.49407986644E+01  0.24040251217E+02  0.26020727611E+02  0.00000000000E+00 0.  1.
</event>
<event>
 7    1  0.7457761E-012  0.5930194E+02  0.7816164E-02  0.1266605E+00
        -11   -1    0    0    0    0  0.00000000000E+00  0.00000000000E+00  0.45593999997E+02  0.45594000000E+02  0.51100000000E-03 0.  1.
         11   -1    0    0    0    0 -0.00000000000E+00 -0.00000000000E+00 -0.45593999997E+02  0.45594000000E+02  0.51100000000E-03 0. -1.
    9900012    2    1    2    0    0  0.38579814669E+01 -0.31649196110E+02 -0.40657752730E+00  0.59301938144E+02  0.49999989269E+02 0.  0.
         12    1    1    2    0    0 -0.38579814669E+01  0.31649196110E+02  0.40657752730E+00  0.31886061856E+02  0.00000000000E+00 0. -1.
         11    1    3    3    0    0 -0.18206786107E+01 -0.29622675387E+01 -0.18831890977E+01  0.39542762945E+01  0.51100000000E-03 0. -1.
        -11    1    3    3    0    0  0.38637520063E+01  0.13020169637E+02  0.38774591274E+00  0.13586896043E+02  0.51100000000E-03 0.  1.
        -12    1    3    3    0    0  0.18149080712E+01 -0.41707098208E+02  0.10888656577E+01  0.41760765806E+02  0.00000000000E+00 0.  1.
</event>
<event>
 7    1  0.7457761E-012  0.5930196E+02  0.7816164E-02  0.1266605E+00
        -11   -1    0    0    0    0  0.00000000000E+00  0.00000000000E+00  0.45593999997E+02  0.45594000000E+02  0.51100000000E-03 0.  1.
         11   -1    0    0    0    0 -0.00000000000E+00 -0.00000000000E+00 -0.45593999997E+02  0.45594000000E+02  0.51100000000E-03 0. -1.
    9900012    2    1    2    0    0  0.11704416674E+01  0.40404580860E+01  0.31607350445E+02  0.59301955445E+02  0.50000020822E+02 0.  0.
         12    1    1    2    0    0 -0.11704416674E+01 -0.40404580860E+01 -0.31607350445E+02  0.31886044555E+02  0.00000000000E+00 0. -1.
         11    1    3    3    0    0  0.54575153034E+01  0.14080306630E+02  0.66912025019E+00  0.15115794066E+02  0.51100000000E-03 0. -1.
        -11    1    3    3    0    0  0.11638053724E+02 -0.10256618731E+02  0.17094980708E+02  0.23084212959E+02  0.51100000000E-03 0.  1.
        -12    1    3    3    0    0 -0.15925127360E+02  0.21677018755E+00  0.13843249487E+02  0.21101948419E+02  0.00000000000E+00 0.  1.
</event>
<event>
 7    1  0.7457761E-012  0.5930196E+02  0.7816164E-02  0.1266605E+00
        -11   -1    0    0    0    0  0.00000000000E+00  0.00000000000E+00  0.45593999997E+02  0.45594000000E+02  0.51100000000E-03 0.  1.
         11   -1    0    0    0    0 -0.00000000000E+00 -0.00000000000E+00 -0.45593999997E+02  0.45594000000E+02  0.51100000000E-03 0. -1.
    9900012    2    1    2    0    0 -0.75571178160E+00 -0.28714416433E+02 -0.13843064452E+02  0.59301964737E+02  0.50000037769E+02 0.  0.
         12    1    1    2    0    0  0.75571178160E+00  0.28714416433E+02  0.13843064452E+02  0.31886035263E+02  0.00000000000E+00 0. -1.
         11    1    3    3    0    0 -0.21212223215E+00  0.33538279843E+01  0.15239028055E+02  0.15605163707E+02  0.51100000000E-03 0.  1.
        -11    1    3    3    0    0  0.19942498961E+01 -0.25408167826E+02 -0.22728598254E+02  0.34148809698E+02  0.51100000000E-03 0. -1.
        -12    1    3    3    0    0 -0.25378394455E+01 -0.66600765908E+01 -0.63534942529E+01  0.95479913316E+01  0.00000000000E+00 0.  1.
</event>
<event>
 7    1  0.7457761E-012  0.5930195E+02  0.7816164E-02  0.1266605E+00
        -11   -1    0    0    0    0  0.00000000000E+00  0.00000000000E+00  0.45593999997E+02  0.45594000000E+02  0.51100000000E-03 0. -1.
         11   -1    0    0    0    0 -0.00000000000E+00 -0.00000000000E+00 -0.45593999997E+02  0.45594000000E+02  0.51100000000E-03 0.  1.
    9900012    2    1    2    0    0 -0.37483174383E+01  0.20424555983E+02 -0.24197273631E+02  0.59301946279E+02  0.50000004106E+02 0.  0.
         12    1    1    2    0    0  0.37483174383E+01 -0.20424555983E+02  0.24197273631E+02  0.31886053721E+02  0.00000000000E+00 0. -1.
         11    1    3    3    0    0 -0.15960747577E+02  0.52581793014E+01  0.76301702861E+01  0.18455714878E+02  0.51100000000E-03 0. -1.
        -11    1    3    3    0    0  0.26588689867E+01  0.15726903775E+02 -0.21441648591E+02  0.26723573511E+02  0.51100000000E-03 0.  1.
         12    1    3    3    0    0  0.95535611523E+01 -0.56052709375E+00 -0.10385795327E+02  0.14122657890E+02  0.00000000000E+00 0. -1.
</event>
<event>
 7    1  0.7457761E-012  0.5930189E+02  0.7816164E-02  0.1266605E+00
        -11   -1    0    0    0    0  0.00000000000E+00  0.00000000000E+00  0.45593999997E+02  0.45594000000E+02  0.51100000000E-03 0.  1.
         11   -1    0    0    0    0 -0.00000000000E+00 -0.00000000000E+00 -0.45593999997E+02  0.45594000000E+02  0.51100000000E-03 0. -1.
    9900012    2    1    2    0    0  0.52520079168E+00 -0.31422170907E+02  0.53940342684E+01  0.59301885999E+02  0.49999894170E+02 0.  0.
         12    1    1    2    0    0 -0.52520079168E+00  0.31422170907E+02 -0.53940342684E+01  0.31886114001E+02  0.00000000000E+00 0. -1.
         11    1    3    3    0    0  0.76069030422E+01 -0.38113148509E+02  0.58172303925E+01  0.39297801883E+02  0.51100000000E-03 0. -1.
        -11    1    3    3    0    0 -0.62939008042E+01 -0.52993809570E+00  0.71297515787E+01  0.95250921021E+01  0.51100000000E-03 0.  1.
         12    1    3    3    0    0 -0.78780144633E+00  0.72209156973E+01 -0.75529477028E+01  0.10478992014E+02  0.00000000000E+00 0. -1.
</event>
<event>
 7    1  0.7457761E-012  0.5930195E+02  0.7816164E-02  0.1266605E+00
        -11   -1    0    0    0    0  0.00000000000E+00  0.00000000000E+00  0.45593999997E+02  0.45594000000E+02  0.51100000000E-03 0.  1.
         11   -1    0    0    0    0 -0.00000000000E+00 -0.00000000000E+00 -0.45593999997E+02  0.45594000000E+02  0.51100000000E-03 0. -1.
    9900012    2    1    2    0    0 -0.45379212574E+01  0.11893907914E+02  0.29234612672E+02  0.59301947361E+02  0.50000006079E+02 0.  0.
         12    1    1    2    0    0  0.45379212574E+01 -0.11893907914E+02 -0.29234612672E+02  0.31886052639E+02  0.00000000000E+00 0. -1.
         11    1    3    3    0    0 -0.18309590549E+02  0.12522807382E+02  0.86203946097E+01  0.23798592695E+02  0.51100000000E-03 0. -1.
        -11    1    3    3    0    0  0.13073237826E+02 -0.53731769249E+01 -0.20816836141E+00  0.14135908597E+02  0.51100000000E-03 0.  1.
        -12    1    3    3    0    0  0.69843146557E+00  0.47442774568E+01  0.20822386424E+02  0.21367446069E+02  0.00000000000E+00 0.  1.
</event>
<event>
 7    1  0.7457761E-012  0.5930196E+02  0.7816164E-02  0.1266605E+00
        -11   -1    0    0    0    0  0.00000000000E+00  0.00000000000E+00  0.45593999997E+02  0.45594000000E+02  0.51100000000E-03 0. -1.
         11   -1    0    0    0    0 -0.00000000000E+00 -0.00000000000E+00 -0.45593999997E+02  0.45594000000E+02  0.51100000000E-03 0.  1.
    9900012    2    1    2    0    0  0.23502473722E+02 -0.18346292003E+01 -0.21470620253E+02  0.59301958078E+02  0.50000025625E+02 0.  0.
         12    1    1    2    0    0 -0.23502473722E+02  0.18346292003E+01  0.21470620253E+02  0.31886041922E+02  0.00000000000E+00 0. -1.
         11    1    3    3    0    0  0.28287601590E+01 -0.20621112523E+02 -0.17507480760E+02  0.27198236129E+02  0.51100000000E-03 0. -1.
        -11    1    3    3    0    0  0.14902450424E+02  0.60718756429E+01 -0.74181949189E+01  0.17719489794E+02  0.51100000000E-03 0.  1.
         12    1    3    3    0    0  0.57712631393E+01  0.12714607680E+02  0.34550554254E+01  0.14384232154E+02  0.00000000000E+00 0. -1.
</event>
<event>
 7    1  0.7457761E-012  0.5930198E+02  0.7816164E-02  0.1266605E+00
        -11   -1    0    0    0    0  0.00000000000E+00  0.00000000000E+00  0.45593999997E+02  0.45594000000E+02  0.51100000000E-03 0.  1.
         11   -1    0    0    0    0 -0.00000000000E+00 -0.00000000000E+00 -0.45593999997E+02  0.45594000000E+02  0.51100000000E-03 0. -1.
    9900012    2    1    2    0    0 -0.51304690737E+01 -0.28491129051E+02  0.13366081066E+02  0.59301980013E+02  0.50000065629E+02 0.  0.
         12    1    1    2    0    0  0.51304690737E+01  0.28491129051E+02 -0.13366081066E+02  0.31886019987E+02  0.00000000000E+00 0. -1.
         11    1    3    3    0    0  0.57158252716E+01  0.83680044785E+01 -0.85850962287E+01  0.13281492198E+02  0.51100000000E-03 0. -1.
        -11    1    3    3    0    0 -0.26063444292E+01 -0.90755352046E+01  0.12235918931E+02  0.15455616548E+02  0.51100000000E-03 0.  1.
         12    1    3    3    0    0 -0.82399499160E+01 -0.27783598325E+02  0.97152583635E+01  0.30564871267E+02  0.00000000000E+00 0. -1.
</event>
<event>
 7    1  0.7457761E-012  0.5930192E+02  0.7816164E-02  0.1266605E+00
        -11   -1    0    0    0    0  0.00000000000E+00  0.00000000000E+00  0.45593999997E+02  0.45594000000E+02  0.51100000000E-03 0. -1.
         11   -1    0    0    0    0 -0.00000000000E+00 -0.00000000000E+00 -0.45593999997E+02  0.45594000000E+02  0.51100000000E-03 0.  1.
    9900012    2    1    2    0    0  0.20307729643E+02  0.89681325025E+01 -0.22888660535E+02  0.59301920515E+02  0.49999957119E+02 0.  0.
         12    1    1    2    0    0 -0.20307729643E+02 -0.89681325025E+01  0.22888660535E+02  0.31886079485E+02  0.00000000000E+00 0. -1.
         11    1    3    3    0    0  0.79304025046E+01  0.23510178493E+02 -0.15005000377E+02  0.28996030991E+02  0.51100000000E-03 0. -1.
        -11    1    3    3    0    0 -0.51657379007E+01 -0.52410906294E+01 -0.74111829722E+01  0.10444113766E+02  0.51100000000E-03 0.  1.
         12    1    3    3    0    0  0.17543065039E+02 -0.93009553610E+01 -0.47247718581E+00  0.19861775759E+02  0.00000000000E+00 0. -1.
</event>
<event>
 7    1  0.7457761E-012  0.5930197E+02  0.7816164E-02  0.1266605E+00
        -11   -1    0    0    0    0  0.00000000000E+00  0.00000000000E+00  0.45593999997E+02  0.45594000000E+02  0.51100000000E-03 0.  1.
         11   -1    0    0    0    0 -0.00000000000E+00 -0.00000000000E+00 -0.45593999997E+02  0.45594000000E+02  0.51100000000E-03 0. -1.
    9900012    2    1    2    0    0  0.12568224901E+02  0.18179955013E+02  0.22983648098E+02  0.59301966673E+02  0.50000041299E+02 0.  0.
         12    1    1    2    0    0 -0.12568224901E+02 -0.18179955013E+02 -0.22983648098E+02  0.31886033327E+02  0.00000000000E+00 0. -1.
         11    1    3    3    0    0  0.16728081252E+02  0.11663994253E+02  0.37732280728E+01  0.20739207185E+02  0.51100000000E-03 0. -1.
        -11    1    3    3    0    0 -0.40537949622E+01  0.19329905620E+02  0.15826190781E+02  0.25309026449E+02  0.51100000000E-03 0.  1.
         12    1    3    3    0    0 -0.10606138909E+00 -0.12813944860E+02  0.33842292439E+01  0.13253733039E+02  0.00000000000E+00 0. -1.
</event>
<event>
 7    1  0.7457761E-012  0.5930198E+02  0.7816164E-02  0.1266605E+00
        -11   -1    0    0    0    0  0.00000000000E+00  0.00000000000E+00  0.45593999997E+02  0.45594000000E+02  0.51100000000E-03 0. -1.
         11   -1    0    0    0    0 -0.00000000000E+00 -0.00000000000E+00 -0.45593999997E+02  0.45594000000E+02  0.51100000000E-03 0.  1.
    9900012    2    1    2    0    0 -0.31170294633E+02  0.47928126397E+01 -0.47074662481E+01  0.59301975492E+02  0.50000057382E+02 0.  0.
         12    1    1    2    0    0  0.31170294633E+02 -0.47928126397E+01  0.47074662481E+01  0.31886024508E+02  0.00000000000E+00 0. -1.
         11    1    3    3    0    0 -0.10797341141E+02 -0.13195021618E+02 -0.81942820543E+01  0.18916591392E+02  0.51100000000E-03 0. -1.
        -11    1    3    3    0    0 -0.11280484914E+02  0.12885405446E+01  0.14496671498E+02  0.18413667788E+02  0.51100000000E-03 0.  1.
         12    1    3    3    0    0 -0.90924685772E+01  0.16699293713E+02 -0.11009855691E+02  0.21971716312E+02  0.00000000000E+00 0. -1.
</event>
<event>
 7    1  0.7457761E-012  0.5930195E+02  0.7816164E-02  0.1266605E+00
        -11   -1    0    0    0    0  0.00000000000E+00  0.00000000000E+00  0.45593999997E+02  0.45594000000E+02  0.51100000000E-03 0.  1.
         11   -1    0    0    0    0 -0.00000000000E+00 -0.00000000000E+00 -0.45593999997E+02  0.45594000000E+02  0.51100000000E-03 0. -1.
    9900012    2    1    2    0    0  0.30362973396E+02 -0.96750832335E+01  0.10967705500E+01  0.59301948274E+02  0.50000007745E+02 0.  0.
         12    1    1    2    0    0 -0.30362973396E+02  0.96750832335E+01 -0.10967705500E+01  0.31886051726E+02  0.00000000000E+00 0. -1.
         11    1    3    3    0    0 -0.12023938572E+01 -0.16414316162E+01 -0.63767407605E+01  0.66934947319E+01  0.51100000000E-03 0. -1.
        -11    1    3    3    0    0  0.12181057074E+02 -0.15553586184E+01  0.23580395757E+02  0.26586318967E+02  0.51100000000E-03 0.  1.
        -12    1    3    3    0    0  0.19384310179E+02 -0.64782929988E+01 -0.16106884447E+02  0.26022134576E+02  0.00000000000E+00 0.  1.
</event>
<event>
 7    1  0.7457761E-012  0.5930195E+02  0.7816164E-02  0.1266605E+00
        -11   -1    0    0    0    0  0.00000000000E+00  0.00000000000E+00  0.45593999997E+02  0.45594000000E+02  0.51100000000E-03 0.  1.
         11   -1    0    0    0    0 -0.00000000000E+00 -0.00000000000E+00 -0.45593999997E+02  0.45594000000E+02  0.51100000000E-03 0. -1.
    9900012    2    1    2    0    0 -0.44499433996E+01 -0.34063373468E+01  0.31389727696E+02  0.59301950775E+02  0.50000012305E+02 0.  0.
         12    1    1    2    0    0  0.44499433996E+01  0.34063373468E+01 -0.31389727696E+02  0.31886049225E+02  0.00000000000E+00 0. -1.
         11    1    3    3    0    0  0.59321683310E+01 -0.20574244500E+01  0.28702851119E+01  0.69037781945E+01  0.51100000000E-03 0. -1.
        -11    1    3    3    0    0 -0.26359522683E+02  0.46822366317E+01  0.15615595342E+02  0.30993460505E+02  0.51100000000E-03 0.  1.
        -12    1    3    3    0    0  0.15977410952E+02 -0.60311495286E+01  0.12903847242E+02  0.21404712075E+02  0.00000000000E+00 0.  1.
</event>
<event>
 7    1  0.7457761E-012  0.5930195E+02  0.7816164E-02  0.1266605E+00
        -11   -1    0    0    0    0  0.00000000000E+00  0.00000000000E+00  0.45593999997E+02  0.45594000000E+02  0.51100000000E-03 0.  1.
         11   -1    0    0    0    0 -0.00000000000E+00 -0.00000000000E+00 -0.45593999997E+02  0.45594000000E+02  0.51100000000E-03 0. -1.
    9900012    2    1    2    0    0  0.38442468082E+01 -0.48720233192E+00  0.31649713737E+02  0.59301953219E+02  0.50000016764E+02 0.  0.
         12    1    1    2    0    0 -0.38442468082E+01  0.48720233192E+00 -0.31649713737E+02  0.31886046781E+02  0.00000000000E+00 0. -1.
         11    1    3    3    0    0  0.94228860915E+00  0.63252807121E+01  0.50700492433E+01  0.81610344626E+01  0.51100000000E-03 0. -1.
        -11    1    3    3    0    0  0.11814611932E+02 -0.15599658032E+02  0.31994015712E+02  0.37504018818E+02  0.51100000000E-03 0.  1.
        -12    1    3    3    0    0 -0.89126537333E+01  0.87871749876E+01 -0.54143512184E+01  0.13636899939E+02  0.00000000000E+00 0.  1.
</event>
<event>
 7    1  0.7457761E-012  0.5930193E+02  0.7816164E-02  0.1266605E+00
        -11   -1    0    0    0    0  0.00000000000E+00  0.00000000000E+00  0.45593999997E+02  0.45594000000E+02  0.51100000000E-03 0. -1.
         11   -1    0    0    0    0 -0.00000000000E+00 -0.00000000000E+00 -0.45593999997E+02  0.45594000000E+02  0.51100000000E-03 0.  1.
    9900012    2    1    2    0    0 -0.47994909765E+01  0.88566457782E+01 -0.30253034711E+02  0.59301930984E+02  0.49999976211E+02 0.  0.
         12    1    1    2    0    0  0.47994909765E+01 -0.88566457782E+01  0.30253034711E+02  0.31886069016E+02  0.00000000000E+00 0. -1.
         11    1    3    3    0    0 -0.23834689725E+02  0.78105613768E+01 -0.12641368152E+02  0.28087390272E+02  0.51100000000E-03 0. -1.
        -11    1    3    3    0    0  0.12245338667E+02 -0.73886203833E+01 -0.13393094309E+02  0.19593749148E+02  0.51100000000E-03 0.  1.
         12    1    3    3    0    0  0.67898600815E+01  0.84347047847E+01 -0.42185722507E+01  0.11620791564E+02  0.00000000000E+00 0. -1.
</event>
<event>
 7    1  0.7457761E-012  0.5930172E+02  0.7816164E-02  0.1266606E+00
        -11   -1    0    0    0    0  0.00000000000E+00  0.00000000000E+00  0.45593999997E+02  0.45594000000E+02  0.51100000000E-03 0.  1.
         11   -1    0    0    0    0 -0.00000000000E+00 -0.00000000000E+00 -0.45593999997E+02  0.45594000000E+02  0.51100000000E-03 0. -1.
    9900012    2    1    2    0    0 -0.15630485643E+02 -0.26011178691E+02  0.97898469920E+01  0.59301723917E+02  0.49999598569E+02 0.  0.
         12    1    1    2    0    0  0.15630485643E+02  0.26011178691E+02 -0.97898469920E+01  0.31886276083E+02  0.00000000000E+00 0. -1.
         11    1    3    3    0    0 -0.30581599215E+02 -0.19479838332E+02  0.87347258485E+01  0.37296028581E+02  0.51100000000E-03 0. -1.
        -11    1    3    3    0    0  0.11716376073E+02 -0.84607444108E+00  0.65617516024E+01  0.13455329598E+02  0.51100000000E-03 0.  1.
         12    1    3    3    0    0  0.32347374994E+01 -0.56852659180E+01 -0.55066304588E+01  0.85503657382E+01  0.00000000000E+00 0. -1.
</event>
<event>
 7    1  0.7457761E-012  0.5930205E+02  0.7816164E-02  0.1266604E+00
        -11   -1    0    0    0    0  0.00000000000E+00  0.00000000000E+00  0.45593999997E+02  0.45594000000E+02  0.51100000000E-03 0.  1.
         11   -1    0    0    0    0 -0.00000000000E+00 -0.00000000000E+00 -0.45593999997E+02  0.45594000000E+02  0.51100000000E-03 0. -1.
    9900012    2    1    2    0    0  0.18720554864E+02 -0.24494139456E+02  0.81419883331E+01  0.59302046727E+02  0.50000187298E+02 0.  0.
         12    1    1    2    0    0 -0.18720554864E+02  0.24494139456E+02 -0.81419883331E+01  0.31885953273E+02  0.00000000000E+00 0. -1.
         11    1    3    3    0    0  0.14133450207E+02  0.98628368407E+01 -0.92397510655E+01  0.19555126318E+02  0.51100000000E-03 0. -1.
        -11    1    3    3    0    0  0.10548310032E+01 -0.27012365144E+02  0.16190332431E+02  0.31510433250E+02  0.51100000000E-03 0.  1.
         12    1    3    3    0    0  0.35322736538E+01 -0.73446111529E+01  0.11914069674E+01  0.82364871586E+01  0.00000000000E+00 0. -1.
</event>
<event>
 7    1  0.7457761E-012  0.5930209E+02  0.7816164E-02  0.1266604E+00
        -11   -1    0    0    0    0  0.00000000000E+00  0.00000000000E+00  0.45593999997E+02  0.45594000000E+02  0.51100000000E-03 0. -1.
         11   -1    0    0    0    0 -0.00000000000E+00 -0.00000000000E+00 -0.45593999997E+02  0.45594000000E+02  0.51100000000E-03 0.  1.
    9900012    2    1    2    0    0  0.29353880175E+02 -0.86000568840E+00 -0.12422611337E+02  0.59302091458E+02  0.50000268877E+02 0.  0.
         12    1    1    2    0    0 -0.29353880175E+02  0.86000568840E+00  0.12422611337E+02  0.31885908542E+02  0.00000000000E+00 0. -1.
         11    1    3    3    0    0  0.13764532046E+02  0.21798297124E+01  0.18089309163E+02  0.22834997400E+02  0.51100000000E-03 0. -1.
        -11    1    3    3    0    0 -0.15761815508E+01 -0.16076128221E+01 -0.67716178036E+01  0.71360756166E+01  0.51100000000E-03 0.  1.
         12    1    3    3    0    0  0.17165529680E+02 -0.14322225787E+01 -0.23740302696E+02  0.29331018441E+02  0.00000000000E+00 0. -1.
</event>
<event>
 7    1  0.7457761E-012  0.5930190E+02  0.7816164E-02  0.1266605E+00
        -11   -1    0    0    0    0  0.00000000000E+00  0.00000000000E+00  0.45593999997E+02  0.45594000000E+02  0.51100000000E-03 0. -1.
         11   -1    0    0    0    0 -0.00000000000E+00 -0.00000000000E+00 -0.45593999997E+02  0.45594000000E+02  0.51100000000E-03 0.  1.
    9900012    2    1    2    0    0 -0.23808024840E+02 -0.27084903848E+01 -0.21037242069E+02  0.59301897685E+02  0.49999915483E+02 0.  0.
         12    1    1    2    0    0  0.23808024840E+02  0.27084903848E+01  0.21037242069E+02  0.31886102315E+02  0.00000000000E+00 0. -1.
         11    1    3    3    0    0 -0.13761124002E+02 -0.12863354836E+02 -0.10716178911E+01  0.18867506369E+02  0.51100000000E-03 0. -1.
        -11    1    3    3    0    0  0.37361491486E+01  0.17382691268E+02 -0.41749802466E+01  0.18263275350E+02  0.51100000000E-03 0.  1.
        -12    1    3    3    0    0 -0.13783049987E+02 -0.72278268169E+01 -0.15790643931E+02  0.22171115966E+02  0.00000000000E+00 0.  1.
</event>
<event>
 7    1  0.7457761E-012  0.5930195E+02  0.7816164E-02  0.1266605E+00
        -11   -1    0    0    0    0  0.00000000000E+00  0.00000000000E+00  0.45593999997E+02  0.45594000000E+02  0.51100000000E-03 0.  1.
         11   -1    0    0    0    0 -0.00000000000E+00 -0.00000000000E+00 -0.45593999997E+02  0.45594000000E+02  0.51100000000E-03 0. -1.
    9900012    2    1    2    0    0  0.15053024760E+02  0.78072124332E+01  0.27003224730E+02  0.59301948720E+02  0.50000008558E+02 0.  0.
         12    1    1    2    0    0 -0.15053024760E+02 -0.78072124332E+01 -0.27003224730E+02  0.31886051280E+02  0.00000000000E+00 0. -1.
         11    1    3    3    0    0 -0.11934000024E+02  0.79622889750E+01  0.48878134551E+01  0.15156157921E+02  0.51100000000E-03 0. -1.
        -11    1    3    3    0    0  0.31075365408E+02  0.36676694458E+01  0.22492064188E+02  0.38535997277E+02  0.51100000000E-03 0.  1.
        -12    1    3    3    0    0 -0.40883406236E+01 -0.38227459875E+01 -0.37665291361E+00  0.56097935218E+01  0.00000000000E+00 0.  1.
</event>
<event>
 7    1  0.7457761E-012  0.5930193E+02  0.7816164E-02  0.1266605E+00
        -11   -1    0    0    0    0  0.00000000000E+00  0.00000000000E+00  0.45593999997E+02  0.45594000000E+02  0.51100000000E-03 0.  1.
         11   -1    0    0    0    0 -0.00000000000E+00 -0.00000000000E+00 -0.45593999997E+02  0.45594000000E+02  0.51100000000E-03 0. -1.
    9900012    2    1    2    0    0  0.47588550567E+01 -0.27133288795E+02 -0.16057992800E+02  0.59301934155E+02  0.49999981995E+02 0.  0.
         12    1    1    2    0    0 -0.47588550567E+01  0.27133288795E+02  0.16057992800E+02  0.31886065845E+02  0.00000000000E+00 0. -1.
         11    1    3    3    0    0  0.73529404129E+01  0.69308061820E+01 -0.15753517009E+02  0.18715637992E+02  0.51100000000E-03 0. -1.
        -11    1    3    3    0    0  0.27190676057E+01 -0.15265751709E+02  0.10048911233E+02  0.18477476048E+02  0.51100000000E-03 0.  1.
         12    1    3    3    0    0 -0.53131529619E+01 -0.18798343268E+02 -0.10353387024E+02  0.22108820115E+02  0.00000000000E+00 0. -1.
</event>
<event>
 7    1  0.7457761E-012  0.5930197E+02  0.7816164E-02  0.1266605E+00
        -11   -1    0    0    0    0  0.00000000000E+00  0.00000000000E+00  0.45593999997E+02  0.45594000000E+02  0.51100000000E-03 0.  1.
         11   -1    0    0    0    0 -0.00000000000E+00 -0.00000000000E+00 -0.45593999997E+02  0.45594000000E+02  0.51100000000E-03 0. -1.
    9900012    2    1    2    0    0  0.11881507493E+02  0.21351222636E+01  0.29512539151E+02  0.59301969602E+02  0.50000046642E+02 0.  0.
         12    1    1    2    0    0 -0.11881507493E+02 -0.21351222636E+01 -0.29512539151E+02  0.31886030398E+02  0.00000000000E+00 0. -1.
         11    1    3    3    0    0  0.26602085294E+01  0.11695315476E+02  0.15364401804E+02  0.19491586815E+02  0.51100000000E-03 0. -1.
        -11    1    3    3    0    0  0.30789657154E+01 -0.21159442178E+02  0.12661755285E+01  0.21419739118E+02  0.51100000000E-03 0.  1.
        -12    1    3    3    0    0  0.61423332482E+01  0.11599248965E+02  0.12881961819E+02  0.18390643670E+02  0.00000000000E+00 0.  1.
</event>
<event>
 7    1  0.7457761E-012  0.5930193E+02  0.7816164E-02  0.1266605E+00
        -11   -1    0    0    0    0  0.00000000000E+00  0.00000000000E+00  0.45593999997E+02  0.45594000000E+02  0.51100000000E-03 0.  1.
         11   -1    0    0    0    0 -0.00000000000E+00 -0.00000000000E+00 -0.45593999997E+02  0.45594000000E+02  0.51100000000E-03 0. -1.
    9900012    2    1    2    0    0  0.28376720136E+02  0.40319738829E+01  0.13972344104E+02  0.59301930019E+02  0.49999974452E+02 0.  0.
         12    1    1    2    0    0 -0.28376720136E+02 -0.40319738829E+01 -0.13972344104E+02  0.31886069981E+02  0.00000000000E+00 0. -1.
         11    1    3    3    0    0  0.23543645639E+02  0.11866492913E+02  0.15131866882E+01  0.26408457703E+02  0.51100000000E-03 0. -1.
        -11    1    3    3    0    0 -0.10149772550E+02 -0.86781712640E+01 -0.54448060720E-01  0.13354081928E+02  0.51100000000E-03 0.  1.
        -12    1    3    3    0    0  0.14982847046E+02  0.84365223359E+00  0.12513605476E+02  0.19539390388E+02  0.00000000000E+00 0.  1.
</event>
<event>
 7    1  0.7457761E-012  0.5930197E+02  0.7816164E-02  0.1266605E+00
        -11   -1    0    0    0    0  0.00000000000E+00  0.00000000000E+00  0.45593999997E+02  0.45594000000E+02  0.51100000000E-03 0.  1.
         11   -1    0    0    0    0 -0.00000000000E+00 -0.00000000000E+00 -0.45593999997E+02  0.45594000000E+02  0.51100000000E-03 0. -1.
    9900012    2    1    2    0    0  0.14579902181E+02 -0.88986587477E+01  0.26925064802E+02  0.59301971873E+02  0.50000050783E+02 0.  0.
         12    1    1    2    0    0 -0.14579902181E+02  0.88986587477E+01 -0.26925064802E+02  0.31886028127E+02  0.00000000000E+00 0. -1.
         11    1    3    3    0    0  0.12940726292E+02 -0.70153506644E+01  0.41634415222E+01  0.15297443821E+02  0.51100000000E-03 0. -1.
        -11    1    3    3    0    0 -0.42272471015E+01 -0.15923061517E+02  0.23581555058E+02  0.28766356136E+02  0.51100000000E-03 0.  1.
        -12    1    3    3    0    0  0.58664229912E+01  0.14039753434E+02 -0.81993177824E+00  0.15238171915E+02  0.00000000000E+00 0.  1.
</event>
<event>
 7    1  0.7457761E-012  0.5930200E+02  0.7816164E-02  0.1266605E+00
        -11   -1    0    0    0    0  0.00000000000E+00  0.00000000000E+00  0.45593999997E+02  0.45594000000E+02  0.51100000000E-03 0.  1.
         11   -1    0    0    0    0 -0.00000000000E+00 -0.00000000000E+00 -0.45593999997E+02  0.45594000000E+02  0.51100000000E-03 0. -1.
    9900012    2    1    2    0    0  0.44076261059E+00  0.27807594801E+02 -0.15596814386E+02  0.59301996499E+02  0.50000095695E+02 0.  0.
         12    1    1    2    0    0 -0.44076261059E+00 -0.27807594801E+02  0.15596814386E+02  0.31886003501E+02  0.00000000000E+00 0. -1.
         11    1    3    3    0    0 -0.14719433200E+02  0.90591961135E+01 -0.10557162779E+01  0.17316041265E+02  0.51100000000E-03 0. -1.
        -11    1    3    3    0    0  0.24500525520E+02  0.11491340477E+02 -0.69788591288E+01  0.27946934210E+02  0.51100000000E-03 0.  1.
        -12    1    3    3    0    0 -0.93403297095E+01  0.72570582108E+01 -0.75622389791E+01  0.14039021025E+02  0.00000000000E+00 0.  1.
</event>
<event>
 7    1  0.7457761E-012  0.5930198E+02  0.7816164E-02  0.1266605E+00
        -11   -1    0    0    0    0  0.00000000000E+00  0.00000000000E+00  0.45593999997E+02  0.45594000000E+02  0.51100000000E-03 0.  1.
         11   -1    0    0    0    0 -0.00000000000E+00 -0.00000000000E+00 -0.45593999997E+02  0.45594000000E+02  0.51100000000E-03 0. -1.
    9900012    2    1    2    0    0  0.27774071939E+02 -0.12329825809E+02  0.96589014497E+01  0.59301983413E+02  0.50000071830E+02 0.  0.
         12    1    1    2    0    0 -0.27774071939E+02  0.12329825809E+02 -0.96589014497E+01  0.31886016587E+02  0.00000000000E+00 0. -1.
         11    1    3    3    0    0 -0.54284435618E-02  0.26724334011E+01 -0.10381457541E+02  0.10719915610E+02  0.51100000000E-03 0. -1.
        -11    1    3    3    0    0  0.30694236435E+02 -0.20181803233E+02  0.12125605652E+02  0.38684255774E+02  0.51100000000E-03 0.  1.
        -12    1    3    3    0    0 -0.29147360528E+01  0.51795440235E+01  0.79147533386E+01  0.98978120289E+01  0.00000000000E+00 0.  1.
</event>
<event>
 7    1  0.7457761E-012  0.5930191E+02  0.7816164E-02  0.1266605E+00
        -11   -1    0    0    0    0  0.00000000000E+00  0.00000000000E+00  0.45593999997E+02  0.45594000000E+02  0.51100000000E-03 0. -1.
         11   -1    0    0    0    0 -0.00000000000E+00 -0.00000000000E+00 -0.45593999997E+02  0.45594000000E+02  0.51100000000E-03 0.  1.
    9900012    2    1    2    0    0 -0.25966281478E+02  0.85867213861E+01  0.16393383231E+02  0.59301912568E+02  0.49999942626E+02 0.  0.
         12    1    1    2    0    0  0.25966281478E+02 -0.85867213861E+01 -0.16393383231E+02  0.31886087432E+02  0.00000000000E+00 0. -1.
         11    1    3    3    0    0  0.50596338965E+01 -0.84043188094E+00  0.28879545451E+01  0.58861279827E+01  0.51100000000E-03 0. -1.
        -11    1    3    3    0    0 -0.34823148108E+02  0.20078839103E+01  0.22220099589E+02  0.41357176740E+02  0.51100000000E-03 0.  1.
        -12    1    3    3    0    0  0.37972327334E+01  0.74192693567E+01 -0.87146709032E+01  0.12058607845E+02  0.00000000000E+00 0.  1.
</event>
<event>
 7    1  0.7457761E-012  0.5930194E+02  0.7816164E-02  0.1266605E+00
        -11   -1    0    0    0    0  0.00000000000E+00  0.00000000000E+00  0.45593999997E+02  0.45594000000E+02  0.51100000000E-03 0. -1.
         11   -1    0    0    0    0 -0.00000000000E+00 -0.00000000000E+00 -0.45593999997E+02  0.45594000000E+02  0.51100000000E-03 0.  1.
    9900012    2    1    2    0    0  0.30160029682E+02  0.46989562873E+01 -0.92202779276E+01  0.59301935557E+02  0.49999984551E+02 0.  0.
         12    1    1    2    0    0 -0.30160029682E+02 -0.46989562873E+01  0.92202779276E+01  0.31886064443E+02  0.00000000000E+00 0. -1.
         11    1    3    3    0    0  0.16949577029E+02  0.26981115580E+02 -0.85992738816E+01  0.33003276670E+02  0.51100000000E-03 0. -1.
        -11    1    3    3    0    0  0.81177180296E+01 -0.11350157916E+02 -0.22312516337E+01  0.14131592792E+02  0.51100000000E-03 0.  1.
         12    1    3    3    0    0  0.50927346231E+01 -0.10932001377E+02  0.16102475876E+01  0.12167066094E+02  0.00000000000E+00 0. -1.
</event>
<event>
 7    1  0.7457761E-012  0.5930195E+02  0.7816164E-02  0.1266605E+00
        -11   -1    0    0    0    0  0.00000000000E+00  0.00000000000E+00  0.45593999997E+02  0.45594000000E+02  0.51100000000E-03 0. -1.
         11   -1    0    0    0    0 -0.00000000000E+00 -0.00000000000E+00 -0.45593999997E+02  0.45594000000E+02  0.51100000000E-03 0.  1.
    9900012    2    1    2    0    0 -0.19756917329E+02 -0.45238858059E-01 -0.25027637836E+02  0.59301945297E+02  0.50000002314E+02 0.  0.
         12    1    1    2    0    0  0.19756917329E+02  0.45238858059E-01  0.25027637836E+02  0.31886054703E+02  0.00000000000E+00 0. -1.
         11    1    3    3    0    0 -0.50925985526E+01 -0.10707732751E+01  0.38506764538E+01  0.64737025602E+01  0.51100000000E-03 0. -1.
        -11    1    3    3    0    0  0.73932093544E+01  0.15454665933E+02 -0.16204897654E+02  0.23581877616E+02  0.51100000000E-03 0.  1.
        -12    1    3    3    0    0 -0.22057528131E+02 -0.14429131516E+02 -0.12673416636E+02  0.29246365121E+02  0.00000000000E+00 0.  1.
</event>
<event>
 7    1  0.7457761E-012  0.5930178E+02  0.7816164E-02  0.1266605E+00
        -11   -1    0    0    0    0  0.00000000000E+00  0.00000000000E+00  0.45593999997E+02  0.45594000000E+02  0.51100000000E-03 0. -1.
         11   -1    0    0    0    0 -0.00000000000E+00 -0.00000000000E+00 -0.45593999997E+02  0.45594000000E+02  0.51100000000E-03 0.  1.
    9900012    2    1    2    0    0  0.28959624676E+02  0.33075898673E+00 -0.13340241151E+02  0.59301775751E+02  0.49999693102E+02 0.  0.
         12    1    1    2    0    0 -0.28959624676E+02 -0.33075898673E+00  0.13340241151E+02  0.31886224249E+02  0.00000000000E+00 0. -1.
         11    1    3    3    0    0  0.11513947896E+02  0.15771327475E+02  0.12290268424E+02  0.23072851247E+02  0.51100000000E-03 0. -1.
        -11    1    3    3    0    0  0.78593746246E+01 -0.11279848259E+02 -0.20247246967E+02  0.24473572609E+02  0.51100000000E-03 0.  1.
         12    1    3    3    0    0  0.95863021562E+01 -0.41607202287E+01 -0.53832626085E+01  0.11755351894E+02  0.00000000000E+00 0. -1.
</event>
<event>
 7    1  0.7457761E-012  0.5930194E+02  0.7816164E-02  0.1266605E+00
        -11   -1    0    0    0    0  0.00000000000E+00  0.00000000000E+00  0.45593999997E+02  0.45594000000E+02  0.51100000000E-03 0.  1.
         11   -1    0    0    0    0 -0.00000000000E+00 -0.00000000000E+00 -0.45593999997E+02  0.45594000000E+02  0.51100000000E-03 0. -1.
    9900012    2    1    2    0    0 -0.29997606573E+02 -0.32561178551E+01  0.10308351175E+02  0.59301940231E+02  0.49999993077E+02 0.  0.
         12    1    1    2    0    0  0.29997606573E+02  0.32561178551E+01 -0.10308351175E+02  0.31886059769E+02  0.00000000000E+00 0. -1.
         11    1    3    3    0    0 -0.13498724022E+02  0.14322397782E+02 -0.11556627533E+02  0.22823283477E+02  0.51100000000E-03 0. -1.
        -11    1    3    3    0    0 -0.14036430986E+02 -0.65772589519E+01  0.51829315177E+01  0.16344555960E+02  0.51100000000E-03 0.  1.
         12    1    3    3    0    0 -0.24624515653E+01 -0.11001256686E+02  0.16682047190E+02  0.20134100795E+02  0.00000000000E+00 0. -1.
</event>
<event>
 7    1  0.7457761E-012  0.5930197E+02  0.7816164E-02  0.1266605E+00
        -11   -1    0    0    0    0  0.00000000000E+00  0.00000000000E+00  0.45593999997E+02  0.45594000000E+02  0.51100000000E-03 0.  1.
         11   -1    0    0    0    0 -0.00000000000E+00 -0.00000000000E+00 -0.45593999997E+02  0.45594000000E+02  0.51100000000E-03 0. -1.
    9900012    2    1    2    0    0 -0.55763039734E+01  0.21790978125E+02  0.22600370159E+02  0.59301974457E+02  0.50000055495E+02 0.  0.
         12    1    1    2    0    0  0.55763039734E+01 -0.21790978125E+02 -0.22600370159E+02  0.31886025543E+02  0.00000000000E+00 0. -1.
         11    1    3    3    0    0  0.18775237944E+01 -0.62612257255E+01 -0.11115405724E+02  0.12894971417E+02  0.51100000000E-03 0. -1.
        -11    1    3    3    0    0 -0.14722964188E+01  0.15509423184E+02  0.26522341362E+02  0.30759461241E+02  0.51100000000E-03 0.  1.
         12    1    3    3    0    0 -0.59815313490E+01  0.12542780667E+02  0.71934345202E+01  0.15647541798E+02  0.00000000000E+00 0. -1.
</event>
<event>
 7    1  0.7457761E-012  0.5930188E+02  0.7816164E-02  0.1266605E+00
        -11   -1    0    0    0    0  0.00000000000E+00  0.00000000000E+00  0.45593999997E+02  0.45594000000E+02  0.51100000000E-03 0.  1.
         11   -1    0    0    0    0 -0.00000000000E+00 -0.00000000000E+00 -0.45593999997E+02  0.45594000000E+02  0.51100000000E-03 0. -1.
    9900012    2    1    2    0    0  0.13801171754E+02  0.12032511151E+02  0.26105003201E+02  0.59301876709E+02  0.49999877227E+02 0.  0.
         12    1    1    2    0    0 -0.13801171754E+02 -0.12032511151E+02 -0.26105003201E+02  0.31886123291E+02  0.00000000000E+00 0. -1.
         11    1    3    3    0    0  0.19843176766E+01  0.64934410521E+01 -0.25810036106E+01  0.72638745334E+01  0.51100000000E-03 0. -1.
        -11    1    3    3    0    0 -0.13399504305E+02  0.21683801188E+01  0.21802389667E+02  0.25682538492E+02  0.51100000000E-03 0.  1.
        -12    1    3    3    0    0  0.25216358382E+02  0.33706899806E+01  0.68836171451E+01  0.26355463684E+02  0.00000000000E+00 0.  1.
</event>
<event>
 7    1  0.7457761E-012  0.5930194E+02  0.7816164E-02  0.1266605E+00
        -11   -1    0    0    0    0  0.00000000000E+00  0.00000000000E+00  0.45593999997E+02  0.45594000000E+02  0.51100000000E-03 0.  1.
         11   -1    0    0    0    0 -0.00000000000E+00 -0.00000000000E+00 -0.45593999997E+02  0.45594000000E+02  0.51100000000E-03 0. -1.
    9900012    2    1    2    0    0 -0.14726231397E+02 -0.28048531043E+02  0.36247495930E+01  0.59301940437E+02  0.49999993452E+02 0.  0.
         12    1    1    2    0    0  0.14726231397E+02  0.28048531043E+02 -0.36247495930E+01  0.31886059563E+02  0.00000000000E+00 0. -1.
         11    1    3    3    0    0 -0.26660246649E+01 -0.34100023428E+01 -0.71704831124E+01  0.83756570977E+01  0.51100000000E-03 0. -1.
        -11    1    3    3    0    0  0.45944410707E+01 -0.29733870018E+02  0.14054088849E+02  0.33207368589E+02  0.51100000000E-03 0.  1.
        -12    1    3    3    0    0 -0.16654647803E+02  0.50953413172E+01 -0.32588561432E+01  0.17718914750E+02  0.00000000000E+00 0.  1.
</event>
<event>
 7    1  0.7457761E-012  0.5930195E+02  0.7816164E-02  0.1266605E+00
        -11   -1    0    0    0    0  0.00000000000E+00  0.00000000000E+00  0.45593999997E+02  0.45594000000E+02  0.51100000000E-03 0.  1.
         11   -1    0    0    0    0 -0.00000000000E+00 -0.00000000000E+00 -0.45593999997E+02  0.45594000000E+02  0.51100000000E-03 0. -1.
    9900012    2    1    2    0    0 -0.39338150035E+00 -0.32550294542E+00  0.31881960638E+02  0.59301951087E+02  0.50000012875E+02 0.  0.
         12    1    1    2    0    0  0.39338150035E+00  0.32550294542E+00 -0.31881960638E+02  0.31886048913E+02  0.00000000000E+00 0. -1.
         11    1    3    3    0    0 -0.12194313035E+02  0.11554268980E+00 -0.40736210301E+01  0.12857255114E+02  0.51100000000E-03 0.  1.
        -11    1    3    3    0    0  0.67127979121E+01 -0.13367095451E+02  0.23084454674E+02  0.27506961746E+02  0.51100000000E-03 0. -1.
        -12    1    3    3    0    0  0.50881336224E+01  0.12926049816E+02  0.12871126993E+02  0.18937734228E+02  0.00000000000E+00 0.  1.
</event>
<event>
 7    1  0.7457761E-012  0.5930193E+02  0.7816164E-02  0.1266605E+00
        -11   -1    0    0    0    0  0.00000000000E+00  0.00000000000E+00  0.45593999997E+02  0.45594000000E+02  0.51100000000E-03 0.  1.
         11   -1    0    0    0    0 -0.00000000000E+00 -0.00000000000E+00 -0.45593999997E+02  0.45594000000E+02  0.51100000000E-03 0. -1.
    9900012    2    1    2    0    0  0.26870991188E+02 -0.10133736809E+02  0.13855642158E+02  0.59301927668E+02  0.49999970164E+02 0.  0.
         12    1    1    2    0    0 -0.26870991188E+02  0.10133736809E+02 -0.13855642158E+02  0.31886072332E+02  0.00000000000E+00 0. -1.
         11    1    3    3    0    0  0.15986622458E+02  0.13144187521E+02 -0.42066790131E+01  0.21119609651E+02  0.51100000000E-03 0. -1.
        -11    1    3    3    0    0  0.17236058739E+02 -0.17630179294E+02  0.16138377270E+02  0.29467815731E+02  0.51100000000E-03 0.  1.
         12    1    3    3    0    0 -0.63516900093E+01 -0.56477450365E+01  0.19239439014E+01  0.87145022868E+01  0.00000000000E+00 0. -1.
</event>
<event>
 7    1  0.7457761E-012  0.5930194E+02  0.7816164E-02  0.1266605E+00
        -11   -1    0    0    0    0  0.00000000000E+00  0.00000000000E+00  0.45593999997E+02  0.45594000000E+02  0.51100000000E-03 0. -1.
         11   -1    0    0    0    0 -0.00000000000E+00 -0.00000000000E+00 -0.45593999997E+02  0.45594000000E+02  0.51100000000E-03 0.  1.
    9900012    2    1    2    0    0 -0.57878055822E+01 -0.14395933852E+02 -0.27856398510E+02  0.59301944382E+02  0.50000000646E+02 0.  0.
         12    1    1    2    0    0  0.57878055822E+01  0.14395933852E+02  0.27856398510E+02  0.31886055618E+02  0.00000000000E+00 0. -1.
         11    1    3    3    0    0 -0.66552980911E+01 -0.24661881671E+02 -0.18870328242E+02  0.31758316839E+02  0.51100000000E-03 0. -1.
        -11    1    3    3    0    0 -0.55050156640E+01  0.13817628493E+02 -0.12515892734E+02  0.19439126159E+02  0.51100000000E-03 0.  1.
        -12    1    3    3    0    0  0.63725081728E+01 -0.35516806740E+01  0.35298224663E+01  0.81045013830E+01  0.00000000000E+00 0.  1.
</event>
<event>
 7    1  0.7457761E-012  0.5930195E+02  0.7816164E-02  0.1266605E+00
        -11   -1    0    0    0    0  0.00000000000E+00  0.00000000000E+00  0.45593999997E+02  0.45594000000E+02  0.51100000000E-03 0.  1.
         11   -1    0    0    0    0 -0.00000000000E+00 -0.00000000000E+00 -0.45593999997E+02  0.45594000000E+02  0.51100000000E-03 0. -1.
    9900012    2    1    2    0    0  0.15838089663E+02 -0.13347900015E+02  0.24242704293E+02  0.59301949281E+02  0.50000009582E+02 0.  0.
         12    1    1    2    0    0 -0.15838089663E+02  0.13347900015E+02 -0.24242704293E+02  0.31886050719E+02  0.00000000000E+00 0. -1.
         11    1    3    3    0    0 -0.83656861375E+01 -0.45688331755E+01  0.55312970185E+01  0.11020625577E+02  0.51100000000E-03 0. -1.
        -11    1    3    3    0    0  0.12286948696E+02 -0.39690127180E+01 -0.10322127904E+02  0.16530834671E+02  0.51100000000E-03 0.  1.
        -12    1    3    3    0    0  0.11916827104E+02 -0.48100541219E+01  0.29033535178E+02  0.31750489033E+02  0.00000000000E+00 0.  1.
</event>
<event>
 7    1  0.7457761E-012  0.5930193E+02  0.7816164E-02  0.1266605E+00
        -11   -1    0    0    0    0  0.00000000000E+00  0.00000000000E+00  0.45593999997E+02  0.45594000000E+02  0.51100000000E-03 0.  1.
         11   -1    0    0    0    0 -0.00000000000E+00 -0.00000000000E+00 -0.45593999997E+02  0.45594000000E+02  0.51100000000E-03 0. -1.
    9900012    2    1    2    0    0  0.25475828143E+02  0.11314564500E+02  0.15481739390E+02  0.59301930253E+02  0.49999974878E+02 0.  0.
         12    1    1    2    0    0 -0.25475828143E+02 -0.11314564500E+02 -0.15481739390E+02  0.31886069747E+02  0.00000000000E+00 0. -1.
         11    1    3    3    0    0 -0.47902066495E+01 -0.39603543068E+01 -0.89402664560E+01  0.10888473288E+02  0.51100000000E-03 0. -1.
        -11    1    3    3    0    0  0.27242575144E+02  0.21609388867E+02  0.20726889372E+02  0.40481199723E+02  0.51100000000E-03 0.  1.
        -12    1    3    3    0    0  0.30234596480E+01 -0.63344700607E+01  0.36951164735E+01  0.79322572415E+01  0.00000000000E+00 0.  1.
</event>
<event>
 7    1  0.7457761E-012  0.5930195E+02  0.7816164E-02  0.1266605E+00
        -11   -1    0    0    0    0  0.00000000000E+00  0.00000000000E+00  0.45593999997E+02  0.45594000000E+02  0.51100000000E-03 0.  1.
         11   -1    0    0    0    0 -0.00000000000E+00 -0.00000000000E+00 -0.45593999997E+02  0.45594000000E+02  0.51100000000E-03 0. -1.
    9900012    2    1    2    0    0 -0.13463086968E+01 -0.20634634097E+02  0.24271784267E+02  0.59301950027E+02  0.50000010940E+02 0.  0.
         12    1    1    2    0    0  0.13463086968E+01  0.20634634097E+02 -0.24271784267E+02  0.31886049973E+02  0.00000000000E+00 0. -1.
         11    1    3    3    0    0 -0.11055024564E+02 -0.55478599294E+01 -0.93889146371E+01  0.15528813098E+02  0.51100000000E-03 0. -1.
        -11    1    3    3    0    0  0.41704620945E+00 -0.14926216710E+02  0.30496968964E+02  0.33956310004E+02  0.51100000000E-03 0.  1.
         12    1    3    3    0    0  0.92916696582E+01 -0.16055745701E+00  0.31637299401E+01  0.98168269246E+01  0.00000000000E+00 0. -1.
</event>
<event>
 7    1  0.7457761E-012  0.5930189E+02  0.7816164E-02  0.1266605E+00
        -11   -1    0    0    0    0  0.00000000000E+00  0.00000000000E+00  0.45593999997E+02  0.45594000000E+02  0.51100000000E-03 0.  1.
         11   -1    0    0    0    0 -0.00000000000E+00 -0.00000000000E+00 -0.45593999997E+02  0.45594000000E+02  0.51100000000E-03 0. -1.
    9900012    2    1    2    0    0  0.31586329011E+02  0.89826947978E+00  0.42686079411E+01  0.59301888882E+02  0.49999899428E+02 0.  0.
         12    1    1    2    0    0 -0.31586329011E+02 -0.89826947978E+00 -0.42686079411E+01  0.31886111118E+02  0.00000000000E+00 0. -1.
         11    1    3    3    0    0  0.13152289316E+00 -0.70949310517E+00 -0.19232416732E+01  0.20541512924E+01  0.51100000000E-03 0. -1.
        -11    1    3    3    0    0  0.36098822866E+02  0.12239925374E+02  0.16680411777E+02  0.41607414276E+02  0.51100000000E-03 0.  1.
        -12    1    3    3    0    0 -0.46440167475E+01 -0.10632162789E+02 -0.10488562163E+02  0.15640323314E+02  0.00000000000E+00 0.  1.
</event>
<event>
 7    1  0.7457761E-012  0.5930194E+02  0.7816164E-02  0.1266605E+00
        -11   -1    0    0    0    0  0.00000000000E+00  0.00000000000E+00  0.45593999997E+02  0.45594000000E+02  0.51100000000E-03 0.  1.
         11   -1    0    0    0    0 -0.00000000000E+00 -0.00000000000E+00 -0.45593999997E+02  0.45594000000E+02  0.51100000000E-03 0. -1.
    9900012    2    1    2    0    0  0.12497034577E+02  0.26723942985E+02 -0.12098586645E+02  0.59301940340E+02  0.49999993274E+02 0.  0.
         12    1    1    2    0    0 -0.12497034577E+02 -0.26723942985E+02  0.12098586645E+02  0.31886059660E+02  0.00000000000E+00 0. -1.
         11    1    3    3    0    0  0.10190985872E+02 -0.11887837761E+02 -0.91443515540E+00  0.15684803843E+02  0.51100000000E-03 0. -1.
        -11    1    3    3    0    0  0.31703391229E+01  0.12070859741E+02 -0.11628973822E+02  0.17058421306E+02  0.51100000000E-03 0.  1.
         12    1    3    3    0    0 -0.86429041832E+00  0.26540921004E+02  0.44482233272E+00  0.26558715191E+02  0.00000000000E+00 0. -1.
</event>
<event>
 7    1  0.7457761E-012  0.5930193E+02  0.7816164E-02  0.1266605E+00
        -11   -1    0    0    0    0  0.00000000000E+00  0.00000000000E+00  0.45593999997E+02  0.45594000000E+02  0.51100000000E-03 0. -1.
         11   -1    0    0    0    0 -0.00000000000E+00 -0.00000000000E+00 -0.45593999997E+02  0.45594000000E+02  0.51100000000E-03 0.  1.
    9900012    2    1    2    0    0  0.21634614288E+02  0.17811299055E+01 -0.23355784097E+02  0.59301927650E+02  0.49999970131E+02 0.  0.
         12    1    1    2    0    0 -0.21634614288E+02 -0.17811299055E+01  0.23355784097E+02  0.31886072350E+02  0.00000000000E+00 0. -1.
         11    1    3    3    0    0 -0.14574182700E+02 -0.82493078951E+00 -0.31598817412E+01  0.14935600592E+02  0.51100000000E-03 0. -1.
        -11    1    3    3    0    0  0.15942697956E+02  0.41818252853E+01 -0.11688263048E+01  0.16523420833E+02  0.51100000000E-03 0.  1.
         12    1    3    3    0    0  0.20266099032E+02 -0.15757645903E+01 -0.19027076051E+02  0.27842906225E+02  0.00000000000E+00 0. -1.
</event>
<event>
 7    1  0.7457761E-012  0.5930195E+02  0.7816164E-02  0.1266605E+00
        -11   -1    0    0    0    0  0.00000000000E+00  0.00000000000E+00  0.45593999997E+02  0.45594000000E+02  0.51100000000E-03 0. -1.
         11   -1    0    0    0    0 -0.00000000000E+00 -0.00000000000E+00 -0.45593999997E+02  0.45594000000E+02  0.51100000000E-03 0.  1.
    9900012    2    1    2    0    0 -0.11481394250E+02 -0.23396329824E+02 -0.18371438893E+02  0.59301946150E+02  0.50000003870E+02 0.  0.
         12    1    1    2    0    0  0.11481394250E+02  0.23396329824E+02  0.18371438893E+02  0.31886053850E+02  0.00000000000E+00 0. -1.
         11    1    3    3    0    0  0.46558030606E+01 -0.13569410562E+02  0.13430003340E+02  0.19651218667E+02  0.51100000000E-03 0. -1.
        -11    1    3    3    0    0  0.11983569143E+01 -0.33192480508E+01 -0.12140020625E+02  0.12642530125E+02  0.51100000000E-03 0.  1.
         12    1    3    3    0    0 -0.17335554225E+02 -0.65076712110E+01 -0.19661421608E+02  0.27008197357E+02  0.00000000000E+00 0. -1.
</event>
<event>
 7    1  0.7457761E-012  0.5930194E+02  0.7816164E-02  0.1266605E+00
        -11   -1    0    0    0    0  0.00000000000E+00  0.00000000000E+00  0.45593999997E+02  0.45594000000E+02  0.51100000000E-03 0. -1.
         11   -1    0    0    0    0 -0.00000000000E+00 -0.00000000000E+00 -0.45593999997E+02  0.45594000000E+02  0.51100000000E-03 0.  1.
    9900012    2    1    2    0    0  0.19666644110E+02 -0.70288008105E+01 -0.24094396924E+02  0.59301938867E+02  0.49999990589E+02 0.  0.
         12    1    1    2    0    0 -0.19666644110E+02  0.70288008105E+01  0.24094396924E+02  0.31886061133E+02  0.00000000000E+00 0. -1.
         11    1    3    3    0    0  0.13948266854E+02 -0.16899031952E+02  0.32364079737E+01  0.22149622254E+02  0.51100000000E-03 0. -1.
        -11    1    3    3    0    0 -0.76585981559E+01  0.85040142290E+01 -0.15320067452E+02  0.19122678963E+02  0.51100000000E-03 0.  1.
         12    1    3    3    0    0  0.13376975412E+02  0.13662169125E+01 -0.12010737446E+02  0.18029637651E+02  0.00000000000E+00 0. -1.
</event>
<event>
 7    1  0.7457761E-012  0.5930193E+02  0.7816164E-02  0.1266605E+00
        -11   -1    0    0    0    0  0.00000000000E+00  0.00000000000E+00  0.45593999997E+02  0.45594000000E+02  0.51100000000E-03 0. -1.
         11   -1    0    0    0    0 -0.00000000000E+00 -0.00000000000E+00 -0.45593999997E+02  0.45594000000E+02  0.51100000000E-03 0.  1.
    9900012    2    1    2    0    0 -0.29706380323E+02  0.13354297268E+01 -0.11509529903E+02  0.59301926503E+02  0.49999968039E+02 0.  0.
         12    1    1    2    0    0  0.29706380323E+02 -0.13354297268E+01  0.11509529903E+02  0.31886073497E+02  0.00000000000E+00 0. -1.
         11    1    3    3    0    0 -0.17897769368E+02 -0.92317042975E+01 -0.14361778563E+01  0.20189529952E+02  0.51100000000E-03 0. -1.
        -11    1    3    3    0    0 -0.12370324111E+02  0.20777615120E+02 -0.14248524199E+02  0.28066967253E+02  0.51100000000E-03 0.  1.
        -12    1    3    3    0    0  0.56171315597E+00 -0.10210481096E+02  0.41751721517E+01  0.11045429298E+02  0.00000000000E+00 0.  1.
</event>
<event>
 7    1  0.7457761E-012  0.5930196E+02  0.7816164E-02  0.1266605E+00
        -11   -1    0    0    0    0  0.00000000000E+00  0.00000000000E+00  0.45593999997E+02  0.45594000000E+02  0.51100000000E-03 0. -1.
         11   -1    0    0    0    0 -0.00000000000E+00 -0.00000000000E+00 -0.45593999997E+02  0.45594000000E+02  0.51100000000E-03 0.  1.
    9900012    2    1    2    0    0  0.10671817354E+02 -0.25931401321E+02 -0.15178747768E+02  0.59301958478E+02  0.50000026355E+02 0.  0.
         12    1    1    2    0    0 -0.10671817354E+02  0.25931401321E+02  0.15178747768E+02  0.31886041522E+02  0.00000000000E+00 0. -1.
         11    1    3    3    0    0  0.14527980791E+02 -0.51687064131E+00 -0.21897132831E+02  0.26283337072E+02  0.51100000000E-03 0. -1.
        -11    1    3    3    0    0 -0.15313952302E+01 -0.16060831369E+02 -0.58663149202E+01  0.17167094298E+02  0.51100000000E-03 0.  1.
         12    1    3    3    0    0 -0.23247682069E+01 -0.93536993104E+01  0.12584699984E+02  0.15851527109E+02  0.00000000000E+00 0. -1.
</event>
<event>
 7    1  0.7457761E-012  0.5930194E+02  0.7816164E-02  0.1266605E+00
        -11   -1    0    0    0    0  0.00000000000E+00  0.00000000000E+00  0.45593999997E+02  0.45594000000E+02  0.51100000000E-03 0.  1.
         11   -1    0    0    0    0 -0.00000000000E+00 -0.00000000000E+00 -0.45593999997E+02  0.45594000000E+02  0.51100000000E-03 0. -1.
    9900012    2    1    2    0    0 -0.21040522200E+01  0.50179020546E+01  0.31418376864E+02  0.59301940639E+02  0.49999993820E+02 0.  0.
         12    1    1    2    0    0  0.21040522200E+01 -0.50179020546E+01 -0.31418376864E+02  0.31886059361E+02  0.00000000000E+00 0. -1.
         11    1    3    3    0    0 -0.44353248358E+01  0.89060211877E+01 -0.10810919412E+01  0.10007900871E+02  0.51100000000E-03 0. -1.
        -11    1    3    3    0    0 -0.12061627978E+02 -0.14693083239E+02  0.18049921795E+02  0.26213913130E+02  0.51100000000E-03 0.  1.
        -12    1    3    3    0    0  0.14392900593E+02  0.10804964106E+02  0.14449547010E+02  0.23080126638E+02  0.00000000000E+00 0.  1.
</event>
<event>
 7    1  0.7457761E-012  0.5930195E+02  0.7816164E-02  0.1266605E+00
        -11   -1    0    0    0    0  0.00000000000E+00  0.00000000000E+00  0.45593999997E+02  0.45594000000E+02  0.51100000000E-03 0.  1.
         11   -1    0    0    0    0 -0.00000000000E+00 -0.00000000000E+00 -0.45593999997E+02  0.45594000000E+02  0.51100000000E-03 0. -1.
    9900012    2    1    2    0    0  0.10388493688E+02 -0.30128770206E+02 -0.10278370460E+01  0.59301952201E+02  0.50000014907E+02 0.  0.
         12    1    1    2    0    0 -0.10388493688E+02  0.30128770206E+02  0.10278370460E+01  0.31886047799E+02  0.00000000000E+00 0. -1.
         11    1    3    3    0    0  0.13416833098E+02 -0.12239022774E+02 -0.46989456666E+01  0.18758602813E+02  0.51100000000E-03 0. -1.
        -11    1    3    3    0    0 -0.19088053646E+02 -0.13679902561E+02 -0.24599076215E+00  0.23485187625E+02  0.51100000000E-03 0.  1.
        -12    1    3    3    0    0  0.16059714235E+02 -0.42098448703E+01  0.39170993828E+01  0.17058161763E+02  0.00000000000E+00 0.  1.
</event>
<event>
 7    1  0.7457761E-012  0.5930190E+02  0.7816164E-02  0.1266605E+00
        -11   -1    0    0    0    0  0.00000000000E+00  0.00000000000E+00  0.45593999997E+02  0.45594000000E+02  0.51100000000E-03 0. -1.
         11   -1    0    0    0    0 -0.00000000000E+00 -0.00000000000E+00 -0.45593999997E+02  0.45594000000E+02  0.51100000000E-03 0.  1.
    9900012    2    1    2    0    0 -0.54338914879E+01  0.91556257183E+01 -0.30056123115E+02  0.59301902784E+02  0.49999924781E+02 0.  0.
         12    1    1    2    0    0  0.54338914879E+01 -0.91556257183E+01  0.30056123115E+02  0.31886097216E+02  0.00000000000E+00 0. -1.
         11    1    3    3    0    0 -0.20465158081E+01 -0.19955634171E+02 -0.19119780174E+02  0.27712480154E+02  0.51100000000E-03 0. -1.
        -11    1    3    3    0    0 -0.54270023424E+00  0.79625503724E+01 -0.97711235021E+00  0.80406144531E+01  0.51100000000E-03 0.  1.
         12    1    3    3    0    0 -0.28446754455E+01  0.21148709517E+02 -0.99592305903E+01  0.23548808177E+02  0.00000000000E+00 0. -1.
</event>
<event>
 7    1  0.7457761E-012  0.5930194E+02  0.7816164E-02  0.1266605E+00
        -11   -1    0    0    0    0  0.00000000000E+00  0.00000000000E+00  0.45593999997E+02  0.45594000000E+02  0.51100000000E-03 0.  1.
         11   -1    0    0    0    0 -0.00000000000E+00 -0.00000000000E+00 -0.45593999997E+02  0.45594000000E+02  0.51100000000E-03 0. -1.
    9900012    2    1    2    0    0  0.18557011725E+01  0.21772412104E+02  0.23221523365E+02  0.59301941870E+02  0.49999996065E+02 0.  0.
         12    1    1    2    0    0 -0.18557011725E+01 -0.21772412104E+02 -0.23221523365E+02  0.31886058130E+02  0.00000000000E+00 0. -1.
         11    1    3    3    0    0  0.92782941289E+01 -0.80796201874E+01  0.40249884267E+01  0.12944788002E+02  0.51100000000E-03 0. -1.
        -11    1    3    3    0    0 -0.24797560883E+01  0.32765533722E+02  0.22417002136E+02  0.39777523494E+02  0.51100000000E-03 0.  1.
        -12    1    3    3    0    0 -0.49428368681E+01 -0.29135014306E+01 -0.32204671973E+01  0.65796303741E+01  0.00000000000E+00 0.  1.
</event>
<event>
 7    1  0.7457761E-012  0.5930193E+02  0.7816164E-02  0.1266605E+00
        -11   -1    0    0    0    0  0.00000000000E+00  0.00000000000E+00  0.45593999997E+02  0.45594000000E+02  0.51100000000E-03 0. -1.
         11   -1    0    0    0    0 -0.00000000000E+00 -0.00000000000E+00 -0.45593999997E+02  0.45594000000E+02  0.51100000000E-03 0.  1.
    9900012    2    1    2    0    0  0.18616658315E+01 -0.14377190976E+02 -0.28399855461E+02  0.59301933917E+02  0.49999981561E+02 0.  0.
         12    1    1    2    0    0 -0.18616658315E+01  0.14377190976E+02  0.28399855461E+02  0.31886066083E+02  0.00000000000E+00 0. -1.
         11    1    3    3    0    0  0.20578026189E+02 -0.77551110362E+01 -0.11700808826E+02  0.24909954566E+02  0.51100000000E-03 0. -1.
        -11    1    3    3    0    0 -0.15426279781E+02 -0.10925803120E+02 -0.20414848832E+02  0.27822820396E+02  0.51100000000E-03 0.  1.
        -12    1    3    3    0    0 -0.32900805769E+01  0.43037231800E+01  0.37158021969E+01  0.65691589553E+01  0.00000000000E+00 0.  1.
</event>
<event>
 7    1  0.7457761E-012  0.5930193E+02  0.7816164E-02  0.1266605E+00
        -11   -1    0    0    0    0  0.00000000000E+00  0.00000000000E+00  0.45593999997E+02  0.45594000000E+02  0.51100000000E-03 0. -1.
         11   -1    0    0    0    0 -0.00000000000E+00 -0.00000000000E+00 -0.45593999997E+02  0.45594000000E+02  0.51100000000E-03 0.  1.
    9900012    2    1    2    0    0  0.11554402570E+02  0.27239303016E+02 -0.11884343418E+02  0.59301929907E+02  0.49999974247E+02 0.  0.
         12    1    1    2    0    0 -0.11554402570E+02 -0.27239303016E+02  0.11884343418E+02  0.31886070093E+02  0.00000000000E+00 0. -1.
         11    1    3    3    0    0 -0.64818331742E+01  0.12505740177E+01 -0.22354854803E+02  0.23309174807E+02  0.51100000000E-03 0. -1.
        -11    1    3    3    0    0  0.19922144617E+02  0.23135380993E+02  0.11154473182E+02  0.32504768451E+02  0.51100000000E-03 0.  1.
        -12    1    3    3    0    0 -0.18859088732E+01  0.28533480051E+01 -0.68396179686E+00  0.34879866479E+01  0.00000000000E+00 0.  1.
</event>
<event>
 7    1  0.7457761E-012  0.5930193E+02  0.7816164E-02  0.1266605E+00
        -11   -1    0    0    0    0  0.00000000000E+00  0.00000000000E+00  0.45593999997E+02  0.45594000000E+02  0.51100000000E-03 0.  1.
         11   -1    0    0    0    0 -0.00000000000E+00 -0.00000000000E+00 -0.45593999997E+02  0.45594000000E+02  0.51100000000E-03 0. -1.
    9900012    2    1    2    0    0 -0.19992530957E+02  0.82445149028E+01  0.23431773749E+02  0.59301931866E+02  0.49999977820E+02 0.  0.
         12    1    1    2    0    0  0.19992530957E+02 -0.82445149028E+01 -0.23431773749E+02  0.31886068134E+02  0.00000000000E+00 0. -1.
         11    1    3    3    0    0 -0.38676439448E+01  0.17150780362E+02  0.28834769754E+01  0.17816351379E+02  0.51100000000E-03 0. -1.
        -11    1    3    3    0    0 -0.49290795439E+01 -0.90655130616E+01 -0.65108860608E+01  0.12201270007E+02  0.51100000000E-03 0.  1.
        -12    1    3    3    0    0 -0.11195807468E+02  0.15924760206E+00  0.27059182834E+02  0.29284310480E+02  0.00000000000E+00 0.  1.
</event>
<event>
 7    1  0.7457761E-012  0.5930196E+02  0.7816164E-02  0.1266605E+00
        -11   -1    0    0    0    0  0.00000000000E+00  0.00000000000E+00  0.45593999997E+02  0.45594000000E+02  0.51100000000E-03 0.  1.
         11   -1    0    0    0    0 -0.00000000000E+00 -0.00000000000E+00 -0.45593999997E+02  0.45594000000E+02  0.51100000000E-03 0. -1.
    9900012    2    1    2    0    0  0.26058530704E+01  0.11352040199E+02  0.29682657870E+02  0.59301961282E+02  0.50000031468E+02 0.  0.
         12    1    1    2    0    0 -0.26058530704E+01 -0.11352040199E+02 -0.29682657870E+02  0.31886038718E+02  0.00000000000E+00 0. -1.
         11    1    3    3    0    0 -0.25283464702E+01 -0.33662932488E+01 -0.65077510994E+01  0.77508251653E+01  0.51100000000E-03 0. -1.
        -11    1    3    3    0    0  0.16761007931E+02 -0.99339052775E-01  0.23401363618E+02  0.28784806314E+02  0.51100000000E-03 0.  1.
        -12    1    3    3    0    0 -0.11626808390E+02  0.14817672501E+02  0.12789045351E+02  0.22766329803E+02  0.00000000000E+00 0.  1.
</event>
<event>
 7    1  0.7457761E-012  0.5930173E+02  0.7816164E-02  0.1266605E+00
        -11   -1    0    0    0    0  0.00000000000E+00  0.00000000000E+00  0.45593999997E+02  0.45594000000E+02  0.51100000000E-03 0.  1.
         11   -1    0    0    0    0 -0.00000000000E+00 -0.00000000000E+00 -0.45593999997E+02  0.45594000000E+02  0.51100000000E-03 0. -1.
    9900012    2    1    2    0    0  0.13812058183E+02 -0.23318689562E+02 -0.16798801477E+02  0.59301733909E+02  0.49999616793E+02 0.  0.
         12    1    1    2    0    0 -0.13812058183E+02  0.23318689562E+02  0.16798801477E+02  0.31886266091E+02  0.00000000000E+00 0. -1.
         11    1    3    3    0    0  0.26417737725E+01  0.10506258735E+02 -0.51798529759E+01  0.12007968953E+02  0.51100000000E-03 0. -1.
        -11    1    3    3    0    0 -0.51394697156E+01 -0.26506891488E+02 -0.22056289498E+01  0.27090482547E+02  0.51100000000E-03 0.  1.
        -12    1    3    3    0    0  0.16309754126E+02 -0.73180568084E+01 -0.94133195517E+01  0.20203282409E+02  0.00000000000E+00 0.  1.
</event>
<event>
 7    1  0.7457761E-012  0.5930195E+02  0.7816164E-02  0.1266605E+00
        -11   -1    0    0    0    0  0.00000000000E+00  0.00000000000E+00  0.45593999997E+02  0.45594000000E+02  0.51100000000E-03 0.  1.
         11   -1    0    0    0    0 -0.00000000000E+00 -0.00000000000E+00 -0.45593999997E+02  0.45594000000E+02  0.51100000000E-03 0. -1.
    9900012    2    1    2    0    0 -0.19159003555E+02 -0.25975076319E+01  0.25355590551E+02  0.59301946069E+02  0.50000003722E+02 0.  0.
         12    1    1    2    0    0  0.19159003555E+02  0.25975076319E+01 -0.25355590551E+02  0.31886053931E+02  0.00000000000E+00 0. -1.
         11    1    3    3    0    0 -0.21482946494E+02  0.22670460859E+01 -0.11050237891E+01  0.21630477708E+02  0.51100000000E-03 0. -1.
        -11    1    3    3    0    0  0.72448789271E+01  0.92488061827E+01  0.13415537922E+02  0.17832704351E+02  0.51100000000E-03 0.  1.
        -12    1    3    3    0    0 -0.49209359880E+01 -0.14113359901E+02  0.13045076418E+02  0.19838764010E+02  0.00000000000E+00 0.  1.
</event>
<event>
 7    1  0.7457761E-012  0.5930194E+02  0.7816164E-02  0.1266605E+00
        -11   -1    0    0    0    0  0.00000000000E+00  0.00000000000E+00  0.45593999997E+02  0.45594000000E+02  0.51100000000E-03 0. -1.
         11   -1    0    0    0    0 -0.00000000000E+00 -0.00000000000E+00 -0.45593999997E+02  0.45594000000E+02  0.51100000000E-03 0.  1.
    9900012    2    1    2    0    0  0.92722332381E+01 -0.11330204571E+02 -0.28326185429E+02  0.59301943082E+02  0.49999998275E+02 0.  0.
         12    1    1    2    0    0 -0.92722332381E+01  0.11330204571E+02  0.28326185429E+02  0.31886056918E+02  0.00000000000E+00 0. -1.
         11    1    3    3    0    0  0.21733660064E+02 -0.14069624898E+02 -0.32301928130E+02  0.41397112046E+02  0.51100000000E-03 0.  1.
        -11    1    3    3    0    0 -0.32454321686E+01  0.31446201707E+01  0.68819065571E+01  0.82329887709E+01  0.51100000000E-03 0. -1.
        -12    1    3    3    0    0 -0.92159946575E+01 -0.40519984325E+00 -0.29061638562E+01  0.96718422650E+01  0.00000000000E+00 0.  1.
</event>
<event>
 7    1  0.7457761E-012  0.5930193E+02  0.7816164E-02  0.1266605E+00
        -11   -1    0    0    0    0  0.00000000000E+00  0.00000000000E+00  0.45593999997E+02  0.45594000000E+02  0.51100000000E-03 0.  1.
         11   -1    0    0    0    0 -0.00000000000E+00 -0.00000000000E+00 -0.45593999997E+02  0.45594000000E+02  0.51100000000E-03 0. -1.
    9900012    2    1    2    0    0 -0.69058222966E+01  0.24793031150E+02  0.18823835927E+02  0.59301928210E+02  0.49999971152E+02 0.  0.
         12    1    1    2    0    0  0.69058222966E+01 -0.24793031150E+02 -0.18823835927E+02  0.31886071790E+02  0.00000000000E+00 0. -1.
         11    1    3    3    0    0 -0.10120112659E+02  0.16854271251E+02  0.23985638281E+02  0.31012803544E+02  0.51100000000E-03 0.  1.
        -11    1    3    3    0    0 -0.63299285562E+01  0.88146790545E+01 -0.12252226604E+02  0.16367150619E+02  0.51100000000E-03 0. -1.
         12    1    3    3    0    0  0.95442189189E+01 -0.87591915584E+00  0.70904242500E+01  0.11921974047E+02  0.00000000000E+00 0. -1.
</event>
<event>
 7    1  0.7457761E-012  0.5930196E+02  0.7816164E-02  0.1266605E+00
        -11   -1    0    0    0    0  0.00000000000E+00  0.00000000000E+00  0.45593999997E+02  0.45594000000E+02  0.51100000000E-03 0.  1.
         11   -1    0    0    0    0 -0.00000000000E+00 -0.00000000000E+00 -0.45593999997E+02  0.45594000000E+02  0.51100000000E-03 0. -1.
    9900012    2    1    2    0    0  0.11594738502E+01 -0.26284361050E+02  0.18014085646E+02  0.59301963917E+02  0.50000036274E+02 0.  0.
         12    1    1    2    0    0 -0.11594738502E+01  0.26284361050E+02 -0.18014085646E+02  0.31886036083E+02  0.00000000000E+00 0. -1.
         11    1    3    3    0    0 -0.17911576545E+01 -0.23531195506E+02  0.10291230112E+02  0.25745578750E+02  0.51100000000E-03 0. -1.
        -11    1    3    3    0    0 -0.50633456182E+01  0.79133828950E+01  0.15491658921E+02  0.18117687327E+02  0.51100000000E-03 0.  1.
         12    1    3    3    0    0  0.80139771228E+01 -0.10666548439E+02 -0.77688033875E+01  0.15438697840E+02  0.00000000000E+00 0. -1.
</event>
<event>
 7    1  0.7457761E-012  0.5930194E+02  0.7816164E-02  0.1266605E+00
        -11   -1    0    0    0    0  0.00000000000E+00  0.00000000000E+00  0.45593999997E+02  0.45594000000E+02  0.51100000000E-03 0.  1.
         11   -1    0    0    0    0 -0.00000000000E+00 -0.00000000000E+00 -0.45593999997E+02  0.45594000000E+02  0.51100000000E-03 0. -1.
    9900012    2    1    2    0    0  0.32385631958E+01 -0.96315214073E+01  0.30223603427E+02  0.59301941914E+02  0.49999996145E+02 0.  0.
         12    1    1    2    0    0 -0.32385631958E+01  0.96315214073E+01 -0.30223603427E+02  0.31886058086E+02  0.00000000000E+00 0. -1.
         11    1    3    3    0    0  0.16164274609E+02  0.43245328400E+01  0.26791490590E+01  0.16945890294E+02  0.51100000000E-03 0. -1.
        -11    1    3    3    0    0 -0.14720915500E+01 -0.19415732395E+02  0.17344708402E+02  0.26076361474E+02  0.51100000000E-03 0.  1.
         12    1    3    3    0    0 -0.11453619863E+02  0.54596781472E+01  0.10199745966E+02  0.16279690145E+02  0.00000000000E+00 0. -1.
</event>
<event>
 7    1  0.7457761E-012  0.5930195E+02  0.7816164E-02  0.1266605E+00
        -11   -1    0    0    0    0  0.00000000000E+00  0.00000000000E+00  0.45593999997E+02  0.45594000000E+02  0.51100000000E-03 0.  1.
         11   -1    0    0    0    0 -0.00000000000E+00 -0.00000000000E+00 -0.45593999997E+02  0.45594000000E+02  0.51100000000E-03 0. -1.
    9900012    2    1    2    0    0 -0.13308767147E+02  0.17807384259E+02  0.22858125063E+02  0.59301951350E+02  0.50000013355E+02 0.  0.
         12    1    1    2    0    0  0.13308767147E+02 -0.17807384259E+02 -0.22858125063E+02  0.31886048650E+02  0.00000000000E+00 0. -1.
         11    1    3    3    0    0 -0.69588755007E+01  0.34273442649E+02  0.88025289468E+01  0.36063545796E+02  0.51100000000E-03 0. -1.
        -11    1    3    3    0    0 -0.37908814817E+01 -0.32787059696E+01  0.46752074102E+01  0.68540688524E+01  0.51100000000E-03 0.  1.
         12    1    3    3    0    0 -0.25590101646E+01 -0.13187352421E+02  0.93803887054E+01  0.16384336702E+02  0.00000000000E+00 0. -1.
</event>
<event>
 7    1  0.7457761E-012  0.5930194E+02  0.7816164E-02  0.1266605E+00
        -11   -1    0    0    0    0  0.00000000000E+00  0.00000000000E+00  0.45593999997E+02  0.45594000000E+02  0.51100000000E-03 0. -1.
         11   -1    0    0    0    0 -0.00000000000E+00 -0.00000000000E+00 -0.45593999997E+02  0.45594000000E+02  0.51100000000E-03 0.  1.
    9900012    2    1    2    0    0 -0.14886639475E+02 -0.25110601647E+02 -0.12828344943E+02  0.59301940603E+02  0.49999993754E+02 0.  0.
         12    1    1    2    0    0  0.14886639475E+02  0.25110601647E+02  0.12828344943E+02  0.31886059397E+02  0.00000000000E+00 0. -1.
         11    1    3    3    0    0 -0.64653304572E+01 -0.11047179188E+02  0.10545465910E+02  0.16584556595E+02  0.51100000000E-03 0. -1.
        -11    1    3    3    0    0  0.12034062210E+02 -0.26239908041E+01 -0.82490368014E+01  0.14823986962E+02  0.51100000000E-03 0.  1.
        -12    1    3    3    0    0 -0.20455371228E+02 -0.11439431654E+02 -0.15124774052E+02  0.27893397046E+02  0.00000000000E+00 0.  1.
</event>
<event>
 7    1  0.7457761E-012  0.5930223E+02  0.7816164E-02  0.1266604E+00
        -11   -1    0    0    0    0  0.00000000000E+00  0.00000000000E+00  0.45593999997E+02  0.45594000000E+02  0.51100000000E-03 0. -1.
         11   -1    0    0    0    0 -0.00000000000E+00 -0.00000000000E+00 -0.45593999997E+02  0.45594000000E+02  0.51100000000E-03 0.  1.
    9900012    2    1    2    0    0 -0.67960282204E+01  0.28674878701E+02 -0.12176514718E+02  0.59302232348E+02  0.50000525825E+02 0.  0.
         12    1    1    2    0    0  0.67960282204E+01 -0.28674878701E+02  0.12176514718E+02  0.31885767652E+02  0.00000000000E+00 0. -1.
         11    1    3    3    0    0 -0.14666981616E+02  0.62711715631E+01  0.91047562574E+01  0.18366941206E+02  0.51100000000E-03 0. -1.
        -11    1    3    3    0    0 -0.88778231804E+00  0.25523769925E+02 -0.13993232037E+02  0.29121496042E+02  0.51100000000E-03 0.  1.
         12    1    3    3    0    0  0.87587357138E+01 -0.31200627876E+01 -0.72880389377E+01  0.11813795100E+02  0.00000000000E+00 0. -1.
</event>
<event>
 7    1  0.7457761E-012  0.5930197E+02  0.7816164E-02  0.1266605E+00
        -11   -1    0    0    0    0  0.00000000000E+00  0.00000000000E+00  0.45593999997E+02  0.45594000000E+02  0.51100000000E-03 0.  1.
         11   -1    0    0    0    0 -0.00000000000E+00 -0.00000000000E+00 -0.45593999997E+02  0.45594000000E+02  0.51100000000E-03 0. -1.
    9900012    2    1    2    0    0  0.78969847481E+01 -0.30406585768E+02  0.54585827884E+01  0.59301969325E+02  0.50000046136E+02 0.  0.
         12    1    1    2    0    0 -0.78969847481E+01  0.30406585768E+02 -0.54585827884E+01  0.31886030675E+02  0.00000000000E+00 0. -1.
         11    1    3    3    0    0 -0.21891211833E+01  0.43907881111E+01 -0.89646382401E+01  0.10219393858E+02  0.51100000000E-03 0. -1.
        -11    1    3    3    0    0  0.19433623744E+02 -0.16758484017E+02  0.12865584712E+02  0.28706023560E+02  0.51100000000E-03 0.  1.
         12    1    3    3    0    0 -0.93475178130E+01 -0.18038889862E+02  0.15576363165E+01  0.20376551907E+02  0.00000000000E+00 0. -1.
</event>
<event>
 7    1  0.7457761E-012  0.5930194E+02  0.7816164E-02  0.1266605E+00
        -11   -1    0    0    0    0  0.00000000000E+00  0.00000000000E+00  0.45593999997E+02  0.45594000000E+02  0.51100000000E-03 0. -1.
         11   -1    0    0    0    0 -0.00000000000E+00 -0.00000000000E+00 -0.45593999997E+02  0.45594000000E+02  0.51100000000E-03 0.  1.
    9900012    2    1    2    0    0 -0.16059285988E+02 -0.25358908210E+02 -0.10758520382E+02  0.59301942657E+02  0.49999997500E+02 0.  0.
         12    1    1    2    0    0  0.16059285988E+02  0.25358908210E+02  0.10758520382E+02  0.31886057343E+02  0.00000000000E+00 0. -1.
         11    1    3    3    0    0  0.10315970802E+02  0.13690971225E+00  0.79132244068E+01  0.13002196685E+02  0.51100000000E-03 0. -1.
        -11    1    3    3    0    0 -0.21372034620E+02 -0.12227218079E+02 -0.24353822443E+01  0.24742671899E+02  0.51100000000E-03 0.  1.
         12    1    3    3    0    0 -0.50032221711E+01 -0.13268599844E+02 -0.16236362545E+02  0.21557074073E+02  0.00000000000E+00 0. -1.
</event>
<event>
 7    1  0.7457761E-012  0.5930188E+02  0.7816164E-02  0.1266605E+00
        -11   -1    0    0    0    0  0.00000000000E+00  0.00000000000E+00  0.45593999997E+02  0.45594000000E+02  0.51100000000E-03 0.  1.
         11   -1    0    0    0    0 -0.00000000000E+00 -0.00000000000E+00 -0.45593999997E+02  0.45594000000E+02  0.51100000000E-03 0. -1.
    9900012    2    1    2    0    0  0.12576195635E+02  0.28247789909E+02  0.77862932556E+01  0.59301879288E+02  0.49999881931E+02 0.  0.
         12    1    1    2    0    0 -0.12576195635E+02 -0.28247789909E+02 -0.77862932556E+01  0.31886120712E+02  0.00000000000E+00 0. -1.
         11    1    3    3    0    0  0.59937940259E+01 -0.39875425647E+01  0.11735818022E+01  0.72940631364E+01  0.51100000000E-03 0. -1.
        -11    1    3    3    0    0  0.10235432241E+01  0.21346582398E+02 -0.15732042638E+02  0.26537169906E+02  0.51100000000E-03 0.  1.
        -12    1    3    3    0    0  0.55588583853E+01  0.10888750075E+02  0.22344754092E+02  0.25470646246E+02  0.00000000000E+00 0.  1.
</event>
<event>
 7    1  0.7457761E-012  0.5930193E+02  0.7816164E-02  0.1266605E+00
        -11   -1    0    0    0    0  0.00000000000E+00  0.00000000000E+00  0.45593999997E+02  0.45594000000E+02  0.51100000000E-03 0.  1.
         11   -1    0    0    0    0 -0.00000000000E+00 -0.00000000000E+00 -0.45593999997E+02  0.45594000000E+02  0.51100000000E-03 0. -1.
    9900012    2    1    2    0    0 -0.14294678891E+02  0.22783112724E+02  0.17126402966E+02  0.59301925476E+02  0.49999966167E+02 0.  0.
         12    1    1    2    0    0  0.14294678891E+02 -0.22783112724E+02 -0.17126402966E+02  0.31886074524E+02  0.00000000000E+00 0. -1.
         11    1    3    3    0    0 -0.95555312585E+01 -0.11458762768E+02 -0.10946643544E+01  0.14960271124E+02  0.51100000000E-03 0. -1.
        -11    1    3    3    0    0 -0.26811435877E+01  0.26682549564E+02  0.26963522913E+01  0.26952129751E+02  0.51100000000E-03 0.  1.
         12    1    3    3    0    0 -0.20580040452E+01  0.75593259278E+01  0.15524715029E+02  0.17389524601E+02  0.00000000000E+00 0. -1.
</event>
<event>
 7    1  0.7457761E-012  0.5930193E+02  0.7816164E-02  0.1266605E+00
        -11   -1    0    0    0    0  0.00000000000E+00  0.00000000000E+00  0.45593999997E+02  0.45594000000E+02  0.51100000000E-03 0.  1.
         11   -1    0    0    0    0 -0.00000000000E+00 -0.00000000000E+00 -0.45593999997E+02  0.45594000000E+02  0.51100000000E-03 0. -1.
    9900012    2    1    2    0    0  0.21814795079E+02 -0.23178434214E+02 -0.18963537689E+01  0.59301933223E+02  0.49999980294E+02 0.  0.
         12    1    1    2    0    0 -0.21814795079E+02  0.23178434214E+02  0.18963537689E+01  0.31886066777E+02  0.00000000000E+00 0. -1.
         11    1    3    3    0    0  0.11331235244E+02  0.72253447676E+01  0.45283000379E+00  0.13446469962E+02  0.51100000000E-03 0. -1.
        -11    1    3    3    0    0  0.19668509865E+00 -0.32744602096E+02  0.48230725491E+01  0.33098484565E+02  0.51100000000E-03 0.  1.
        -12    1    3    3    0    0  0.10286874736E+02  0.23408231147E+01 -0.71722563218E+01  0.12756978695E+02  0.00000000000E+00 0.  1.
</event>
<event>
 7    1  0.7457761E-012  0.5930194E+02  0.7816164E-02  0.1266605E+00
        -11   -1    0    0    0    0  0.00000000000E+00  0.00000000000E+00  0.45593999997E+02  0.45594000000E+02  0.51100000000E-03 0.  1.
         11   -1    0    0    0    0 -0.00000000000E+00 -0.00000000000E+00 -0.45593999997E+02  0.45594000000E+02  0.51100000000E-03 0. -1.
    9900012    2    1    2    0    0 -0.25981514445E+02 -0.35549802001E+01  0.18139574065E+02  0.59301935264E+02  0.49999984017E+02 0.  0.
         12    1    1    2    0    0  0.25981514445E+02  0.35549802001E+01 -0.18139574065E+02  0.31886064736E+02  0.00000000000E+00 0. -1.
         11    1    3    3    0    0 -0.20409938725E+02 -0.21830633259E+02  0.13730714300E+02  0.32888822762E+02  0.51100000000E-03 0.  1.
        -11    1    3    3    0    0 -0.74387577916E+01  0.11754299293E+02  0.10395616750E+02  0.17365699445E+02  0.51100000000E-03 0. -1.
         12    1    3    3    0    0  0.18671820716E+01  0.65213537663E+01 -0.59867569839E+01  0.90474130567E+01  0.00000000000E+00 0. -1.
</event>
<event>
 7    1  0.7457761E-012  0.5930183E+02  0.7816164E-02  0.1266605E+00
        -11   -1    0    0    0    0  0.00000000000E+00  0.00000000000E+00  0.45593999997E+02  0.45594000000E+02  0.51100000000E-03 0.  1.
         11   -1    0    0    0    0 -0.00000000000E+00 -0.00000000000E+00 -0.45593999997E+02  0.45594000000E+02  0.51100000000E-03 0. -1.
    9900012    2    1    2    0    0 -0.56781670439E+01  0.46374297832E+01  0.31031927523E+02  0.59301829616E+02  0.49999791340E+02 0.  0.
         12    1    1    2    0    0  0.56781670439E+01 -0.46374297832E+01 -0.31031927523E+02  0.31886170384E+02  0.00000000000E+00 0. -1.
         11    1    3    3    0    0  0.72889448648E+01  0.90789077711E+01  0.21316693880E+02  0.24289024718E+02  0.51100000000E-03 0. -1.
        -11    1    3    3    0    0 -0.18342034304E+02  0.31378188972E+01 -0.34232174381E+01  0.18920743847E+02  0.51100000000E-03 0.  1.
        -12    1    3    3    0    0  0.53749223952E+01 -0.75792968851E+01  0.13138451082E+02  0.16092061050E+02  0.00000000000E+00 0.  1.
</event>
<event>
 7    1  0.7457761E-012  0.5930194E+02  0.7816164E-02  0.1266605E+00
        -11   -1    0    0    0    0  0.00000000000E+00  0.00000000000E+00  0.45593999997E+02  0.45594000000E+02  0.51100000000E-03 0.  1.
         11   -1    0    0    0    0 -0.00000000000E+00 -0.00000000000E+00 -0.45593999997E+02  0.45594000000E+02  0.51100000000E-03 0. -1.
    9900012    2    1    2    0    0 -0.74216497936E+01  0.17005604506E+02  0.25931631785E+02  0.59301937256E+02  0.49999987650E+02 0.  0.
         12    1    1    2    0    0  0.74216497936E+01 -0.17005604506E+02 -0.25931631785E+02  0.31886062744E+02  0.00000000000E+00 0. -1.
         11    1    3    3    0    0  0.15847473960E+02  0.71267331446E+01  0.26846029169E+02  0.31978774815E+02  0.51100000000E-03 0. -1.
        -11    1    3    3    0    0 -0.14402083766E+02  0.69969602013E+00 -0.17946852177E+01  0.14530329886E+02  0.51100000000E-03 0.  1.
         12    1    3    3    0    0 -0.88670399880E+01  0.91791753418E+01  0.88028783314E+00  0.12792832555E+02  0.00000000000E+00 0. -1.
</event>
<event>
 7    1  0.7457761E-012  0.5930198E+02  0.7816164E-02  0.1266605E+00
        -11   -1    0    0    0    0  0.00000000000E+00  0.00000000000E+00  0.45593999997E+02  0.45594000000E+02  0.51100000000E-03 0.  1.
         11   -1    0    0    0    0 -0.00000000000E+00 -0.00000000000E+00 -0.45593999997E+02  0.45594000000E+02  0.51100000000E-03 0. -1.
    9900012    2    1    2    0    0 -0.69893561314E+01  0.28106876060E+02  0.13336817126E+02  0.59301979990E+02  0.50000065587E+02 0.  0.
         12    1    1    2    0    0  0.69893561314E+01 -0.28106876060E+02 -0.13336817126E+02  0.31886020010E+02  0.00000000000E+00 0. -1.
         11    1    3    3    0    0  0.18137253335E+02  0.12081060307E+02 -0.49516353951E+01  0.22347945544E+02  0.51100000000E-03 0. -1.
        -11    1    3    3    0    0 -0.17980714375E+02  0.16218044697E+02  0.10531043072E+02  0.26405187590E+02  0.51100000000E-03 0.  1.
        -12    1    3    3    0    0 -0.71458950918E+01 -0.19222894383E+00  0.77574094497E+01  0.10548846856E+02  0.00000000000E+00 0.  1.
</event>
<event>
 7    1  0.7457761E-012  0.5930196E+02  0.7816164E-02  0.1266605E+00
        -11   -1    0    0    0    0  0.00000000000E+00  0.00000000000E+00  0.45593999997E+02  0.45594000000E+02  0.51100000000E-03 0. -1.
         11   -1    0    0    0    0 -0.00000000000E+00 -0.00000000000E+00 -0.45593999997E+02  0.45594000000E+02  0.51100000000E-03 0.  1.
    9900012    2    1    2    0    0 -0.83288515214E+01  0.33263925268E+01 -0.30598771234E+02  0.59301961426E+02  0.50000031730E+02 0.  0.
         12    1    1    2    0    0  0.83288515214E+01 -0.33263925268E+01  0.30598771234E+02  0.31886038574E+02  0.00000000000E+00 0. -1.
         11    1    3    3    0    0 -0.11764449921E+02  0.13969079511E+02  0.36301338632E+00  0.18266615541E+02  0.51100000000E-03 0. -1.
        -11    1    3    3    0    0 -0.24268189533E+01 -0.56171435715E+01 -0.32576895219E+02  0.33146581340E+02  0.51100000000E-03 0.  1.
         12    1    3    3    0    0  0.58624173530E+01 -0.50255434127E+01  0.16151105986E+01  0.78887645458E+01  0.00000000000E+00 0. -1.
</event>
<event>
 7    1  0.7457761E-012  0.5930196E+02  0.7816164E-02  0.1266605E+00
        -11   -1    0    0    0    0  0.00000000000E+00  0.00000000000E+00  0.45593999997E+02  0.45594000000E+02  0.51100000000E-03 0.  1.
         11   -1    0    0    0    0 -0.00000000000E+00 -0.00000000000E+00 -0.45593999997E+02  0.45594000000E+02  0.51100000000E-03 0. -1.
    9900012    2    1    2    0    0  0.30345105790E+02 -0.59417226743E+01  0.77839585276E+01  0.59301960357E+02  0.50000029781E+02 0.  0.
         12    1    1    2    0    0 -0.30345105790E+02  0.59417226743E+01 -0.77839585276E+01  0.31886039643E+02  0.00000000000E+00 0. -1.
         11    1    3    3    0    0  0.16568642807E+01 -0.26633696499E+01 -0.92520702900E+01  0.97693163553E+01  0.51100000000E-03 0. -1.
        -11    1    3    3    0    0  0.63957284412E+01  0.11557109819E+02  0.18480871260E+02  0.22715957660E+02  0.51100000000E-03 0.  1.
        -12    1    3    3    0    0  0.22292513068E+02 -0.14835462843E+02 -0.14448424418E+01  0.26816686342E+02  0.00000000000E+00 0.  1.
</event>
<event>
 7    1  0.7457761E-012  0.5930179E+02  0.7816164E-02  0.1266605E+00
        -11   -1    0    0    0    0  0.00000000000E+00  0.00000000000E+00  0.45593999997E+02  0.45594000000E+02  0.51100000000E-03 0.  1.
         11   -1    0    0    0    0 -0.00000000000E+00 -0.00000000000E+00 -0.45593999997E+02  0.45594000000E+02  0.51100000000E-03 0. -1.
    9900012    2    1    2    0    0  0.19592794833E+02 -0.13196608047E+02  0.21417337414E+02  0.59301789576E+02  0.49999718316E+02 0.  0.
         12    1    1    2    0    0 -0.19592794833E+02  0.13196608047E+02 -0.21417337414E+02  0.31886210424E+02  0.00000000000E+00 0. -1.
         11    1    3    3    0    0 -0.58507867812E+01 -0.30582722320E+00  0.13135294488E+02  0.14382670051E+02  0.51100000000E-03 0.  1.
        -11    1    3    3    0    0  0.19308684976E+02  0.90369758053E+01  0.28313872058E+01  0.21506022435E+02  0.51100000000E-03 0. -1.
        -12    1    3    3    0    0  0.61348966383E+01 -0.21927756629E+02  0.54506557205E+01  0.23413097090E+02  0.00000000000E+00 0.  1.
</event>
<event>
 7    1  0.7457761E-012  0.5930195E+02  0.7816164E-02  0.1266605E+00
        -11   -1    0    0    0    0  0.00000000000E+00  0.00000000000E+00  0.45593999997E+02  0.45594000000E+02  0.51100000000E-03 0. -1.
         11   -1    0    0    0    0 -0.00000000000E+00 -0.00000000000E+00 -0.45593999997E+02  0.45594000000E+02  0.51100000000E-03 0.  1.
    9900012    2    1    2    0    0 -0.31456395037E+02 -0.13505660904E+01  0.50390033424E+01  0.59301947059E+02  0.50000005528E+02 0.  0.
         12    1    1    2    0    0  0.31456395037E+02  0.13505660904E+01 -0.50390033424E+01  0.31886052941E+02  0.00000000000E+00 0. -1.
         11    1    3    3    0    0 -0.16667690382E+02 -0.19207828966E+02  0.21242089959E+01  0.25519891465E+02  0.51100000000E-03 0. -1.
        -11    1    3    3    0    0 -0.94926142208E+01  0.72884020805E+01 -0.10486274870E+02  0.15912023458E+02  0.51100000000E-03 0.  1.
         12    1    3    3    0    0 -0.52960904340E+01  0.10568860795E+02  0.13401069216E+02  0.17870032136E+02  0.00000000000E+00 0. -1.
</event>
<event>
 7    1  0.7457761E-012  0.5930187E+02  0.7816164E-02  0.1266605E+00
        -11   -1    0    0    0    0  0.00000000000E+00  0.00000000000E+00  0.45593999997E+02  0.45594000000E+02  0.51100000000E-03 0.  1.
         11   -1    0    0    0    0 -0.00000000000E+00 -0.00000000000E+00 -0.45593999997E+02  0.45594000000E+02  0.51100000000E-03 0. -1.
    9900012    2    1    2    0    0 -0.23214151528E+01  0.29084466832E+02  0.12861964411E+02  0.59301869666E+02  0.49999864381E+02 0.  0.
         12    1    1    2    0    0  0.23214151528E+01 -0.29084466832E+02 -0.12861964411E+02  0.31886130334E+02  0.00000000000E+00 0. -1.
         11    1    3    3    0    0  0.15036843633E+02 -0.25959107993E+01 -0.47564822361E+01  0.15983414618E+02  0.51100000000E-03 0. -1.
        -11    1    3    3    0    0 -0.96865464363E+01  0.47377090392E+01  0.88938361901E+01  0.13977674744E+02  0.51100000000E-03 0.  1.
         12    1    3    3    0    0 -0.76717123497E+01  0.26942668592E+02  0.87246104570E+01  0.29340780304E+02  0.00000000000E+00 0. -1.
</event>
<event>
 7    1  0.7457761E-012  0.5930194E+02  0.7816164E-02  0.1266605E+00
        -11   -1    0    0    0    0  0.00000000000E+00  0.00000000000E+00  0.45593999997E+02  0.45594000000E+02  0.51100000000E-03 0. -1.
         11   -1    0    0    0    0 -0.00000000000E+00 -0.00000000000E+00 -0.45593999997E+02  0.45594000000E+02  0.51100000000E-03 0.  1.
    9900012    2    1    2    0    0  0.78323194541E+01 -0.16006870044E+02 -0.26441552820E+02  0.59301939846E+02  0.49999992373E+02 0.  0.
         12    1    1    2    0    0 -0.78323194541E+01  0.16006870044E+02  0.26441552820E+02  0.31886060154E+02  0.00000000000E+00 0. -1.
         11    1    3    3    0    0  0.16822486989E+02 -0.80343359653E+01 -0.29783139737E+02  0.35136619584E+02  0.51100000000E-03 0. -1.
        -11    1    3    3    0    0 -0.27127433893E+01 -0.74324156412E+01  0.11436986892E+02  0.13906992787E+02  0.51100000000E-03 0.  1.
        -12    1    3    3    0    0 -0.62774241453E+01 -0.54011843805E+00 -0.80953999745E+01  0.10258327475E+02  0.00000000000E+00 0.  1.
</event>
<event>
 7    1  0.7457761E-012  0.5930193E+02  0.7816164E-02  0.1266605E+00
        -11   -1    0    0    0    0  0.00000000000E+00  0.00000000000E+00  0.45593999997E+02  0.45594000000E+02  0.51100000000E-03 0. -1.
         11   -1    0    0    0    0 -0.00000000000E+00 -0.00000000000E+00 -0.45593999997E+02  0.45594000000E+02  0.51100000000E-03 0.  1.
    9900012    2    1    2    0    0 -0.16707944323E+02 -0.79850973074E+01 -0.25957742518E+02  0.59301928133E+02  0.49999971011E+02 0.  0.
         12    1    1    2    0    0  0.16707944323E+02  0.79850973074E+01  0.25957742518E+02  0.31886071867E+02  0.00000000000E+00 0. -1.
         11    1    3    3    0    0 -0.23862151337E+02  0.46390139489E+01 -0.27130878589E+02  0.36428111262E+02  0.51100000000E-03 0. -1.
        -11    1    3    3    0    0  0.39827356676E+01 -0.41808350299E+01 -0.80937619749E+01  0.99423612946E+01  0.51100000000E-03 0.  1.
         12    1    3    3    0    0  0.31714713458E+01 -0.84432762264E+01  0.92668980460E+01  0.12931455576E+02  0.00000000000E+00 0. -1.
</event>
<event>
 7    1  0.7457761E-012  0.5930194E+02  0.7816164E-02  0.1266605E+00
        -11   -1    0    0    0    0  0.00000000000E+00  0.00000000000E+00  0.45593999997E+02  0.45594000000E+02  0.51100000000E-03 0.  1.
         11   -1    0    0    0    0 -0.00000000000E+00 -0.00000000000E+00 -0.45593999997E+02  0.45594000000E+02  0.51100000000E-03 0. -1.
    9900012    2    1    2    0    0  0.56340311069E+01  0.30952367829E+02  0.51893353462E+01  0.59301943768E+02  0.49999999526E+02 0.  0.
         12    1    1    2    0    0 -0.56340311069E+01 -0.30952367829E+02 -0.51893353462E+01  0.31886056232E+02  0.00000000000E+00 0. -1.
         11    1    3    3    0    0 -0.85524155817E+01  0.36576319638E+02  0.86836969150E+00  0.37572929573E+02  0.51100000000E-03 0. -1.
        -11    1    3    3    0    0  0.93668323897E+01  0.42665205372E+01  0.21045975380E+01  0.10505716423E+02  0.51100000000E-03 0.  1.
         12    1    3    3    0    0  0.48196142989E+01 -0.98904723464E+01  0.22163681166E+01  0.11223297771E+02  0.00000000000E+00 0. -1.
</event>
<event>
 7    1  0.7457761E-012  0.5930197E+02  0.7816164E-02  0.1266605E+00
        -11   -1    0    0    0    0  0.00000000000E+00  0.00000000000E+00  0.45593999997E+02  0.45594000000E+02  0.51100000000E-03 0.  1.
         11   -1    0    0    0    0 -0.00000000000E+00 -0.00000000000E+00 -0.45593999997E+02  0.45594000000E+02  0.51100000000E-03 0. -1.
    9900012    2    1    2    0    0 -0.14040041233E+02 -0.11050748703E+02  0.26409791432E+02  0.59301970329E+02  0.50000047967E+02 0.  0.
         12    1    1    2    0    0  0.14040041233E+02  0.11050748703E+02 -0.26409791432E+02  0.31886029671E+02  0.00000000000E+00 0. -1.
         11    1    3    3    0    0  0.13081630793E+02 -0.89222269419E+01 -0.47785865253E+01  0.16539954270E+02  0.51100000000E-03 0. -1.
        -11    1    3    3    0    0 -0.10732604030E+02 -0.11849158493E+01  0.51077414857E+01  0.11944950321E+02  0.51100000000E-03 0.  1.
         12    1    3    3    0    0 -0.16389067997E+02 -0.94360591163E+00  0.26080636471E+02  0.30817065738E+02  0.00000000000E+00 0. -1.
</event>
<event>
 7    1  0.7457761E-012  0.5930195E+02  0.7816164E-02  0.1266605E+00
        -11   -1    0    0    0    0  0.00000000000E+00  0.00000000000E+00  0.45593999997E+02  0.45594000000E+02  0.51100000000E-03 0. -1.
         11   -1    0    0    0    0 -0.00000000000E+00 -0.00000000000E+00 -0.45593999997E+02  0.45594000000E+02  0.51100000000E-03 0.  1.
    9900012    2    1    2    0    0 -0.44275235997E+01 -0.15405183933E+02 -0.27564430103E+02  0.59301945616E+02  0.50000002897E+02 0.  0.
         12    1    1    2    0    0  0.44275235997E+01  0.15405183933E+02  0.27564430103E+02  0.31886054384E+02  0.00000000000E+00 0. -1.
         11    1    3    3    0    0 -0.14605351578E+02 -0.25096964311E+02 -0.13969543909E+02  0.32223005285E+02  0.51100000000E-03 0. -1.
        -11    1    3    3    0    0  0.17561150450E+01  0.57419813424E+01 -0.16317112285E+02  0.17386846850E+02  0.51100000000E-03 0.  1.
         12    1    3    3    0    0  0.84217129332E+01  0.39497990358E+01  0.27222260910E+01  0.96920934809E+01  0.00000000000E+00 0. -1.
</event>
<event>
 7    1  0.7457761E-012  0.5930198E+02  0.7816164E-02  0.1266605E+00
        -11   -1    0    0    0    0  0.00000000000E+00  0.00000000000E+00  0.45593999997E+02  0.45594000000E+02  0.51100000000E-03 0. -1.
         11   -1    0    0    0    0 -0.00000000000E+00 -0.00000000000E+00 -0.45593999997E+02  0.45594000000E+02  0.51100000000E-03 0.  1.
    9900012    2    1    2    0    0 -0.16489207769E+00 -0.31548975134E+02 -0.46209346652E+01  0.59301983338E+02  0.50000071693E+02 0.  0.
         12    1    1    2    0    0  0.16489207769E+00  0.31548975134E+02  0.46209346652E+01  0.31886016662E+02  0.00000000000E+00 0. -1.
         11    1    3    3    0    0 -0.12847239847E+02 -0.29246457787E+02  0.15176388271E+02  0.35365656023E+02  0.51100000000E-03 0. -1.
        -11    1    3    3    0    0  0.78281200595E+01  0.48303385211E+00 -0.11002878951E+02  0.13512073521E+02  0.51100000000E-03 0.  1.
         12    1    3    3    0    0  0.48542277095E+01 -0.27855511991E+01 -0.87944439854E+01  0.10424253794E+02  0.00000000000E+00 0. -1.
</event>
<event>
 7    1  0.7457761E-012  0.5930196E+02  0.7816164E-02  0.1266605E+00
        -11   -1    0    0    0    0  0.00000000000E+00  0.00000000000E+00  0.45593999997E+02  0.45594000000E+02  0.51100000000E-03 0. -1.
         11   -1    0    0    0    0 -0.00000000000E+00 -0.00000000000E+00 -0.45593999997E+02  0.45594000000E+02  0.51100000000E-03 0.  1.
    9900012    2    1    2    0    0 -0.31190335520E+02  0.66242151914E+01 -0.50620157639E-01  0.59301955730E+02  0.50000021343E+02 0.  0.
         12    1    1    2    0    0  0.31190335520E+02 -0.66242151914E+01  0.50620157639E-01  0.31886044270E+02  0.00000000000E+00 0. -1.
         11    1    3    3    0    0 -0.11412986830E+02 -0.14021446040E+02  0.14508394073E+02  0.23180826479E+02  0.51100000000E-03 0. -1.
        -11    1    3    3    0    0 -0.18361713068E+02  0.82900960179E+01 -0.11917244466E+02  0.23407240647E+02  0.51100000000E-03 0.  1.
         12    1    3    3    0    0 -0.14156356220E+01  0.12355565213E+02 -0.26417697650E+01  0.12713888604E+02  0.00000000000E+00 0. -1.
</event>
<event>
 7    1  0.7457761E-012  0.5930200E+02  0.7816164E-02  0.1266605E+00
        -11   -1    0    0    0    0  0.00000000000E+00  0.00000000000E+00  0.45593999997E+02  0.45594000000E+02  0.51100000000E-03 0. -1.
         11   -1    0    0    0    0 -0.00000000000E+00 -0.00000000000E+00 -0.45593999997E+02  0.45594000000E+02  0.51100000000E-03 0.  1.
    9900012    2    1    2    0    0 -0.21492045899E+02  0.22741497900E+02 -0.61345723599E+01  0.59302003988E+02  0.50000109353E+02 0.  0.
         12    1    1    2    0    0  0.21492045899E+02 -0.22741497900E+02  0.61345723599E+01  0.31885996012E+02  0.00000000000E+00 0. -1.
         11    1    3    3    0    0  0.98673013527E+01 -0.45228618256E+01  0.66549127457E+01  0.12732155316E+02  0.51100000000E-03 0. -1.
        -11    1    3    3    0    0 -0.25852451086E+02  0.28421179898E+02 -0.81461509028E+01  0.39274323275E+02  0.51100000000E-03 0.  1.
        -12    1    3    3    0    0 -0.55068961657E+01 -0.11568201723E+01 -0.46433342028E+01  0.72955253964E+01  0.00000000000E+00 0.  1.
</event>
<event>
 7    1  0.7457761E-012  0.5930194E+02  0.7816164E-02  0.1266605E+00
        -11   -1    0    0    0    0  0.00000000000E+00  0.00000000000E+00  0.45593999997E+02  0.45594000000E+02  0.51100000000E-03 0.  1.
         11   -1    0    0    0    0 -0.00000000000E+00 -0.00000000000E+00 -0.45593999997E+02  0.45594000000E+02  0.51100000000E-03 0. -1.
    9900012    2    1    2    0    0 -0.18150391629E+01  0.31656956085E+02  0.33561524816E+01  0.59301937289E+02  0.49999987710E+02 0.  0.
         12    1    1    2    0    0  0.18150391629E+01 -0.31656956085E+02 -0.33561524816E+01  0.31886062711E+02  0.00000000000E+00 0. -1.
         11    1    3    3    0    0 -0.40501869978E+01  0.24892411252E+02 -0.16138819276E+02  0.29941570442E+02  0.51100000000E-03 0.  1.
        -11    1    3    3    0    0  0.11119217513E+02  0.59146363737E+00  0.97601442166E+01  0.14806999788E+02  0.51100000000E-03 0. -1.
        -12    1    3    3    0    0 -0.88840696780E+01  0.61730811959E+01  0.97348275407E+01  0.14553367059E+02  0.00000000000E+00 0.  1.
</event>
<event>
 7    1  0.7457761E-012  0.5930193E+02  0.7816164E-02  0.1266605E+00
        -11   -1    0    0    0    0  0.00000000000E+00  0.00000000000E+00  0.45593999997E+02  0.45594000000E+02  0.51100000000E-03 0. -1.
         11   -1    0    0    0    0 -0.00000000000E+00 -0.00000000000E+00 -0.45593999997E+02  0.45594000000E+02  0.51100000000E-03 0.  1.
    9900012    2    1    2    0    0 -0.16009154934E+02  0.14653307778E+02 -0.23360415343E+02  0.59301929757E+02  0.49999973974E+02 0.  0.
         12    1    1    2    0    0  0.16009154934E+02 -0.14653307778E+02  0.23360415343E+02  0.31886070243E+02  0.00000000000E+00 0. -1.
         11    1    3    3    0    0  0.83157341651E+01  0.20367681745E+02 -0.14689295726E+02  0.26453152999E+02  0.51100000000E-03 0. -1.
        -11    1    3    3    0    0 -0.61112128588E+01 -0.33316270123E+01 -0.12292535967E+02  0.14126326554E+02  0.51100000000E-03 0.  1.
         12    1    3    3    0    0 -0.18213676241E+02 -0.23827469546E+01  0.36214163512E+01  0.18722450204E+02  0.00000000000E+00 0. -1.
</event>
<event>
 7    1  0.7457761E-012  0.5930195E+02  0.7816164E-02  0.1266605E+00
        -11   -1    0    0    0    0  0.00000000000E+00  0.00000000000E+00  0.45593999997E+02  0.45594000000E+02  0.51100000000E-03 0.  1.
         11   -1    0    0    0    0 -0.00000000000E+00 -0.00000000000E+00 -0.45593999997E+02  0.45594000000E+02  0.51100000000E-03 0. -1.
    9900012    2    1    2    0    0  0.31351390814E+02  0.37171453107E+01 -0.44713556107E+01  0.59301954522E+02  0.50000019140E+02 0.  0.
         12    1    1    2    0    0 -0.31351390814E+02 -0.37171453107E+01  0.44713556107E+01  0.31886045478E+02  0.00000000000E+00 0. -1.
         11    1    3    3    0    0 -0.10531320352E+02  0.32030976864E+01 -0.60533606177E+01  0.12562313408E+02  0.51100000000E-03 0. -1.
        -11    1    3    3    0    0  0.27866983023E+02 -0.50622181432E+01  0.92800645806E+01  0.29804603575E+02  0.51100000000E-03 0.  1.
         12    1    3    3    0    0  0.14015728142E+02  0.55762657675E+01 -0.76980595737E+01  0.16935037539E+02  0.00000000000E+00 0. -1.
</event>
<event>
 7    1  0.7457761E-012  0.5930192E+02  0.7816164E-02  0.1266605E+00
        -11   -1    0    0    0    0  0.00000000000E+00  0.00000000000E+00  0.45593999997E+02  0.45594000000E+02  0.51100000000E-03 0.  1.
         11   -1    0    0    0    0 -0.00000000000E+00 -0.00000000000E+00 -0.45593999997E+02  0.45594000000E+02  0.51100000000E-03 0. -1.
    9900012    2    1    2    0    0  0.25841759937E+01  0.22973288676E+02  0.21960694631E+02  0.59301920485E+02  0.49999957064E+02 0.  0.
         12    1    1    2    0    0 -0.25841759937E+01 -0.22973288676E+02 -0.21960694631E+02  0.31886079515E+02  0.00000000000E+00 0. -1.
         11    1    3    3    0    0 -0.93771508393E+01 -0.25721725101E+01 -0.68827393933E+01  0.11912981621E+02  0.51100000000E-03 0. -1.
        -11    1    3    3    0    0 -0.30466187014E+01  0.21910046079E+02  0.15942848316E+02  0.27267314084E+02  0.51100000000E-03 0.  1.
         12    1    3    3    0    0  0.15007945534E+02  0.36354151071E+01  0.12900585709E+02  0.20121624780E+02  0.00000000000E+00 0. -1.
</event>
<event>
 7    1  0.7457761E-012  0.5930194E+02  0.7816164E-02  0.1266605E+00
        -11   -1    0    0    0    0  0.00000000000E+00  0.00000000000E+00  0.45593999997E+02  0.45594000000E+02  0.51100000000E-03 0.  1.
         11   -1    0    0    0    0 -0.00000000000E+00 -0.00000000000E+00 -0.45593999997E+02  0.45594000000E+02  0.51100000000E-03 0. -1.
    9900012    2    1    2    0    0 -0.19864821532E+02  0.24884250771E+02 -0.16982055142E+01  0.59301937639E+02  0.49999988348E+02 0.  0.
         12    1    1    2    0    0  0.19864821532E+02 -0.24884250771E+02  0.16982055142E+01  0.31886062361E+02  0.00000000000E+00 0. -1.
         11    1    3    3    0    0 -0.65020561548E+00  0.15850908997E+02 -0.22382562533E+01  0.16021356831E+02  0.51100000000E-03 0. -1.
        -11    1    3    3    0    0 -0.24893244815E+02  0.51957840861E+01  0.13373344737E+02  0.28731797010E+02  0.51100000000E-03 0.  1.
        -12    1    3    3    0    0  0.56786288989E+01  0.38375576880E+01 -0.12833293998E+02  0.14548783798E+02  0.00000000000E+00 0.  1.
</event>
<event>
 7    1  0.7457761E-012  0.5930193E+02  0.7816164E-02  0.1266605E+00
        -11   -1    0    0    0    0  0.00000000000E+00  0.00000000000E+00  0.45593999997E+02  0.45594000000E+02  0.51100000000E-03 0. -1.
         11   -1    0    0    0    0 -0.00000000000E+00 -0.00000000000E+00 -0.45593999997E+02  0.45594000000E+02  0.51100000000E-03 0.  1.
    9900012    2    1    2    0    0  0.10881898111E+01 -0.29533546174E+02 -0.11971076392E+02  0.59301934444E+02  0.49999982522E+02 0.  0.
         12    1    1    2    0    0 -0.10881898111E+01  0.29533546174E+02  0.11971076392E+02  0.31886065556E+02  0.00000000000E+00 0. -1.
         11    1    3    3    0    0  0.53662097995E+01 -0.28331728483E+02 -0.17743543971E+02  0.33857294625E+02  0.51100000000E-03 0. -1.
        -11    1    3    3    0    0 -0.77163965028E+01  0.10193874417E+02  0.18879386197E+01  0.12923705472E+02  0.51100000000E-03 0.  1.
         12    1    3    3    0    0  0.34383765143E+01 -0.11395692108E+02  0.38845289595E+01  0.12520934347E+02  0.00000000000E+00 0. -1.
</event>
<event>
 7    1  0.7457761E-012  0.5930190E+02  0.7816164E-02  0.1266605E+00
        -11   -1    0    0    0    0  0.00000000000E+00  0.00000000000E+00  0.45593999997E+02  0.45594000000E+02  0.51100000000E-03 0.  1.
         11   -1    0    0    0    0 -0.00000000000E+00 -0.00000000000E+00 -0.45593999997E+02  0.45594000000E+02  0.51100000000E-03 0. -1.
    9900012    2    1    2    0    0 -0.21440883089E+02  0.96588792870E+01  0.21534110873E+02  0.59301900398E+02  0.49999920430E+02 0.  0.
         12    1    1    2    0    0  0.21440883089E+02 -0.96588792870E+01 -0.21534110873E+02  0.31886099602E+02  0.00000000000E+00 0. -1.
         11    1    3    3    0    0 -0.10327620764E+02 -0.39823244783E+01  0.45721462221E+01  0.11975941726E+02  0.51100000000E-03 0. -1.
        -11    1    3    3    0    0 -0.96287092206E+01  0.17271965208E+02 -0.85286284130E+01  0.21535327401E+02  0.51100000000E-03 0.  1.
        -12    1    3    3    0    0 -0.14845531040E+01 -0.36307614430E+01  0.25490593064E+02  0.25790631271E+02  0.00000000000E+00 0.  1.
</event>
<event>
 7    1  0.7457761E-012  0.5930196E+02  0.7816164E-02  0.1266605E+00
        -11   -1    0    0    0    0  0.00000000000E+00  0.00000000000E+00  0.45593999997E+02  0.45594000000E+02  0.51100000000E-03 0.  1.
         11   -1    0    0    0    0 -0.00000000000E+00 -0.00000000000E+00 -0.45593999997E+02  0.45594000000E+02  0.51100000000E-03 0. -1.
    9900012    2    1    2    0    0 -0.16698141732E+02 -0.17161552599E+02  0.21056424124E+02  0.59301955689E+02  0.50000021268E+02 0.  0.
         12    1    1    2    0    0  0.16698141732E+02  0.17161552599E+02 -0.21056424124E+02  0.31886044311E+02  0.00000000000E+00 0. -1.
         11    1    3    3    0    0 -0.25554729177E+02 -0.12125925369E+02  0.26116479681E+02  0.38498737130E+02  0.51100000000E-03 0. -1.
        -11    1    3    3    0    0  0.35047709793E+01 -0.78007396992E+01  0.43773814449E+01  0.96071029997E+01  0.51100000000E-03 0.  1.
         12    1    3    3    0    0  0.53518164660E+01  0.27651124695E+01 -0.94374370022E+01  0.11196115560E+02  0.00000000000E+00 0. -1.
</event>
<event>
 7    1  0.7457761E-012  0.5930196E+02  0.7816164E-02  0.1266605E+00
        -11   -1    0    0    0    0  0.00000000000E+00  0.00000000000E+00  0.45593999997E+02  0.45594000000E+02  0.51100000000E-03 0.  1.
         11   -1    0    0    0    0 -0.00000000000E+00 -0.00000000000E+00 -0.45593999997E+02  0.45594000000E+02  0.51100000000E-03 0. -1.
    9900012    2    1    2    0    0  0.25454310372E+02 -0.65318692943E+01  0.18059126182E+02  0.59301964320E+02  0.50000037007E+02 0.  0.
         12    1    1    2    0    0 -0.25454310372E+02  0.65318692943E+01 -0.18059126182E+02  0.31886035680E+02  0.00000000000E+00 0. -1.
         11    1    3    3    0    0 -0.61711297697E+01 -0.11223720931E+02 -0.68686887932E+01  0.14533879048E+02  0.51100000000E-03 0. -1.
        -11    1    3    3    0    0  0.23789338071E+02 -0.96197783273E+00  0.77133519398E+01  0.25027061466E+02  0.51100000000E-03 0.  1.
         12    1    3    3    0    0  0.78361020706E+01  0.56538294697E+01  0.17214463035E+02  0.19741023806E+02  0.00000000000E+00 0. -1.
</event>
<event>
 7    1  0.7457761E-012  0.5930195E+02  0.7816164E-02  0.1266605E+00
        -11   -1    0    0    0    0  0.00000000000E+00  0.00000000000E+00  0.45593999997E+02  0.45594000000E+02  0.51100000000E-03 0.  1.
         11   -1    0    0    0    0 -0.00000000000E+00 -0.00000000000E+00 -0.45593999997E+02  0.45594000000E+02  0.51100000000E-03 0. -1.
    9900012    2    1    2    0    0 -0.16089211038E+02 -0.11253215407E+02  0.25124141063E+02  0.59301952378E+02  0.50000015228E+02 0.  0.
         12    1    1    2    0    0  0.16089211038E+02  0.11253215407E+02 -0.25124141063E+02  0.31886047622E+02  0.00000000000E+00 0. -1.
         11    1    3    3    0    0  0.20756029543E+01 -0.18762195601E+02  0.45888052169E+01  0.19426405869E+02  0.51100000000E-03 0. -1.
        -11    1    3    3    0    0 -0.22796109995E+02 -0.20350820225E+01  0.10172521317E+02  0.25045645928E+02  0.51100000000E-03 0.  1.
        -12    1    3    3    0    0  0.46312960029E+01  0.95440622169E+01  0.10362814529E+02  0.14829900581E+02  0.00000000000E+00 0.  1.
</event>
<event>
 7    1  0.7457761E-012  0.5930195E+02  0.7816164E-02  0.1266605E+00
        -11   -1    0    0    0    0  0.00000000000E+00  0.00000000000E+00  0.45593999997E+02  0.45594000000E+02  0.51100000000E-03 0.  1.
         11   -1    0    0    0    0 -0.00000000000E+00 -0.00000000000E+00 -0.45593999997E+02  0.45594000000E+02  0.51100000000E-03 0. -1.
    9900012    2    1    2    0    0  0.25311545976E+00  0.87881501590E+00  0.31872934848E+02  0.59301947264E+02  0.50000005902E+02 0.  0.
         12    1    1    2    0    0 -0.25311545976E+00 -0.87881501590E+00 -0.31872934848E+02  0.31886052736E+02  0.00000000000E+00 0. -1.
         11    1    3    3    0    0 -0.68191091467E+00 -0.10528912848E+02  0.22137941359E+01  0.10780718575E+02  0.51100000000E-03 0. -1.
        -11    1    3    3    0    0 -0.15594831097E+02  0.14455157647E+02  0.13388562943E+02  0.25127752735E+02  0.51100000000E-03 0.  1.
        -12    1    3    3    0    0  0.16529857471E+02 -0.30474297830E+01  0.16270577769E+02  0.23393475954E+02  0.00000000000E+00 0.  1.
</event>
<event>
 7    1  0.7457761E-012  0.5930197E+02  0.7816164E-02  0.1266605E+00
        -11   -1    0    0    0    0  0.00000000000E+00  0.00000000000E+00  0.45593999997E+02  0.45594000000E+02  0.51100000000E-03 0.  1.
         11   -1    0    0    0    0 -0.00000000000E+00 -0.00000000000E+00 -0.45593999997E+02  0.45594000000E+02  0.51100000000E-03 0. -1.
    9900012    2    1    2    0    0 -0.13276464074E+02 -0.24896289622E+02  0.14853592773E+02  0.59301969304E+02  0.50000046099E+02 0.  0.
         12    1    1    2    0    0  0.13276464074E+02  0.24896289622E+02 -0.14853592773E+02  0.31886030696E+02  0.00000000000E+00 0. -1.
         11    1    3    3    0    0  0.94364847888E+01  0.61161946947E+01 -0.14003110873E+01  0.11332076337E+02  0.51100000000E-03 0. -1.
        -11    1    3    3    0    0 -0.13239142342E+02 -0.29552047659E+02  0.43293566374E+01  0.32670196509E+02  0.51100000000E-03 0.  1.
         12    1    3    3    0    0 -0.94738065210E+01 -0.14604366573E+01  0.11924547223E+02  0.15299696458E+02  0.00000000000E+00 0. -1.
</event>
<event>
 7    1  0.7457761E-012  0.5930195E+02  0.7816164E-02  0.1266605E+00
        -11   -1    0    0    0    0  0.00000000000E+00  0.00000000000E+00  0.45593999997E+02  0.45594000000E+02  0.51100000000E-03 0. -1.
         11   -1    0    0    0    0 -0.00000000000E+00 -0.00000000000E+00 -0.45593999997E+02  0.45594000000E+02  0.51100000000E-03 0.  1.
    9900012    2    1    2    0    0  0.17400897254E+02  0.85143034479E+01 -0.25326574606E+02  0.59301953369E+02  0.50000017037E+02 0.  0.
         12    1    1    2    0    0 -0.17400897254E+02 -0.85143034479E+01  0.25326574606E+02  0.31886046631E+02  0.00000000000E+00 0. -1.
         11    1    3    3    0    0  0.36724601464E+01  0.24138180171E+02  0.69314117015E-01  0.24416050258E+02  0.51100000000E-03 0. -1.
        -11    1    3    3    0    0  0.90771762512E+01 -0.20563143966E+01 -0.12601127102E+02  0.15665629961E+02  0.51100000000E-03 0.  1.
         12    1    3    3    0    0  0.46512608561E+01 -0.13567562326E+02 -0.12794761622E+02  0.19220273150E+02  0.00000000000E+00 0. -1.
</event>
<event>
 7    1  0.7457761E-012  0.5930194E+02  0.7816164E-02  0.1266605E+00
        -11   -1    0    0    0    0  0.00000000000E+00  0.00000000000E+00  0.45593999997E+02  0.45594000000E+02  0.51100000000E-03 0. -1.
         11   -1    0    0    0    0 -0.00000000000E+00 -0.00000000000E+00 -0.45593999997E+02  0.45594000000E+02  0.51100000000E-03 0.  1.
    9900012    2    1    2    0    0 -0.28940588318E+02 -0.11452602881E+02 -0.69282735681E+01  0.59301941298E+02  0.49999995021E+02 0.  0.
         12    1    1    2    0    0  0.28940588318E+02  0.11452602881E+02  0.69282735681E+01  0.31886058702E+02  0.00000000000E+00 0. -1.
         11    1    3    3    0    0  0.12224145158E+01 -0.90663568129E+01  0.37275702850E+01  0.98786589979E+01  0.51100000000E-03 0. -1.
        -11    1    3    3    0    0 -0.27137805196E+02 -0.86475108072E+01 -0.22087348166E+02  0.36042903092E+02  0.51100000000E-03 0.  1.
        -12    1    3    3    0    0 -0.30251976378E+01  0.62612647393E+01  0.11431504313E+02  0.13380379208E+02  0.00000000000E+00 0.  1.
</event>
<event>
 7    1  0.7457761E-012  0.5930195E+02  0.7816164E-02  0.1266605E+00
        -11   -1    0    0    0    0  0.00000000000E+00  0.00000000000E+00  0.45593999997E+02  0.45594000000E+02  0.51100000000E-03 0. -1.
         11   -1    0    0    0    0 -0.00000000000E+00 -0.00000000000E+00 -0.45593999997E+02  0.45594000000E+02  0.51100000000E-03 0.  1.
    9900012    2    1    2    0    0 -0.24781301821E+02 -0.17997972024E+02 -0.88701968602E+01  0.59301948045E+02  0.50000007327E+02 0.  0.
         12    1    1    2    0    0  0.24781301821E+02  0.17997972024E+02  0.88701968602E+01  0.31886051955E+02  0.00000000000E+00 0. -1.
         11    1    3    3    0    0 -0.17943394101E+02  0.90208577960E+01 -0.57227391571E+01  0.20882792221E+02  0.51100000000E-03 0. -1.
        -11    1    3    3    0    0 -0.43141391629E+00 -0.28099591573E+02  0.44166543036E+01  0.28447847019E+02  0.51100000000E-03 0.  1.
        -12    1    3    3    0    0 -0.64064938036E+01  0.10807617529E+01 -0.75641120067E+01  0.99713088044E+01  0.00000000000E+00 0.  1.
</event>
<event>
 7    1  0.7457761E-012  0.5930194E+02  0.7816164E-02  0.1266605E+00
        -11   -1    0    0    0    0  0.00000000000E+00  0.00000000000E+00  0.45593999997E+02  0.45594000000E+02  0.51100000000E-03 0.  1.
         11   -1    0    0    0    0 -0.00000000000E+00 -0.00000000000E+00 -0.45593999997E+02  0.45594000000E+02  0.51100000000E-03 0. -1.
    9900012    2    1    2    0    0  0.26865073326E+02 -0.14385331006E+02  0.93835363928E+01  0.59301942417E+02  0.49999997062E+02 0.  0.
         12    1    1    2    0    0 -0.26865073326E+02  0.14385331006E+02 -0.93835363928E+01  0.31886057583E+02  0.00000000000E+00 0. -1.
         11    1    3    3    0    0  0.13384214122E+01 -0.13767994795E+02 -0.20929207942E+01  0.13990331313E+02  0.51100000000E-03 0. -1.
        -11    1    3    3    0    0  0.12598009970E+02  0.15074459217E+02 -0.36350085020E+01  0.19979050602E+02  0.51100000000E-03 0.  1.
        -12    1    3    3    0    0  0.12928641945E+02 -0.15691795428E+02  0.15111465689E+02  0.25332560502E+02  0.00000000000E+00 0.  1.
</event>
<event>
 7    1  0.7457761E-012  0.5930193E+02  0.7816164E-02  0.1266605E+00
        -11   -1    0    0    0    0  0.00000000000E+00  0.00000000000E+00  0.45593999997E+02  0.45594000000E+02  0.51100000000E-03 0.  1.
         11   -1    0    0    0    0 -0.00000000000E+00 -0.00000000000E+00 -0.45593999997E+02  0.45594000000E+02  0.51100000000E-03 0. -1.
    9900012    2    1    2    0    0 -0.64879143116E+01  0.10031847398E+02  0.29563327291E+02  0.59301932277E+02  0.49999978569E+02 0.  0.
         12    1    1    2    0    0  0.64879143116E+01 -0.10031847398E+02 -0.29563327291E+02  0.31886067723E+02  0.00000000000E+00 0. -1.
         11    1    3    3    0    0 -0.72300680321E+01  0.21659879203E+02  0.56830058666E+00  0.22841786635E+02  0.51100000000E-03 0. -1.
        -11    1    3    3    0    0 -0.83962398167E+01 -0.27291538690E+01  0.15854664590E+02  0.18147052472E+02  0.51100000000E-03 0.  1.
         12    1    3    3    0    0  0.91383935371E+01 -0.88988779360E+01  0.13140362114E+02  0.18313093170E+02  0.00000000000E+00 0. -1.
</event>
<event>
 7    1  0.7457761E-012  0.5930194E+02  0.7816164E-02  0.1266605E+00
        -11   -1    0    0    0    0  0.00000000000E+00  0.00000000000E+00  0.45593999997E+02  0.45594000000E+02  0.51100000000E-03 0.  1.
         11   -1    0    0    0    0 -0.00000000000E+00 -0.00000000000E+00 -0.45593999997E+02  0.45594000000E+02  0.51100000000E-03 0. -1.
    9900012    2    1    2    0    0  0.25077025137E+02  0.19410855262E+02 -0.33290460956E+01  0.59301936593E+02  0.49999986440E+02 0.  0.
         12    1    1    2    0    0 -0.25077025137E+02 -0.19410855262E+02  0.33290460956E+01  0.31886063407E+02  0.00000000000E+00 0. -1.
         11    1    3    3    0    0  0.12102764750E+02 -0.15826765491E+01 -0.52563441826E+00  0.12217122061E+02  0.51100000000E-03 0. -1.
        -11    1    3    3    0    0 -0.25213107614E+01  0.26796834834E+02 -0.10429668068E+02  0.28865296488E+02  0.51100000000E-03 0.  1.
        -12    1    3    3    0    0  0.15495571148E+02 -0.58033030235E+01  0.76262563903E+01  0.18219518043E+02  0.00000000000E+00 0.  1.
</event>
<event>
 7    1  0.7457761E-012  0.5930195E+02  0.7816164E-02  0.1266605E+00
        -11   -1    0    0    0    0  0.00000000000E+00  0.00000000000E+00  0.45593999997E+02  0.45594000000E+02  0.51100000000E-03 0.  1.
         11   -1    0    0    0    0 -0.00000000000E+00 -0.00000000000E+00 -0.45593999997E+02  0.45594000000E+02  0.51100000000E-03 0. -1.
    9900012    2    1    2    0    0  0.27663054625E+02  0.15813375149E+02  0.11887086442E+01  0.59301945791E+02  0.50000003215E+02 0.  0.
         12    1    1    2    0    0 -0.27663054625E+02 -0.15813375149E+02 -0.11887086442E+01  0.31886054209E+02  0.00000000000E+00 0. -1.
         11    1    3    3    0    0  0.58971481087E+01 -0.23495082815E+01  0.13878738816E+02  0.15261583678E+02  0.51100000000E-03 0. -1.
        -11    1    3    3    0    0  0.54801202603E+01  0.40642969541E+01 -0.20127089300E+02  0.21252057589E+02  0.51100000000E-03 0.  1.
        -12    1    3    3    0    0  0.16285786256E+02  0.14098586476E+02  0.74370591280E+01  0.22788304524E+02  0.00000000000E+00 0.  1.
</event>
<event>
 7    1  0.7457761E-012  0.5930185E+02  0.7816164E-02  0.1266605E+00
        -11   -1    0    0    0    0  0.00000000000E+00  0.00000000000E+00  0.45593999997E+02  0.45594000000E+02  0.51100000000E-03 0.  1.
         11   -1    0    0    0    0 -0.00000000000E+00 -0.00000000000E+00 -0.45593999997E+02  0.45594000000E+02  0.51100000000E-03 0. -1.
    9900012    2    1    2    0    0  0.27353939640E+02  0.61464771894E+01  0.15189111695E+02  0.59301853953E+02  0.49999835725E+02 0.  0.
         12    1    1    2    0    0 -0.27353939640E+02 -0.61464771894E+01 -0.15189111695E+02  0.31886146047E+02  0.00000000000E+00 0. -1.
         11    1    3    3    0    0 -0.81815372786E+01 -0.59526267766E+01 -0.48671653337E+01  0.11227671906E+02  0.51100000000E-03 0. -1.
        -11    1    3    3    0    0  0.35335000507E+02  0.39823201674E+01  0.15873591666E+02  0.38940878873E+02  0.51100000000E-03 0.  1.
        -12    1    3    3    0    0  0.20047641154E+00  0.81167837986E+01  0.41826853629E+01  0.91333031741E+01  0.00000000000E+00 0.  1.
</event>
<event>
 7    1  0.7457761E-012  0.5930190E+02  0.7816164E-02  0.1266605E+00
        -11   -1    0    0    0    0  0.00000000000E+00  0.00000000000E+00  0.45593999997E+02  0.45594000000E+02  0.51100000000E-03 0. -1.
         11   -1    0    0    0    0 -0.00000000000E+00 -0.00000000000E+00 -0.45593999997E+02  0.45594000000E+02  0.51100000000E-03 0.  1.
    9900012    2    1    2    0    0 -0.17061738127E+02  0.26875586527E+02  0.18229898720E+01  0.59301900346E+02  0.49999920334E+02 0.  0.
         12    1    1    2    0    0  0.17061738127E+02 -0.26875586527E+02 -0.18229898720E+01  0.31886099654E+02  0.00000000000E+00 0. -1.
         11    1    3    3    0    0 -0.12749925087E+02  0.14849305012E+02  0.16238675665E+02  0.25431418298E+02  0.51100000000E-03 0. -1.
        -11    1    3    3    0    0 -0.99775445655E+01  0.15604088323E+02 -0.18372936836E+02  0.26088383932E+02  0.51100000000E-03 0.  1.
         12    1    3    3    0    0  0.56657315248E+01 -0.35778068076E+01  0.39572510434E+01  0.77820981158E+01  0.00000000000E+00 0. -1.
</event>
<event>
 7    1  0.7457761E-012  0.5930191E+02  0.7816164E-02  0.1266605E+00
        -11   -1    0    0    0    0  0.00000000000E+00  0.00000000000E+00  0.45593999997E+02  0.45594000000E+02  0.51100000000E-03 0. -1.
         11   -1    0    0    0    0 -0.00000000000E+00 -0.00000000000E+00 -0.45593999997E+02  0.45594000000E+02  0.51100000000E-03 0.  1.
    9900012    2    1    2    0    0  0.24353959166E+02  0.34161330603E+01 -0.20296238627E+02  0.59301912210E+02  0.49999941972E+02 0.  0.
         12    1    1    2    0    0 -0.24353959166E+02 -0.34161330603E+01  0.20296238627E+02  0.31886087790E+02  0.00000000000E+00 0. -1.
         11    1    3    3    0    0 -0.22091163958E+01  0.18111953583E+02 -0.64533432888E+01  0.19353777349E+02  0.51100000000E-03 0. -1.
        -11    1    3    3    0    0  0.13535071926E+02 -0.18093676077E+02 -0.32747629890E+01  0.22832068651E+02  0.51100000000E-03 0.  1.
         12    1    3    3    0    0  0.13028003636E+02  0.33978555545E+01 -0.10568132349E+02  0.17116066209E+02  0.00000000000E+00 0. -1.
</event>
<event>
 7    1  0.7457761E-012  0.5930193E+02  0.7816164E-02  0.1266605E+00
        -11   -1    0    0    0    0  0.00000000000E+00  0.00000000000E+00  0.45593999997E+02  0.45594000000E+02  0.51100000000E-03 0.  1.
         11   -1    0    0    0    0 -0.00000000000E+00 -0.00000000000E+00 -0.45593999997E+02  0.45594000000E+02  0.51100000000E-03 0. -1.
    9900012    2    1    2    0    0  0.13492440475E+02 -0.24840814113E+02  0.14751587062E+02  0.59301932249E+02  0.49999978519E+02 0.  0.
         12    1    1    2    0    0 -0.13492440475E+02  0.24840814113E+02 -0.14751587062E+02  0.31886067751E+02  0.00000000000E+00 0. -1.
         11    1    3    3    0    0  0.56778187790E+01  0.46195574858E+01 -0.76721547599E+01  0.10603768027E+02  0.51100000000E-03 0. -1.
        -11    1    3    3    0    0 -0.99155759584E+01 -0.13861820261E+02  0.17782998607E+02  0.24631356992E+02  0.51100000000E-03 0.  1.
        -12    1    3    3    0    0  0.17730197654E+02 -0.15598551337E+02  0.46407432152E+01  0.24066807231E+02  0.00000000000E+00 0.  1.
</event>
<event>
 7    1  0.7457761E-012  0.5930194E+02  0.7816164E-02  0.1266605E+00
        -11   -1    0    0    0    0  0.00000000000E+00  0.00000000000E+00  0.45593999997E+02  0.45594000000E+02  0.51100000000E-03 0.  1.
         11   -1    0    0    0    0 -0.00000000000E+00 -0.00000000000E+00 -0.45593999997E+02  0.45594000000E+02  0.51100000000E-03 0. -1.
    9900012    2    1    2    0    0  0.20743967226E+02  0.51916743770E+01  0.23652798157E+02  0.59301944744E+02  0.50000001307E+02 0.  0.
         12    1    1    2    0    0 -0.20743967226E+02 -0.51916743770E+01 -0.23652798157E+02  0.31886055256E+02  0.00000000000E+00 0. -1.
         11    1    3    3    0    0  0.35839631169E+01  0.21826958567E+02  0.79652663971E+01  0.23509708228E+02  0.51100000000E-03 0. -1.
        -11    1    3    3    0    0  0.72855880794E+01 -0.79983117490E+01  0.19352280032E+02  0.22171231973E+02  0.51100000000E-03 0.  1.
         12    1    3    3    0    0  0.98744160297E+01 -0.86369724413E+01 -0.36647482719E+01  0.13621004544E+02  0.00000000000E+00 0. -1.
</event>
<event>
 7    1  0.7457761E-012  0.5930194E+02  0.7816164E-02  0.1266605E+00
        -11   -1    0    0    0    0  0.00000000000E+00  0.00000000000E+00  0.45593999997E+02  0.45594000000E+02  0.51100000000E-03 0. -1.
         11   -1    0    0    0    0 -0.00000000000E+00 -0.00000000000E+00 -0.45593999997E+02  0.45594000000E+02  0.51100000000E-03 0.  1.
    9900012    2    1    2    0    0 -0.17900177967E+02 -0.22594627117E+02 -0.13630370782E+02  0.59301944216E+02  0.50000000343E+02 0.  0.
         12    1    1    2    0    0  0.17900177967E+02  0.22594627117E+02  0.13630370782E+02  0.31886055784E+02  0.00000000000E+00 0. -1.
         11    1    3    3    0    0  0.54897030242E+01  0.72980136060E+01 -0.13772213817E+02  0.16524881711E+02  0.51100000000E-03 0. -1.
        -11    1    3    3    0    0 -0.40416941192E+01 -0.21134491734E+02  0.74515426206E+00  0.21530380567E+02  0.51100000000E-03 0.  1.
         12    1    3    3    0    0 -0.19348186872E+02 -0.87581489888E+01 -0.60331122723E+00  0.21246681939E+02  0.00000000000E+00 0. -1.
</event>
<event>
 7    1  0.7457761E-012  0.5930195E+02  0.7816164E-02  0.1266605E+00
        -11   -1    0    0    0    0  0.00000000000E+00  0.00000000000E+00  0.45593999997E+02  0.45594000000E+02  0.51100000000E-03 0.  1.
         11   -1    0    0    0    0 -0.00000000000E+00 -0.00000000000E+00 -0.45593999997E+02  0.45594000000E+02  0.51100000000E-03 0. -1.
    9900012    2    1    2    0    0  0.45864373104E+01 -0.16606828152E+02  0.26830911246E+02  0.59301953730E+02  0.50000017694E+02 0.  0.
         12    1    1    2    0    0 -0.45864373104E+01  0.16606828152E+02 -0.26830911246E+02  0.31886046270E+02  0.00000000000E+00 0. -1.
         11    1    3    3    0    0  0.18522057732E+02 -0.18067380021E+02  0.97877062514E+01  0.27663984481E+02  0.51100000000E-03 0. -1.
        -11    1    3    3    0    0 -0.13693756227E+02 -0.88703899592E+01  0.10119674073E+02  0.19199233871E+02  0.51100000000E-03 0.  1.
         12    1    3    3    0    0 -0.24186419456E+00  0.10330941829E+02  0.69235309213E+01  0.12438735377E+02  0.00000000000E+00 0. -1.
</event>
<event>
 7    1  0.7457761E-012  0.5930194E+02  0.7816164E-02  0.1266605E+00
        -11   -1    0    0    0    0  0.00000000000E+00  0.00000000000E+00  0.45593999997E+02  0.45594000000E+02  0.51100000000E-03 0.  1.
         11   -1    0    0    0    0 -0.00000000000E+00 -0.00000000000E+00 -0.45593999997E+02  0.45594000000E+02  0.51100000000E-03 0. -1.
    9900012    2    1    2    0    0 -0.10813032987E+02  0.12184156057E+01  0.29971897061E+02  0.59301939842E+02  0.49999992366E+02 0.  0.
         12    1    1    2    0    0  0.10813032987E+02 -0.12184156057E+01 -0.29971897061E+02  0.31886060158E+02  0.00000000000E+00 0. -1.
         11    1    3    3    0    0 -0.54840593114E+01  0.47290661022E+01  0.23028913556E+01  0.75988342255E+01  0.51100000000E-03 0. -1.
        -11    1    3    3    0    0  0.15161143643E+02 -0.40236586966E+01 -0.18193199719E+01  0.15791137745E+02  0.51100000000E-03 0.  1.
        -12    1    3    3    0    0 -0.20490117318E+02  0.51300820003E+00  0.29488325677E+02  0.35911967871E+02  0.00000000000E+00 0.  1.
</event>
<event>
 7    1  0.7457761E-012  0.5930199E+02  0.7816164E-02  0.1266605E+00
        -11   -1    0    0    0    0  0.00000000000E+00  0.00000000000E+00  0.45593999997E+02  0.45594000000E+02  0.51100000000E-03 0.  1.
         11   -1    0    0    0    0 -0.00000000000E+00 -0.00000000000E+00 -0.45593999997E+02  0.45594000000E+02  0.51100000000E-03 0. -1.
    9900012    2    1    2    0    0 -0.23602592318E+02 -0.55137117862E+01  0.20717974904E+02  0.59301986359E+02  0.50000077201E+02 0.  0.
         12    1    1    2    0    0  0.23602592318E+02  0.55137117862E+01 -0.20717974904E+02  0.31886013641E+02  0.00000000000E+00 0. -1.
         11    1    3    3    0    0  0.20359328162E+01 -0.43750926572E+01 -0.36004667032E+01  0.60207822525E+01  0.51100000000E-03 0. -1.
        -11    1    3    3    0    0 -0.27571237256E+02  0.10442103317E+02  0.39154700763E+01  0.29741243278E+02  0.51100000000E-03 0.  1.
        -12    1    3    3    0    0  0.19327121215E+01 -0.11580722446E+02  0.20402971531E+02  0.23539960828E+02  0.00000000000E+00 0.  1.
</event>
<event>
 7    1  0.7457761E-012  0.5930196E+02  0.7816164E-02  0.1266605E+00
        -11   -1    0    0    0    0  0.00000000000E+00  0.00000000000E+00  0.45593999997E+02  0.45594000000E+02  0.51100000000E-03 0.  1.
         11   -1    0    0    0    0 -0.00000000000E+00 -0.00000000000E+00 -0.45593999997E+02  0.45594000000E+02  0.51100000000E-03 0. -1.
    9900012    2    1    2    0    0  0.11402742837E+01 -0.31425687967E+02  0.52769076681E+01  0.59301955338E+02  0.50000020627E+02 0.  0.
         12    1    1    2    0    0 -0.11402742837E+01  0.31425687967E+02 -0.52769076681E+01  0.31886044662E+02  0.00000000000E+00 0. -1.
         11    1    3    3    0    0 -0.70646117028E+00  0.18659745064E+01  0.98972961527E+01  0.10096406273E+02  0.51100000000E-03 0. -1.
        -11    1    3    3    0    0  0.29283910217E+00 -0.38928759081E+02 -0.11096273619E+02  0.40480382000E+02  0.51100000000E-03 0.  1.
        -12    1    3    3    0    0  0.15538963518E+01  0.56370966076E+01  0.64758851341E+01  0.87251670646E+01  0.00000000000E+00 0.  1.
</event>
<event>
 7    1  0.7457761E-012  0.5930195E+02  0.7816164E-02  0.1266605E+00
        -11   -1    0    0    0    0  0.00000000000E+00  0.00000000000E+00  0.45593999997E+02  0.45594000000E+02  0.51100000000E-03 0.  1.
         11   -1    0    0    0    0 -0.00000000000E+00 -0.00000000000E+00 -0.45593999997E+02  0.45594000000E+02  0.51100000000E-03 0. -1.
    9900012    2    1    2    0    0  0.15838513228E+01 -0.23542221515E+02  0.21447042104E+02  0.59301946719E+02  0.50000004907E+02 0.  0.
         12    1    1    2    0    0 -0.15838513228E+01  0.23542221515E+02 -0.21447042104E+02  0.31886053281E+02  0.00000000000E+00 0. -1.
         11    1    3    3    0    0 -0.21545701995E+00 -0.18939402576E+02 -0.51404995459E+00  0.18947602468E+02  0.51100000000E-03 0. -1.
        -11    1    3    3    0    0 -0.88332611573E+01  0.10443629612E+02  0.31758813813E+01  0.14042155282E+02  0.51100000000E-03 0.  1.
        -12    1    3    3    0    0  0.10632569500E+02 -0.15046448551E+02  0.18785210677E+02  0.26312188969E+02  0.00000000000E+00 0.  1.
</event>
<event>
 7    1  0.7457761E-012  0.5930193E+02  0.7816164E-02  0.1266605E+00
        -11   -1    0    0    0    0  0.00000000000E+00  0.00000000000E+00  0.45593999997E+02  0.45594000000E+02  0.51100000000E-03 0.  1.
         11   -1    0    0    0    0 -0.00000000000E+00 -0.00000000000E+00 -0.45593999997E+02  0.45594000000E+02  0.51100000000E-03 0. -1.
    9900012    2    1    2    0    0  0.27298996397E+02 -0.43982846701E+01  0.15878950795E+02  0.59301934224E+02  0.49999982120E+02 0.  0.
         12    1    1    2    0    0 -0.27298996397E+02  0.43982846701E+01 -0.15878950795E+02  0.31886065776E+02  0.00000000000E+00 0. -1.
         11    1    3    3    0    0  0.63278157998E+01 -0.25152497924E+02  0.80166224521E+01  0.27146926905E+02  0.51100000000E-03 0. -1.
        -11    1    3    3    0    0  0.96845279473E+01  0.62419508374E+01 -0.13336510396E+01  0.11598735154E+02  0.51100000000E-03 0.  1.
         12    1    3    3    0    0  0.11286652650E+02  0.14512262416E+02  0.91959793826E+01  0.20556272164E+02  0.00000000000E+00 0. -1.
</event>
<event>
 7    1  0.7457761E-012  0.5930192E+02  0.7816164E-02  0.1266605E+00
        -11   -1    0    0    0    0  0.00000000000E+00  0.00000000000E+00  0.45593999997E+02  0.45594000000E+02  0.51100000000E-03 0.  1.
         11   -1    0    0    0    0 -0.00000000000E+00 -0.00000000000E+00 -0.45593999997E+02  0.45594000000E+02  0.51100000000E-03 0. -1.
    9900012    2    1    2    0    0 -0.12672913296E+02  0.18591808166E+02  0.22593447658E+02  0.59301922484E+02  0.49999960709E+02 0.  0.
         12    1    1    2    0    0  0.12672913296E+02 -0.18591808166E+02 -0.22593447658E+02  0.31886077516E+02  0.00000000000E+00 0. -1.
         11    1    3    3    0    0 -0.12801270415E+02 -0.36016161861E+01 -0.62500054445E+01  0.14693765062E+02  0.51100000000E-03 0. -1.
        -11    1    3    3    0    0 -0.38592970605E+01  0.17424088173E+02  0.32728014057E+02  0.37277552586E+02  0.51100000000E-03 0.  1.
         12    1    3    3    0    0  0.39876541793E+01  0.47693361787E+01 -0.38845609542E+01  0.73306048350E+01  0.00000000000E+00 0. -1.
</event>
<event>
 7    1  0.7457761E-012  0.5930193E+02  0.7816164E-02  0.1266605E+00
        -11   -1    0    0    0    0  0.00000000000E+00  0.00000000000E+00  0.45593999997E+02  0.45594000000E+02  0.51100000000E-03 0. -1.
         11   -1    0    0    0    0 -0.00000000000E+00 -0.00000000000E+00 -0.45593999997E+02  0.45594000000E+02  0.51100000000E-03 0.  1.
    9900012    2    1    2    0    0 -0.16887548362E+02 -0.20045235666E+02 -0.18158208093E+02  0.59301932765E+02  0.49999979459E+02 0.  0.
         12    1    1    2    0    0  0.16887548362E+02  0.20045235666E+02  0.18158208093E+02  0.31886067235E+02  0.00000000000E+00 0. -1.
         11    1    3    3    0    0  0.35537976940E+01  0.12890090264E+02  0.14995395898E+01  0.13454832749E+02  0.51100000000E-03 0. -1.
        -11    1    3    3    0    0 -0.21207576875E+02 -0.32216311220E+02 -0.21175885481E+02  0.44000797171E+02  0.51100000000E-03 0.  1.
         12    1    3    3    0    0  0.76623081874E+00 -0.71901471000E+00  0.15181377976E+01  0.18463028444E+01  0.00000000000E+00 0. -1.
</event>
<event>
 7    1  0.7457761E-012  0.5930194E+02  0.7816164E-02  0.1266605E+00
        -11   -1    0    0    0    0  0.00000000000E+00  0.00000000000E+00  0.45593999997E+02  0.45594000000E+02  0.51100000000E-03 0.  1.
         11   -1    0    0    0    0 -0.00000000000E+00 -0.00000000000E+00 -0.45593999997E+02  0.45594000000E+02  0.51100000000E-03 0. -1.
    9900012    2    1    2    0    0  0.20015303346E+02  0.21935995074E+02  0.11615538479E+02  0.59301937495E+02  0.49999988086E+02 0.  0.
         12    1    1    2    0    0 -0.20015303346E+02 -0.21935995074E+02 -0.11615538479E+02  0.31886062505E+02  0.00000000000E+00 0. -1.
         11    1    3    3    0    0  0.14541444138E+02  0.80975763585E+01  0.25209627946E+02  0.30208437264E+02  0.51100000000E-03 0. -1.
        -11    1    3    3    0    0  0.13353757855E+02  0.10604318439E+02 -0.75475238613E+01  0.18647775608E+02  0.51100000000E-03 0.  1.
         12    1    3    3    0    0 -0.78798986468E+01  0.32341002759E+01 -0.60465656059E+01  0.10445724623E+02  0.00000000000E+00 0. -1.
</event>
<event>
 7    1  0.7457761E-012  0.5930197E+02  0.7816164E-02  0.1266605E+00
        -11   -1    0    0    0    0  0.00000000000E+00  0.00000000000E+00  0.45593999997E+02  0.45594000000E+02  0.51100000000E-03 0.  1.
         11   -1    0    0    0    0 -0.00000000000E+00 -0.00000000000E+00 -0.45593999997E+02  0.45594000000E+02  0.51100000000E-03 0. -1.
    9900012    2    1    2    0    0 -0.86067442657E+01  0.18429106732E+02  0.24556275945E+02  0.59301973122E+02  0.50000053061E+02 0.  0.
         12    1    1    2    0    0  0.86067442657E+01 -0.18429106732E+02 -0.24556275945E+02  0.31886026878E+02  0.00000000000E+00 0. -1.
         11    1    3    3    0    0 -0.36688973697E+01  0.15217574084E+02  0.11013395290E+01  0.15692301231E+02  0.51100000000E-03 0. -1.
        -11    1    3    3    0    0 -0.35198324507E+01 -0.14404075554E+02  0.76259656719E+00  0.14847496989E+02  0.51100000000E-03 0.  1.
        -12    1    3    3    0    0 -0.14180144454E+01  0.17615608202E+02  0.22692339849E+02  0.28762174902E+02  0.00000000000E+00 0.  1.
</event>
<event>
 7    1  0.7457761E-012  0.5930195E+02  0.7816164E-02  0.1266605E+00
        -11   -1    0    0    0    0  0.00000000000E+00  0.00000000000E+00  0.45593999997E+02  0.45594000000E+02  0.51100000000E-03 0. -1.
         11   -1    0    0    0    0 -0.00000000000E+00 -0.00000000000E+00 -0.45593999997E+02  0.45594000000E+02  0.51100000000E-03 0.  1.
    9900012    2    1    2    0    0 -0.58094859398E+01 -0.14459259200E+01 -0.31318996628E+02  0.59301946961E+02  0.50000005349E+02 0.  0.
         12    1    1    2    0    0  0.58094859398E+01  0.14459259200E+01  0.31318996628E+02  0.31886053039E+02  0.00000000000E+00 0. -1.
         11    1    3    3    0    0 -0.11866434691E+02  0.18690258024E+02 -0.41753847112E+01  0.22529355407E+02  0.51100000000E-03 0. -1.
        -11    1    3    3    0    0  0.63367157884E+01 -0.22126827449E+01 -0.93994548809E+01  0.11549878105E+02  0.51100000000E-03 0.  1.
         12    1    3    3    0    0 -0.27976703701E+00 -0.17923501200E+02 -0.17744157036E+02  0.25222713449E+02  0.00000000000E+00 0. -1.
</event>
<event>
 7    1  0.7457761E-012  0.5930195E+02  0.7816164E-02  0.1266605E+00
        -11   -1    0    0    0    0  0.00000000000E+00  0.00000000000E+00  0.45593999997E+02  0.45594000000E+02  0.51100000000E-03 0. -1.
         11   -1    0    0    0    0 -0.00000000000E+00 -0.00000000000E+00 -0.45593999997E+02  0.45594000000E+02  0.51100000000E-03 0.  1.
    9900012    2    1    2    0    0 -0.25658233951E+02 -0.98407173485E+01 -0.16172061956E+02  0.59301948577E+02  0.50000008297E+02 0.  0.
         12    1    1    2    0    0  0.25658233951E+02  0.98407173485E+01  0.16172061956E+02  0.31886051423E+02  0.00000000000E+00 0. -1.
         11    1    3    3    0    0 -0.33193736987E+01  0.87901296752E+00  0.16600952679E+01  0.38140296418E+01  0.51100000000E-03 0. -1.
        -11    1    3    3    0    0 -0.10857402869E+02 -0.28815928096E+02 -0.74878037925E+01  0.31690820674E+02  0.51100000000E-03 0.  1.
        -12    1    3    3    0    0 -0.11481457383E+02  0.18096197780E+02 -0.10344353432E+02  0.23797098261E+02  0.00000000000E+00 0.  1.
</event>
<event>
 7    1  0.7457761E-012  0.5930194E+02  0.7816164E-02  0.1266605E+00
        -11   -1    0    0    0    0  0.00000000000E+00  0.00000000000E+00  0.45593999997E+02  0.45594000000E+02  0.51100000000E-03 0.  1.
         11   -1    0    0    0    0 -0.00000000000E+00 -0.00000000000E+00 -0.45593999997E+02  0.45594000000E+02  0.51100000000E-03 0. -1.
    9900012    2    1    2    0    0 -0.92867895370E+01 -0.13748706367E+02  0.27229571208E+02  0.59301938235E+02  0.49999989436E+02 0.  0.
         12    1    1    2    0    0  0.92867895370E+01  0.13748706367E+02 -0.27229571208E+02  0.31886061765E+02  0.00000000000E+00 0. -1.
         11    1    3    3    0    0  0.13914730518E+02  0.86063165355E+00  0.25807402477E+02  0.29332276337E+02  0.51100000000E-03 0. -1.
        -11    1    3    3    0    0 -0.15252734421E+02 -0.51540437391E+01  0.54175079256E+01  0.16987038193E+02  0.51100000000E-03 0.  1.
         12    1    3    3    0    0 -0.79487856338E+01 -0.94552942812E+01 -0.39953391944E+01  0.12982623705E+02  0.00000000000E+00 0. -1.
</event>
<event>
 7    1  0.7457761E-012  0.5930196E+02  0.7816164E-02  0.1266605E+00
        -11   -1    0    0    0    0  0.00000000000E+00  0.00000000000E+00  0.45593999997E+02  0.45594000000E+02  0.51100000000E-03 0.  1.
         11   -1    0    0    0    0 -0.00000000000E+00 -0.00000000000E+00 -0.45593999997E+02  0.45594000000E+02  0.51100000000E-03 0. -1.
    9900012    2    1    2    0    0 -0.68727101807E+01  0.17188938075E+02  0.25962010377E+02  0.59301957282E+02  0.50000024173E+02 0.  0.
         12    1    1    2    0    0  0.68727101807E+01 -0.17188938075E+02 -0.25962010377E+02  0.31886042718E+02  0.00000000000E+00 0. -1.
         11    1    3    3    0    0  0.42858757111E+01  0.50663816156E+01  0.22061925411E+02  0.23038348604E+02  0.51100000000E-03 0. -1.
        -11    1    3    3    0    0 -0.20585530468E+02  0.27563342252E+01  0.81509678211E+01  0.22311425766E+02  0.51100000000E-03 0.  1.
        -12    1    3    3    0    0  0.94269445766E+01  0.93662222340E+01 -0.42508828546E+01  0.13952182913E+02  0.00000000000E+00 0.  1.
</event>
<event>
 7    1  0.7457761E-012  0.5930194E+02  0.7816164E-02  0.1266605E+00
        -11   -1    0    0    0    0  0.00000000000E+00  0.00000000000E+00  0.45593999997E+02  0.45594000000E+02  0.51100000000E-03 0. -1.
         11   -1    0    0    0    0 -0.00000000000E+00 -0.00000000000E+00 -0.45593999997E+02  0.45594000000E+02  0.51100000000E-03 0.  1.
    9900012    2    1    2    0    0 -0.45467242454E+01  0.23241445515E+02 -0.21351430328E+02  0.59301936147E+02  0.49999985628E+02 0.  0.
         12    1    1    2    0    0  0.45467242454E+01 -0.23241445515E+02  0.21351430328E+02  0.31886063853E+02  0.00000000000E+00 0. -1.
         11    1    3    3    0    0  0.20713797928E+01  0.61589792528E+01  0.13978401706E+02  0.15414906883E+02  0.51100000000E-03 0. -1.
        -11    1    3    3    0    0  0.81808226746E+00  0.10671110326E+02 -0.46401914559E+01  0.11665043129E+02  0.51100000000E-03 0.  1.
         12    1    3    3    0    0 -0.74361863056E+01  0.64113559357E+01 -0.30689640578E+02  0.32221986136E+02  0.00000000000E+00 0. -1.
</event>
<event>
 7    1  0.7457761E-012  0.5930194E+02  0.7816164E-02  0.1266605E+00
        -11   -1    0    0    0    0  0.00000000000E+00  0.00000000000E+00  0.45593999997E+02  0.45594000000E+02  0.51100000000E-03 0.  1.
         11   -1    0    0    0    0 -0.00000000000E+00 -0.00000000000E+00 -0.45593999997E+02  0.45594000000E+02  0.51100000000E-03 0. -1.
    9900012    2    1    2    0    0 -0.14719938773E+02 -0.17540695468E+02  0.22189375827E+02  0.59301937299E+02  0.49999987728E+02 0.  0.
         12    1    1    2    0    0  0.14719938773E+02  0.17540695468E+02 -0.22189375827E+02  0.31886062701E+02  0.00000000000E+00 0. -1.
         11    1    3    3    0    0 -0.33910521199E+01 -0.10510468836E+02  0.42520523171E+01  0.11834235877E+02  0.51100000000E-03 0.  1.
        -11    1    3    3    0    0  0.62750738490E+01  0.72500670048E+01 -0.83797551207E+01  0.12734218450E+02  0.51100000000E-03 0. -1.
        -12    1    3    3    0    0 -0.17603960502E+02 -0.14280293637E+02  0.26317078630E+02  0.34733482972E+02  0.00000000000E+00 0.  1.
</event>
<event>
 7    1  0.7457761E-012  0.5930192E+02  0.7816164E-02  0.1266605E+00
        -11   -1    0    0    0    0  0.00000000000E+00  0.00000000000E+00  0.45593999997E+02  0.45594000000E+02  0.51100000000E-03 0.  1.
         11   -1    0    0    0    0 -0.00000000000E+00 -0.00000000000E+00 -0.45593999997E+02  0.45594000000E+02  0.51100000000E-03 0. -1.
    9900012    2    1    2    0    0 -0.91545126271E+01 -0.27138889374E+02  0.14014188422E+02  0.59301923179E+02  0.49999961977E+02 0.  0.
         12    1    1    2    0    0  0.91545126271E+01  0.27138889374E+02 -0.14014188422E+02  0.31886076821E+02  0.00000000000E+00 0. -1.
         11    1    3    3    0    0 -0.22310289544E+02 -0.27202412267E+02  0.53743446258E+01  0.35589378093E+02  0.51100000000E-03 0. -1.
        -11    1    3    3    0    0  0.37101804790E+01  0.57099908812E+01  0.10536754889E+02  0.12545622300E+02  0.51100000000E-03 0.  1.
         12    1    3    3    0    0  0.94455964377E+01 -0.56464679887E+01 -0.18969110927E+01  0.11166922786E+02  0.00000000000E+00 0. -1.
</event>
<event>
 7    1  0.7457761E-012  0.5930195E+02  0.7816164E-02  0.1266605E+00
        -11   -1    0    0    0    0  0.00000000000E+00  0.00000000000E+00  0.45593999997E+02  0.45594000000E+02  0.51100000000E-03 0.  1.
         11   -1    0    0    0    0 -0.00000000000E+00 -0.00000000000E+00 -0.45593999997E+02  0.45594000000E+02  0.51100000000E-03 0. -1.
    9900012    2    1    2    0    0 -0.27165236861E+02  0.16445367870E+02 -0.28844848185E+01  0.59301945513E+02  0.50000002708E+02 0.  0.
         12    1    1    2    0    0  0.27165236861E+02 -0.16445367870E+02  0.28844848185E+01  0.31886054487E+02  0.00000000000E+00 0. -1.
         11    1    3    3    0    0  0.94838046569E+01  0.14375021604E+02 -0.16522423685E+01  0.17300685015E+02  0.51100000000E-03 0. -1.
        -11    1    3    3    0    0 -0.33980486646E+02 -0.15081332800E+01 -0.69809369045E+01  0.34722923538E+02  0.51100000000E-03 0.  1.
        -12    1    3    3    0    0 -0.26685548714E+01  0.35784795461E+01  0.57486944545E+01  0.72783369594E+01  0.00000000000E+00 0.  1.
</event>
<event>
 7    1  0.7457761E-012  0.5930194E+02  0.7816164E-02  0.1266605E+00
        -11   -1    0    0    0    0  0.00000000000E+00  0.00000000000E+00  0.45593999997E+02  0.45594000000E+02  0.51100000000E-03 0.  1.
         11   -1    0    0    0    0 -0.00000000000E+00 -0.00000000000E+00 -0.45593999997E+02  0.45594000000E+02  0.51100000000E-03 0. -1.
    9900012    2    1    2    0    0 -0.66749884800E+01  0.21006635881E+02  0.23040970708E+02  0.59301944217E+02  0.50000000345E+02 0.  0.
         12    1    1    2    0    0  0.66749884800E+01 -0.21006635881E+02 -0.23040970708E+02  0.31886055783E+02  0.00000000000E+00 0. -1.
         11    1    3    3    0    0 -0.17890024459E+02  0.30533710711E+02  0.23259033572E+02  0.42347881976E+02  0.51100000000E-03 0.  1.
        -11    1    3    3    0    0  0.10685363522E+02 -0.82532459251E+01  0.26611993796E+01  0.13761360554E+02  0.51100000000E-03 0. -1.
        -12    1    3    3    0    0  0.52967245642E+00 -0.12738289050E+01 -0.28792622437E+01  0.31927016864E+01  0.00000000000E+00 0.  1.
</event>
<event>
 7    1  0.7457761E-012  0.5930193E+02  0.7816164E-02  0.1266605E+00
        -11   -1    0    0    0    0  0.00000000000E+00  0.00000000000E+00  0.45593999997E+02  0.45594000000E+02  0.51100000000E-03 0. -1.
         11   -1    0    0    0    0 -0.00000000000E+00 -0.00000000000E+00 -0.45593999997E+02  0.45594000000E+02  0.51100000000E-03 0.  1.
    9900012    2    1    2    0    0 -0.18070677720E+02 -0.29503934494E+01 -0.26104932255E+02  0.59301926193E+02  0.49999967474E+02 0.  0.
         12    1    1    2    0    0  0.18070677720E+02  0.29503934494E+01  0.26104932255E+02  0.31886073807E+02  0.00000000000E+00 0. -1.
         11    1    3    3    0    0 -0.29970658786E+02 -0.25910452045E+01  0.44664520218E+00  0.30085767325E+02  0.51100000000E-03 0. -1.
        -11    1    3    3    0    0  0.10124930457E+02 -0.12384702652E+01 -0.22631893189E+02  0.24824395560E+02  0.51100000000E-03 0.  1.
         12    1    3    3    0    0  0.17750506094E+01  0.87912202028E+00 -0.39196842683E+01  0.43917633082E+01  0.00000000000E+00 0. -1.
</event>
<event>
 7    1  0.7457761E-012  0.5930213E+02  0.7816164E-02  0.1266604E+00
        -11   -1    0    0    0    0  0.00000000000E+00  0.00000000000E+00  0.45593999997E+02  0.45594000000E+02  0.51100000000E-03 0.  1.
         11   -1    0    0    0    0 -0.00000000000E+00 -0.00000000000E+00 -0.45593999997E+02  0.45594000000E+02  0.51100000000E-03 0. -1.
    9900012    2    1    2    0    0  0.27038476837E+02 -0.13043323852E+02  0.10747140916E+02  0.59302132212E+02  0.50000343201E+02 0.  0.
         12    1    1    2    0    0 -0.27038476837E+02  0.13043323852E+02 -0.10747140916E+02  0.31885867788E+02  0.00000000000E+00 0. -1.
         11    1    3    3    0    0  0.38342294264E+01 -0.94572373198E+01 -0.17910527385E+02  0.20613773175E+02  0.51100000000E-03 0. -1.
        -11    1    3    3    0    0  0.85953522488E+01 -0.64248143614E+01  0.88305191362E+01  0.13897351846E+02  0.51100000000E-03 0.  1.
         12    1    3    3    0    0  0.14608895162E+02  0.28387278293E+01  0.19827149165E+02  0.24791007191E+02  0.00000000000E+00 0. -1.
</event>
<event>
 7    1  0.7457761E-012  0.5930195E+02  0.7816164E-02  0.1266605E+00
        -11   -1    0    0    0    0  0.00000000000E+00  0.00000000000E+00  0.45593999997E+02  0.45594000000E+02  0.51100000000E-03 0.  1.
         11   -1    0    0    0    0 -0.00000000000E+00 -0.00000000000E+00 -0.45593999997E+02  0.45594000000E+02  0.51100000000E-03 0. -1.
    9900012    2    1    2    0    0  0.93566729242E-01 -0.15245934249E+02  0.28004878185E+02  0.59301945556E+02  0.50000002787E+02 0.  0.
         12    1    1    2    0    0 -0.93566729242E-01  0.15245934249E+02 -0.28004878185E+02  0.31886054444E+02  0.00000000000E+00 0. -1.
         11    1    3    3    0    0 -0.15586463899E+02  0.19922182620E+01  0.26068914282E+01  0.15928046762E+02  0.51100000000E-03 0. -1.
        -11    1    3    3    0    0  0.37907623637E+01 -0.21474826080E+02  0.11698788178E+02  0.24746710479E+02  0.51100000000E-03 0.  1.
         12    1    3    3    0    0  0.11889268265E+02  0.42366735686E+01  0.13699198579E+02  0.18627188314E+02  0.00000000000E+00 0. -1.
</event>
<event>
 7    1  0.7457761E-012  0.5930194E+02  0.7816164E-02  0.1266605E+00
        -11   -1    0    0    0    0  0.00000000000E+00  0.00000000000E+00  0.45593999997E+02  0.45594000000E+02  0.51100000000E-03 0.  1.
         11   -1    0    0    0    0 -0.00000000000E+00 -0.00000000000E+00 -0.45593999997E+02  0.45594000000E+02  0.51100000000E-03 0. -1.
    9900012    2    1    2    0    0  0.13824043396E+02 -0.22246373538E+02  0.18185586131E+02  0.59301939498E+02  0.49999991739E+02 0.  0.
         12    1    1    2    0    0 -0.13824043396E+02  0.22246373538E+02 -0.18185586131E+02  0.31886060502E+02  0.00000000000E+00 0. -1.
         11    1    3    3    0    0 -0.38673368011E+01 -0.29724024387E+02  0.15344391893E+02  0.33673792221E+02  0.51100000000E-03 0. -1.
        -11    1    3    3    0    0  0.14519158766E+02 -0.27272191959E+01  0.12844958509E+01  0.14828810662E+02  0.51100000000E-03 0.  1.
         12    1    3    3    0    0  0.31722214313E+01  0.10204870046E+02  0.15566983878E+01  0.10799336615E+02  0.00000000000E+00 0. -1.
</event>
<event>
 7    1  0.7457761E-012  0.5930191E+02  0.7816164E-02  0.1266605E+00
        -11   -1    0    0    0    0  0.00000000000E+00  0.00000000000E+00  0.45593999997E+02  0.45594000000E+02  0.51100000000E-03 0.  1.
         11   -1    0    0    0    0 -0.00000000000E+00 -0.00000000000E+00 -0.45593999997E+02  0.45594000000E+02  0.51100000000E-03 0. -1.
    9900012    2    1    2    0    0 -0.66112573749E+01  0.30635242664E+02  0.58733004721E+01  0.59301914075E+02  0.49999945374E+02 0.  0.
         12    1    1    2    0    0  0.66112573749E+01 -0.30635242664E+02 -0.58733004721E+01  0.31886085925E+02  0.00000000000E+00 0. -1.
         11    1    3    3    0    0 -0.20442364899E+01 -0.59713788237E+01 -0.15033878013E+02  0.16305022424E+02  0.51100000000E-03 0. -1.
        -11    1    3    3    0    0 -0.59609329208E+01  0.30505676751E+02  0.19104023227E+02  0.36484143666E+02  0.51100000000E-03 0.  1.
         12    1    3    3    0    0  0.13939120358E+01  0.61009447369E+01  0.18031552578E+01  0.65127479860E+01  0.00000000000E+00 0. -1.
</event>
<event>
 7    1  0.7457761E-012  0.5930195E+02  0.7816164E-02  0.1266605E+00
        -11   -1    0    0    0    0  0.00000000000E+00  0.00000000000E+00  0.45593999997E+02  0.45594000000E+02  0.51100000000E-03 0.  1.
         11   -1    0    0    0    0 -0.00000000000E+00 -0.00000000000E+00 -0.45593999997E+02  0.45594000000E+02  0.51100000000E-03 0. -1.
    9900012    2    1    2    0    0 -0.31399282640E+02 -0.54794886035E+01 -0.88334981160E+00  0.59301952071E+02  0.50000014669E+02 0.  0.
         12    1    1    2    0    0  0.31399282640E+02  0.54794886035E+01  0.88334981160E+00  0.31886047929E+02  0.00000000000E+00 0. -1.
         11    1    3    3    0    0 -0.64199772883E+01  0.90873613789E+01 -0.91686691866E+01  0.14417376326E+02  0.51100000000E-03 0. -1.
        -11    1    3    3    0    0 -0.48484586192E-01 -0.18768771764E+02  0.47079353742E+01  0.19350291988E+02  0.51100000000E-03 0.  1.
        -12    1    3    3    0    0 -0.24930820765E+02  0.42019217818E+01  0.35773840008E+01  0.25534283757E+02  0.00000000000E+00 0.  1.
</event>
<event>
 7    1  0.7457761E-012  0.5930183E+02  0.7816164E-02  0.1266605E+00
        -11   -1    0    0    0    0  0.00000000000E+00  0.00000000000E+00  0.45593999997E+02  0.45594000000E+02  0.51100000000E-03 0. -1.
         11   -1    0    0    0    0 -0.00000000000E+00 -0.00000000000E+00 -0.45593999997E+02  0.45594000000E+02  0.51100000000E-03 0.  1.
    9900012    2    1    2    0    0 -0.85256585523E+01 -0.22011625176E+02 -0.21436641570E+02  0.59301825905E+02  0.49999784571E+02 0.  0.
         12    1    1    2    0    0  0.85256585523E+01  0.22011625176E+02  0.21436641570E+02  0.31886174095E+02  0.00000000000E+00 0. -1.
         11    1    3    3    0    0 -0.10296853333E+02 -0.39503978297E+01  0.73851544501E+01  0.13272955138E+02  0.51100000000E-03 0. -1.
        -11    1    3    3    0    0  0.47414131395E+01 -0.20547782453E+02 -0.33728018146E+02  0.39777777347E+02  0.51100000000E-03 0.  1.
        -12    1    3    3    0    0 -0.29702183587E+01  0.24865551064E+01  0.49062221265E+01  0.62510934204E+01  0.00000000000E+00 0.  1.
</event>
<event>
 7    1  0.7457761E-012  0.5930203E+02  0.7816164E-02  0.1266604E+00
        -11   -1    0    0    0    0  0.00000000000E+00  0.00000000000E+00  0.45593999997E+02  0.45594000000E+02  0.51100000000E-03 0.  1.
         11   -1    0    0    0    0 -0.00000000000E+00 -0.00000000000E+00 -0.45593999997E+02  0.45594000000E+02  0.51100000000E-03 0. -1.
    9900012    2    1    2    0    0  0.62507257033E+01 -0.28857832358E+02 -0.12036156377E+02  0.59302029409E+02  0.50000155714E+02 0.  0.
         12    1    1    2    0    0 -0.62507257033E+01  0.28857832358E+02  0.12036156377E+02  0.31885970591E+02  0.00000000000E+00 0. -1.
         11    1    3    3    0    0 -0.20868391753E+02 -0.57967335587E+01 -0.13042064948E+01  0.21697761386E+02  0.51100000000E-03 0. -1.
        -11    1    3    3    0    0  0.84082524504E+01 -0.10713550858E+02 -0.43088603148E+01  0.14284437642E+02  0.51100000000E-03 0.  1.
         12    1    3    3    0    0  0.18710865006E+02 -0.12347547941E+02 -0.64230895674E+01  0.23319830381E+02  0.00000000000E+00 0. -1.
</event>
<event>
 7    1  0.7457761E-012  0.5930175E+02  0.7816164E-02  0.1266605E+00
        -11   -1    0    0    0    0  0.00000000000E+00  0.00000000000E+00  0.45593999997E+02  0.45594000000E+02  0.51100000000E-03 0.  1.
         11   -1    0    0    0    0 -0.00000000000E+00 -0.00000000000E+00 -0.45593999997E+02  0.45594000000E+02  0.51100000000E-03 0. -1.
    9900012    2    1    2    0    0  0.31520909125E+02  0.39992463236E+01  0.26779082271E+01  0.59301750993E+02  0.49999647950E+02 0.  0.
         12    1    1    2    0    0 -0.31520909125E+02 -0.39992463236E+01 -0.26779082271E+01  0.31886249007E+02  0.00000000000E+00 0. -1.
         11    1    3    3    0    0  0.42153640552E+01 -0.90209610363E+01 -0.48664761668E+01  0.11082852642E+02  0.51100000000E-03 0. -1.
        -11    1    3    3    0    0  0.30791014802E+02  0.11470254881E+02  0.17734275530E+02  0.37338423486E+02  0.51100000000E-03 0.  1.
         12    1    3    3    0    0 -0.34854697318E+01  0.15499524790E+01 -0.10189891136E+02  0.10880474866E+02  0.00000000000E+00 0. -1.
</event>
<event>
 7    1  0.7457761E-012  0.5930194E+02  0.7816164E-02  0.1266605E+00
        -11   -1    0    0    0    0  0.00000000000E+00  0.00000000000E+00  0.45593999997E+02  0.45594000000E+02  0.51100000000E-03 0. -1.
         11   -1    0    0    0    0 -0.00000000000E+00 -0.00000000000E+00 -0.45593999997E+02  0.45594000000E+02  0.51100000000E-03 0.  1.
    9900012    2    1    2    0    0  0.27822379960E+02  0.11796995088E+02 -0.10171857821E+02  0.59301943310E+02  0.49999998691E+02 0.  0.
         12    1    1    2    0    0 -0.27822379960E+02 -0.11796995088E+02  0.10171857821E+02  0.31886056690E+02  0.00000000000E+00 0. -1.
         11    1    3    3    0    0 -0.13097956181E+02  0.10949521846E+01 -0.45032270855E+01  0.13893683127E+02  0.51100000000E-03 0. -1.
        -11    1    3    3    0    0  0.29408704249E+02  0.11771592881E+02 -0.97565172745E+01  0.33145616816E+02  0.51100000000E-03 0.  1.
         12    1    3    3    0    0  0.11511631892E+02 -0.10695499779E+01  0.40878865392E+01  0.12262643366E+02  0.00000000000E+00 0. -1.
</event>
<event>
 7    1  0.7457761E-012  0.5930193E+02  0.7816164E-02  0.1266605E+00
        -11   -1    0    0    0    0  0.00000000000E+00  0.00000000000E+00  0.45593999997E+02  0.45594000000E+02  0.51100000000E-03 0.  1.
         11   -1    0    0    0    0 -0.00000000000E+00 -0.00000000000E+00 -0.45593999997E+02  0.45594000000E+02  0.51100000000E-03 0. -1.
    9900012    2    1    2    0    0 -0.25611013064E+02 -0.13404445769E+02  0.13458031846E+02  0.59301925019E+02  0.49999965332E+02 0.  0.
         12    1    1    2    0    0  0.25611013064E+02  0.13404445769E+02 -0.13458031846E+02  0.31886074981E+02  0.00000000000E+00 0. -1.
         11    1    3    3    0    0 -0.14555723639E+02 -0.75512890382E+01 -0.11008279487E+01  0.16434806942E+02  0.51100000000E-03 0. -1.
        -11    1    3    3    0    0  0.23171325660E+01  0.13947695116E+01 -0.11978365700E+02  0.12279891303E+02  0.51100000000E-03 0.  1.
        -12    1    3    3    0    0 -0.13372421991E+02 -0.72479262428E+01  0.26537225494E+02  0.30587226773E+02  0.00000000000E+00 0.  1.
</event>
<event>
 7    1  0.7457761E-012  0.5930186E+02  0.7816164E-02  0.1266605E+00
        -11   -1    0    0    0    0  0.00000000000E+00  0.00000000000E+00  0.45593999997E+02  0.45594000000E+02  0.51100000000E-03 0.  1.
         11   -1    0    0    0    0 -0.00000000000E+00 -0.00000000000E+00 -0.45593999997E+02  0.45594000000E+02  0.51100000000E-03 0. -1.
    9900012    2    1    2    0    0 -0.78638940527E+01  0.30901059287E+02  0.98046495316E-01  0.59301860255E+02  0.49999847218E+02 0.  0.
         12    1    1    2    0    0  0.78638940527E+01 -0.30901059287E+02 -0.98046495316E-01  0.31886139745E+02  0.00000000000E+00 0. -1.
         11    1    3    3    0    0  0.78265988204E+01 -0.13449652402E+01 -0.15529620164E+02  0.17442295815E+02  0.51100000000E-03 0. -1.
        -11    1    3    3    0    0  0.34058139433E+00  0.14470931040E+02  0.29474354591E+01  0.14771974035E+02  0.51100000000E-03 0.  1.
         12    1    3    3    0    0 -0.16031074267E+02  0.17775093488E+02  0.12680231200E+02  0.27087590405E+02  0.00000000000E+00 0. -1.
</event>
<event>
 7    1  0.7457761E-012  0.5930228E+02  0.7816164E-02  0.1266604E+00
        -11   -1    0    0    0    0  0.00000000000E+00  0.00000000000E+00  0.45593999997E+02  0.45594000000E+02  0.51100000000E-03 0.  1.
         11   -1    0    0    0    0 -0.00000000000E+00 -0.00000000000E+00 -0.45593999997E+02  0.45594000000E+02  0.51100000000E-03 0. -1.
    9900012    2    1    2    0    0 -0.10366740357E+02 -0.28288838853E+02  0.10438942912E+02  0.59302278456E+02  0.50000609913E+02 0.  0.
         12    1    1    2    0    0  0.10366740357E+02  0.28288838853E+02 -0.10438942912E+02  0.31885721544E+02  0.00000000000E+00 0. -1.
         11    1    3    3    0    0 -0.74296317794E+00  0.20548034381E+01 -0.13174629211E+01  0.25514545386E+01  0.51100000000E-03 0. -1.
        -11    1    3    3    0    0 -0.82093469501E+01 -0.41512283651E+02  0.28792806190E+01  0.42414069934E+02  0.51100000000E-03 0.  1.
        -12    1    3    3    0    0 -0.14144302291E+01  0.11168641360E+02  0.88771252139E+01  0.14336753983E+02  0.00000000000E+00 0.  1.
</event>
<event>
 7    1  0.7457761E-012  0.5930198E+02  0.7816164E-02  0.1266605E+00
        -11   -1    0    0    0    0  0.00000000000E+00  0.00000000000E+00  0.45593999997E+02  0.45594000000E+02  0.51100000000E-03 0.  1.
         11   -1    0    0    0    0 -0.00000000000E+00 -0.00000000000E+00 -0.45593999997E+02  0.45594000000E+02  0.51100000000E-03 0. -1.
    9900012    2    1    2    0    0  0.29988646664E+02  0.78117574354E+01  0.75083903899E+01  0.59301977839E+02  0.50000061665E+02 0.  0.
         12    1    1    2    0    0 -0.29988646664E+02 -0.78117574354E+01 -0.75083903899E+01  0.31886022161E+02  0.00000000000E+00 0. -1.
         11    1    3    3    0    0  0.45198821749E+01  0.61657189457E+01 -0.12771044414E+02  0.14884387817E+02  0.51100000000E-03 0. -1.
        -11    1    3    3    0    0  0.12277994410E+02 -0.14200410352E+02  0.11448148369E+02  0.21987744364E+02  0.51100000000E-03 0.  1.
        -12    1    3    3    0    0  0.13190770080E+02  0.15846448842E+02  0.88312864350E+01  0.22429845659E+02  0.00000000000E+00 0.  1.
</event>
<event>
 7    1  0.7457761E-012  0.5930196E+02  0.7816164E-02  0.1266605E+00
        -11   -1    0    0    0    0  0.00000000000E+00  0.00000000000E+00  0.45593999997E+02  0.45594000000E+02  0.51100000000E-03 0.  1.
         11   -1    0    0    0    0 -0.00000000000E+00 -0.00000000000E+00 -0.45593999997E+02  0.45594000000E+02  0.51100000000E-03 0. -1.
    9900012    2    1    2    0    0  0.67665909546E+01  0.28843365157E+02  0.11789544220E+02  0.59301955723E+02  0.50000021330E+02 0.  0.
         12    1    1    2    0    0 -0.67665909546E+01 -0.28843365157E+02 -0.11789544220E+02  0.31886044277E+02  0.00000000000E+00 0. -1.
         11    1    3    3    0    0  0.96682021953E+01  0.26819312357E+02 -0.98857519024E+01  0.30174123681E+02  0.51100000000E-03 0. -1.
        -11    1    3    3    0    0  0.76566926942E+01 -0.23592823516E+01  0.94775894210E+01  0.12410312555E+02  0.51100000000E-03 0.  1.
        -12    1    3    3    0    0 -0.10558303935E+02  0.43833351514E+01  0.12197706701E+02  0.16717519487E+02  0.00000000000E+00 0.  1.
</event>
<event>
 7    1  0.7457761E-012  0.5930190E+02  0.7816164E-02  0.1266605E+00
        -11   -1    0    0    0    0  0.00000000000E+00  0.00000000000E+00  0.45593999997E+02  0.45594000000E+02  0.51100000000E-03 0.  1.
         11   -1    0    0    0    0 -0.00000000000E+00 -0.00000000000E+00 -0.45593999997E+02  0.45594000000E+02  0.51100000000E-03 0. -1.
    9900012    2    1    2    0    0 -0.21105903861E+02  0.23900107587E+02  0.22080772598E+00  0.59301904653E+02  0.49999928189E+02 0.  0.
         12    1    1    2    0    0  0.21105903861E+02 -0.23900107587E+02 -0.22080772598E+00  0.31886095347E+02  0.00000000000E+00 0. -1.
         11    1    3    3    0    0 -0.29413636674E+02  0.21365888937E+02  0.57601447032E+01  0.36808185227E+02  0.51100000000E-03 0. -1.
        -11    1    3    3    0    0 -0.19896060384E+01 -0.67470804947E+01 -0.49817122104E+01  0.86196916533E+01  0.51100000000E-03 0.  1.
         12    1    3    3    0    0  0.10297338852E+02  0.92812991448E+01 -0.55762476677E+00  0.13874027772E+02  0.00000000000E+00 0. -1.
</event>
<event>
 7    1  0.7457761E-012  0.5930194E+02  0.7816164E-02  0.1266605E+00
        -11   -1    0    0    0    0  0.00000000000E+00  0.00000000000E+00  0.45593999997E+02  0.45594000000E+02  0.51100000000E-03 0. -1.
         11   -1    0    0    0    0 -0.00000000000E+00 -0.00000000000E+00 -0.45593999997E+02  0.45594000000E+02  0.51100000000E-03 0.  1.
    9900012    2    1    2    0    0  0.11919513525E+02 -0.16330487540E+02 -0.24656862861E+02  0.59301944865E+02  0.50000001527E+02 0.  0.
         12    1    1    2    0    0 -0.11919513525E+02  0.16330487540E+02  0.24656862861E+02  0.31886055135E+02  0.00000000000E+00 0. -1.
         11    1    3    3    0    0 -0.11256371603E+02 -0.64353948772E+01 -0.20684504708E+02  0.24412475175E+02  0.51100000000E-03 0. -1.
        -11    1    3    3    0    0  0.16865102233E+02 -0.14346749104E+02  0.53546672058E+01  0.22780108524E+02  0.51100000000E-03 0.  1.
         12    1    3    3    0    0  0.63107828948E+01  0.44516564419E+01 -0.93270253581E+01  0.12109361166E+02  0.00000000000E+00 0. -1.
</event>
<event>
 7    1  0.7457761E-012  0.5930193E+02  0.7816164E-02  0.1266605E+00
        -11   -1    0    0    0    0  0.00000000000E+00  0.00000000000E+00  0.45593999997E+02  0.45594000000E+02  0.51100000000E-03 0. -1.
         11   -1    0    0    0    0 -0.00000000000E+00 -0.00000000000E+00 -0.45593999997E+02  0.45594000000E+02  0.51100000000E-03 0.  1.
    9900012    2    1    2    0    0  0.23266655814E+02  0.14138709591E+02 -0.16597617005E+02  0.59301932950E+02  0.49999979798E+02 0.  0.
         12    1    1    2    0    0 -0.23266655814E+02 -0.14138709591E+02  0.16597617005E+02  0.31886067050E+02  0.00000000000E+00 0. -1.
         11    1    3    3    0    0 -0.12647048955E+02  0.15624590648E+02 -0.94484182003E+01  0.22211444954E+02  0.51100000000E-03 0. -1.
        -11    1    3    3    0    0  0.18702778565E+02 -0.34882040136E+01 -0.46379472805E+01  0.19582442354E+02  0.51100000000E-03 0.  1.
         12    1    3    3    0    0  0.17210926204E+02  0.20023229571E+01 -0.25112515240E+01  0.17508045643E+02  0.00000000000E+00 0. -1.
</event>
<event>
 7    1  0.7457761E-012  0.5930195E+02  0.7816164E-02  0.1266605E+00
        -11   -1    0    0    0    0  0.00000000000E+00  0.00000000000E+00  0.45593999997E+02  0.45594000000E+02  0.51100000000E-03 0.  1.
         11   -1    0    0    0    0 -0.00000000000E+00 -0.00000000000E+00 -0.45593999997E+02  0.45594000000E+02  0.51100000000E-03 0. -1.
    9900012    2    1    2    0    0 -0.23604167830E+02  0.99075020617E+01  0.19010658736E+02  0.59301945343E+02  0.50000002398E+02 0.  0.
         12    1    1    2    0    0  0.23604167830E+02 -0.99075020617E+01 -0.19010658736E+02  0.31886054657E+02  0.00000000000E+00 0. -1.
         11    1    3    3    0    0 -0.32797645623E+02  0.78607811924E+00  0.57820663936E+01  0.33312696818E+02  0.51100000000E-03 0. -1.
        -11    1    3    3    0    0 -0.18041379303E+01  0.46862294587E+01  0.13208652394E+02  0.14130964530E+02  0.51100000000E-03 0.  1.
         12    1    3    3    0    0  0.10997615723E+02  0.44351944838E+01  0.19939947958E-01  0.11858283995E+02  0.00000000000E+00 0. -1.
</event>
<event>
 7    1  0.7457761E-012  0.5930196E+02  0.7816164E-02  0.1266605E+00
        -11   -1    0    0    0    0  0.00000000000E+00  0.00000000000E+00  0.45593999997E+02  0.45594000000E+02  0.51100000000E-03 0.  1.
         11   -1    0    0    0    0 -0.00000000000E+00 -0.00000000000E+00 -0.45593999997E+02  0.45594000000E+02  0.51100000000E-03 0. -1.
    9900012    2    1    2    0    0  0.19996136804E+02  0.15778176140E+02  0.19181330078E+02  0.59301956769E+02  0.50000023237E+02 0.  0.
         12    1    1    2    0    0 -0.19996136804E+02 -0.15778176140E+02 -0.19181330078E+02  0.31886043231E+02  0.00000000000E+00 0. -1.
         11    1    3    3    0    0  0.30380505043E+02  0.10040553341E+02  0.13839996250E+02  0.34861630692E+02  0.51100000000E-03 0. -1.
        -11    1    3    3    0    0 -0.97146742131E+01 -0.57028691562E+01 -0.10582343260E+01  0.11314480626E+02  0.51100000000E-03 0.  1.
         12    1    3    3    0    0 -0.66969402605E+00  0.11440491954E+02  0.63995681547E+01  0.13125845451E+02  0.00000000000E+00 0. -1.
</event>
<event>
 7    1  0.7457761E-012  0.5930213E+02  0.7816164E-02  0.1266604E+00
        -11   -1    0    0    0    0  0.00000000000E+00  0.00000000000E+00  0.45593999997E+02  0.45594000000E+02  0.51100000000E-03 0.  1.
         11   -1    0    0    0    0 -0.00000000000E+00 -0.00000000000E+00 -0.45593999997E+02  0.45594000000E+02  0.51100000000E-03 0. -1.
    9900012    2    1    2    0    0 -0.14781814888E+02 -0.21625020469E+02  0.18181447716E+02  0.59302131615E+02  0.50000342112E+02 0.  0.
         12    1    1    2    0    0  0.14781814888E+02  0.21625020469E+02 -0.18181447716E+02  0.31885868385E+02  0.00000000000E+00 0. -1.
         11    1    3    3    0    0 -0.15918201534E+02  0.74863067795E+01  0.16425126187E+02  0.24066962829E+02  0.51100000000E-03 0.  1.
        -11    1    3    3    0    0  0.63483086811E+01 -0.18165742096E+02  0.88592786343E+01  0.21184476089E+02  0.51100000000E-03 0. -1.
         12    1    3    3    0    0 -0.52119220343E+01 -0.10945585152E+02 -0.71029571048E+01  0.14050692696E+02  0.00000000000E+00 0. -1.
</event>
<event>
 7    1  0.7457761E-012  0.5930198E+02  0.7816164E-02  0.1266605E+00
        -11   -1    0    0    0    0  0.00000000000E+00  0.00000000000E+00  0.45593999997E+02  0.45594000000E+02  0.51100000000E-03 0. -1.
         11   -1    0    0    0    0 -0.00000000000E+00 -0.00000000000E+00 -0.45593999997E+02  0.45594000000E+02  0.51100000000E-03 0.  1.
    9900012    2    1    2    0    0 -0.31378706109E+02 -0.28406075112E+01  0.49016406417E+01  0.59301979096E+02  0.50000063956E+02 0.  0.
         12    1    1    2    0    0  0.31378706109E+02  0.28406075112E+01 -0.49016406417E+01  0.31886020904E+02  0.00000000000E+00 0. -1.
         11    1    3    3    0    0  0.56096493580E+01  0.81661753186E+01 -0.61235461272E+01  0.11646991143E+02  0.51100000000E-03 0. -1.
        -11    1    3    3    0    0 -0.34964510501E+02 -0.21831662507E+01  0.23415668447E+01  0.35110769644E+02  0.51100000000E-03 0.  1.
         12    1    3    3    0    0 -0.20238449663E+01 -0.88236165792E+01  0.86836199243E+01  0.12544218309E+02  0.00000000000E+00 0. -1.
</event>
<event>
 7    1  0.7457761E-012  0.5930195E+02  0.7816164E-02  0.1266605E+00
        -11   -1    0    0    0    0  0.00000000000E+00  0.00000000000E+00  0.45593999997E+02  0.45594000000E+02  0.51100000000E-03 0.  1.
         11   -1    0    0    0    0 -0.00000000000E+00 -0.00000000000E+00 -0.45593999997E+02  0.45594000000E+02  0.51100000000E-03 0. -1.
    9900012    2    1    2    0    0  0.58587343216E+01  0.23341010398E+02  0.20918715031E+02  0.59301950185E+02  0.50000011229E+02 0.  0.
         12    1    1    2    0    0 -0.58587343216E+01 -0.23341010398E+02 -0.20918715031E+02  0.31886049815E+02  0.00000000000E+00 0. -1.
         11    1    3    3    0    0 -0.12804425740E+02  0.21118276092E+02  0.21276911614E+02  0.32598188166E+02  0.51100000000E-03 0. -1.
        -11    1    3    3    0    0  0.15031389946E+02 -0.67484727603E+01  0.23743073617E+01  0.16646978826E+02  0.51100000000E-03 0.  1.
         12    1    3    3    0    0  0.36317701150E+01  0.89712070667E+01 -0.27325039442E+01  0.10056783194E+02  0.00000000000E+00 0. -1.
</event>
<event>
 7    1  0.7457761E-012  0.5930195E+02  0.7816164E-02  0.1266605E+00
        -11   -1    0    0    0    0  0.00000000000E+00  0.00000000000E+00  0.45593999997E+02  0.45594000000E+02  0.51100000000E-03 0.  1.
         11   -1    0    0    0    0 -0.00000000000E+00 -0.00000000000E+00 -0.45593999997E+02  0.45594000000E+02  0.51100000000E-03 0. -1.
    9900012    2    1    2    0    0  0.17297321357E+02 -0.22301895057E+02  0.14837399438E+02  0.59301948640E+02  0.50000008411E+02 0.  0.
         12    1    1    2    0    0 -0.17297321357E+02  0.22301895057E+02 -0.14837399438E+02  0.31886051360E+02  0.00000000000E+00 0. -1.
         11    1    3    3    0    0 -0.67341317665E+01 -0.13051342401E+02 -0.12972321787E+02  0.19595081064E+02  0.51100000000E-03 0. -1.
        -11    1    3    3    0    0  0.40950285631E+01 -0.71797545211E+01  0.72672499848E+01  0.11005955502E+02  0.51100000000E-03 0.  1.
         12    1    3    3    0    0  0.19936424561E+02 -0.20707981351E+01  0.20542471240E+02  0.28700912073E+02  0.00000000000E+00 0. -1.
</event>
<event>
 7    1  0.7457761E-012  0.5930193E+02  0.7816164E-02  0.1266605E+00
        -11   -1    0    0    0    0  0.00000000000E+00  0.00000000000E+00  0.45593999997E+02  0.45594000000E+02  0.51100000000E-03 0. -1.
         11   -1    0    0    0    0 -0.00000000000E+00 -0.00000000000E+00 -0.45593999997E+02  0.45594000000E+02  0.51100000000E-03 0.  1.
    9900012    2    1    2    0    0 -0.18553439236E+02 -0.60307560335E+01 -0.25221443885E+02  0.59301931609E+02  0.49999977351E+02 0.  0.
         12    1    1    2    0    0  0.18553439236E+02  0.60307560335E+01  0.25221443885E+02  0.31886068391E+02  0.00000000000E+00 0. -1.
         11    1    3    3    0    0  0.17663741325E+01  0.71220856531E+01  0.29845091996E+01  0.79215829889E+01  0.51100000000E-03 0. -1.
        -11    1    3    3    0    0 -0.43635859397E+01 -0.68133112176E+01 -0.32656152511E+02  0.33643519273E+02  0.51100000000E-03 0.  1.
        -12    1    3    3    0    0 -0.15956227429E+02 -0.63395304690E+01  0.44501994270E+01  0.17736829347E+02  0.00000000000E+00 0.  1.
</event>
<event>
 7    1  0.7457761E-012  0.5930202E+02  0.7816164E-02  0.1266605E+00
        -11   -1    0    0    0    0  0.00000000000E+00  0.00000000000E+00  0.45593999997E+02  0.45594000000E+02  0.51100000000E-03 0.  1.
         11   -1    0    0    0    0 -0.00000000000E+00 -0.00000000000E+00 -0.45593999997E+02  0.45594000000E+02  0.51100000000E-03 0. -1.
    9900012    2    1    2    0    0 -0.11956157326E+02 -0.29493193684E+02  0.19792994132E+01  0.59302018788E+02  0.50000136344E+02 0.  0.
         12    1    1    2    0    0  0.11956157326E+02  0.29493193684E+02 -0.19792994132E+01  0.31885981212E+02  0.00000000000E+00 0. -1.
         11    1    3    3    0    0 -0.11667814665E+02  0.47162266767E+01  0.15514272900E+01  0.12680205835E+02  0.51100000000E-03 0. -1.
        -11    1    3    3    0    0  0.27024482861E+01 -0.15137301378E+02 -0.15321794601E+02  0.21707107357E+02  0.51100000000E-03 0.  1.
        -12    1    3    3    0    0 -0.29907909479E+01 -0.19072118983E+02  0.15749666724E+02  0.24914705596E+02  0.00000000000E+00 0.  1.
</event>
<event>
 7    1  0.7457761E-012  0.5930191E+02  0.7816164E-02  0.1266605E+00
        -11   -1    0    0    0    0  0.00000000000E+00  0.00000000000E+00  0.45593999997E+02  0.45594000000E+02  0.51100000000E-03 0. -1.
         11   -1    0    0    0    0 -0.00000000000E+00 -0.00000000000E+00 -0.45593999997E+02  0.45594000000E+02  0.51100000000E-03 0.  1.
    9900012    2    1    2    0    0 -0.13116082070E+02 -0.23505010705E+01 -0.28968372198E+02  0.59301905038E+02  0.49999928891E+02 0.  0.
         12    1    1    2    0    0  0.13116082070E+02  0.23505010705E+01  0.28968372198E+02  0.31886094962E+02  0.00000000000E+00 0. -1.
         11    1    3    3    0    0 -0.19258044935E+01 -0.29711333894E+01  0.65734413255E+01  0.74663570559E+01  0.51100000000E-03 0. -1.
        -11    1    3    3    0    0 -0.13520878717E+02 -0.62374716188E+01 -0.40438201807E+02  0.43092555959E+02  0.51100000000E-03 0.  1.
        -12    1    3    3    0    0  0.23306011402E+01  0.68581039376E+01  0.48963882828E+01  0.87429920228E+01  0.00000000000E+00 0.  1.
</event>
<event>
 7    1  0.7457761E-012  0.5930195E+02  0.7816164E-02  0.1266605E+00
        -11   -1    0    0    0    0  0.00000000000E+00  0.00000000000E+00  0.45593999997E+02  0.45594000000E+02  0.51100000000E-03 0.  1.
         11   -1    0    0    0    0 -0.00000000000E+00 -0.00000000000E+00 -0.45593999997E+02  0.45594000000E+02  0.51100000000E-03 0. -1.
    9900012    2    1    2    0    0 -0.15469431421E+02  0.16846084982E+02  0.22217705957E+02  0.59301947473E+02  0.50000006284E+02 0.  0.
         12    1    1    2    0    0  0.15469431421E+02 -0.16846084982E+02 -0.22217705957E+02  0.31886052527E+02  0.00000000000E+00 0. -1.
         11    1    3    3    0    0 -0.11659345152E+02  0.19942227358E+02 -0.52920941633E+01  0.23698924496E+02  0.51100000000E-03 0. -1.
        -11    1    3    3    0    0  0.17010837198E+01  0.90785059018E+01  0.11302510206E+02  0.14596564406E+02  0.51100000000E-03 0.  1.
         12    1    3    3    0    0 -0.55111699884E+01 -0.12174648278E+02  0.16207289915E+02  0.21006458571E+02  0.00000000000E+00 0. -1.
</event>
<event>
 7    1  0.7457761E-012  0.5930196E+02  0.7816164E-02  0.1266605E+00
        -11   -1    0    0    0    0  0.00000000000E+00  0.00000000000E+00  0.45593999997E+02  0.45594000000E+02  0.51100000000E-03 0.  1.
         11   -1    0    0    0    0 -0.00000000000E+00 -0.00000000000E+00 -0.45593999997E+02  0.45594000000E+02  0.51100000000E-03 0. -1.
    9900012    2    1    2    0    0  0.73129445064E+01  0.26073628966E+02  0.16834683210E+02  0.59301955348E+02  0.50000020645E+02 0.  0.
         12    1    1    2    0    0 -0.73129445064E+01 -0.26073628966E+02 -0.16834683210E+02  0.31886044652E+02  0.00000000000E+00 0. -1.
         11    1    3    3    0    0  0.10407251738E+01 -0.11338676194E+01  0.27427056645E+00  0.15633263480E+01  0.51100000000E-03 0. -1.
        -11    1    3    3    0    0 -0.13494795417E+02  0.13973679211E+02 -0.10193921157E+02  0.21938305377E+02  0.51100000000E-03 0.  1.
        -12    1    3    3    0    0  0.19767014749E+02  0.13233817375E+02  0.26754333800E+02  0.35800323622E+02  0.00000000000E+00 0.  1.
</event>
<event>
 7    1  0.7457761E-012  0.5930194E+02  0.7816164E-02  0.1266605E+00
        -11   -1    0    0    0    0  0.00000000000E+00  0.00000000000E+00  0.45593999997E+02  0.45594000000E+02  0.51100000000E-03 0.  1.
         11   -1    0    0    0    0 -0.00000000000E+00 -0.00000000000E+00 -0.45593999997E+02  0.45594000000E+02  0.51100000000E-03 0. -1.
    9900012    2    1    2    0    0 -0.15420919339E+02  0.16247887765E+02  0.22691900957E+02  0.59301937542E+02  0.49999988171E+02 0.  0.
         12    1    1    2    0    0  0.15420919339E+02 -0.16247887765E+02 -0.22691900957E+02  0.31886062458E+02  0.00000000000E+00 0. -1.
         11    1    3    3    0    0  0.31748527356E+01  0.56731945175E+00 -0.87797311989E+01  0.93533534862E+01  0.51100000000E-03 0. -1.
        -11    1    3    3    0    0 -0.19670419888E+02  0.20712359934E+02  0.33840337736E+02  0.44284260533E+02  0.51100000000E-03 0.  1.
        -12    1    3    3    0    0  0.10746478137E+01 -0.50317916210E+01 -0.23687055801E+01  0.56643235224E+01  0.00000000000E+00 0.  1.
</event>
<event>
 7    1  0.7457761E-012  0.5930211E+02  0.7816164E-02  0.1266604E+00
        -11   -1    0    0    0    0  0.00000000000E+00  0.00000000000E+00  0.45593999997E+02  0.45594000000E+02  0.51100000000E-03 0.  1.
         11   -1    0    0    0    0 -0.00000000000E+00 -0.00000000000E+00 -0.45593999997E+02  0.45594000000E+02  0.51100000000E-03 0. -1.
    9900012    2    1    2    0    0  0.14173445336E+01 -0.31632010486E+02 -0.37572688529E+01  0.59302109356E+02  0.50000301519E+02 0.  0.
         12    1    1    2    0    0 -0.14173445336E+01  0.31632010486E+02  0.37572688529E+01  0.31885890644E+02  0.00000000000E+00 0. -1.
         11    1    3    3    0    0  0.42234712115E+00 -0.28054551811E+02  0.53555175390E+01  0.28564275289E+02  0.51100000000E-03 0. -1.
        -11    1    3    3    0    0  0.12521542553E+01  0.12543331028E+02 -0.71599187291E+01  0.14497154205E+02  0.51100000000E-03 0.  1.
        -12    1    3    3    0    0 -0.25715684283E+00 -0.16120789703E+02 -0.19528676627E+01  0.16240679863E+02  0.00000000000E+00 0.  1.
</event>
<event>
 7    1  0.7457761E-012  0.5930191E+02  0.7816164E-02  0.1266605E+00
        -11   -1    0    0    0    0  0.00000000000E+00  0.00000000000E+00  0.45593999997E+02  0.45594000000E+02  0.51100000000E-03 0. -1.
         11   -1    0    0    0    0 -0.00000000000E+00 -0.00000000000E+00 -0.45593999997E+02  0.45594000000E+02  0.51100000000E-03 0.  1.
    9900012    2    1    2    0    0 -0.21281905729E+02 -0.17852072775E+02 -0.15655875098E+02  0.59301914650E+02  0.49999946422E+02 0.  0.
         12    1    1    2    0    0  0.21281905729E+02  0.17852072775E+02  0.15655875098E+02  0.31886085350E+02  0.00000000000E+00 0. -1.
         11    1    3    3    0    0 -0.21607754514E+02  0.46215666196E+01  0.30869290036E+01  0.22311052510E+02  0.51100000000E-03 0.  1.
        -11    1    3    3    0    0  0.34745896139E+01 -0.23047634202E+02 -0.63020925048E+01  0.24145032315E+02  0.51100000000E-03 0. -1.
        -12    1    3    3    0    0 -0.31487408289E+01  0.57399480738E+00 -0.12440711597E+02  0.12845829825E+02  0.00000000000E+00 0.  1.
</event>
<event>
 7    1  0.7457761E-012  0.5930191E+02  0.7816164E-02  0.1266605E+00
        -11   -1    0    0    0    0  0.00000000000E+00  0.00000000000E+00  0.45593999997E+02  0.45594000000E+02  0.51100000000E-03 0.  1.
         11   -1    0    0    0    0 -0.00000000000E+00 -0.00000000000E+00 -0.45593999997E+02  0.45594000000E+02  0.51100000000E-03 0. -1.
    9900012    2    1    2    0    0  0.14359785595E+02 -0.23386696895E+01  0.28373396313E+02  0.59301914687E+02  0.49999946489E+02 0.  0.
         12    1    1    2    0    0 -0.14359785595E+02  0.23386696895E+01 -0.28373396313E+02  0.31886085313E+02  0.00000000000E+00 0. -1.
         11    1    3    3    0    0  0.54813226024E+00 -0.11371798683E+02  0.13901336966E+01  0.11469556496E+02  0.51100000000E-03 0. -1.
        -11    1    3    3    0    0 -0.21787679664E+00  0.15479510827E+02 -0.13764972011E+01  0.15542119242E+02  0.51100000000E-03 0.  1.
        -12    1    3    3    0    0  0.14029530132E+02 -0.64463818330E+01  0.28359759817E+02  0.32290238949E+02  0.00000000000E+00 0.  1.
</event>
<event>
 7    1  0.7457761E-012  0.5930197E+02  0.7816164E-02  0.1266605E+00
        -11   -1    0    0    0    0  0.00000000000E+00  0.00000000000E+00  0.45593999997E+02  0.45594000000E+02  0.51100000000E-03 0. -1.
         11   -1    0    0    0    0 -0.00000000000E+00 -0.00000000000E+00 -0.45593999997E+02  0.45594000000E+02  0.51100000000E-03 0.  1.
    9900012    2    1    2    0    0 -0.15336977789E+02  0.17286750034E+02 -0.21969620584E+02  0.59301971036E+02  0.50000049257E+02 0.  0.
         12    1    1    2    0    0  0.15336977789E+02 -0.17286750034E+02  0.21969620584E+02  0.31886028964E+02  0.00000000000E+00 0. -1.
         11    1    3    3    0    0 -0.24515654342E+02 -0.51363580082E+01 -0.81897415355E+01  0.26352824290E+02  0.51100000000E-03 0. -1.
        -11    1    3    3    0    0 -0.20928781913E+01  0.11427449390E+02  0.58850951974E+00  0.11632415158E+02  0.51100000000E-03 0.  1.
         12    1    3    3    0    0  0.11271554744E+02  0.10995658653E+02 -0.14368388569E+02  0.21316731588E+02  0.00000000000E+00 0. -1.
</event>
<event>
 7    1  0.7457761E-012  0.5930193E+02  0.7816164E-02  0.1266605E+00
        -11   -1    0    0    0    0  0.00000000000E+00  0.00000000000E+00  0.45593999997E+02  0.45594000000E+02  0.51100000000E-03 0.  1.
         11   -1    0    0    0    0 -0.00000000000E+00 -0.00000000000E+00 -0.45593999997E+02  0.45594000000E+02  0.51100000000E-03 0. -1.
    9900012    2    1    2    0    0  0.14178262549E+02 -0.38594149949E+01  0.28298465031E+02  0.59301931943E+02  0.49999977961E+02 0.  0.
         12    1    1    2    0    0 -0.14178262549E+02  0.38594149949E+01 -0.28298465031E+02  0.31886068057E+02  0.00000000000E+00 0. -1.
         11    1    3    3    0    0 -0.43504654188E+01 -0.36904040159E+01 -0.91034684386E+01  0.10743312759E+02  0.51100000000E-03 0. -1.
        -11    1    3    3    0    0  0.22707472678E+02  0.38458295898E+01  0.21016780113E+02  0.31178915427E+02  0.51100000000E-03 0.  1.
         12    1    3    3    0    0 -0.41787447103E+01 -0.40148405688E+01  0.16385153357E+02  0.17379703757E+02  0.00000000000E+00 0. -1.
</event>
<event>
 7    1  0.7457761E-012  0.5930193E+02  0.7816164E-02  0.1266605E+00
        -11   -1    0    0    0    0  0.00000000000E+00  0.00000000000E+00  0.45593999997E+02  0.45594000000E+02  0.51100000000E-03 0. -1.
         11   -1    0    0    0    0 -0.00000000000E+00 -0.00000000000E+00 -0.45593999997E+02  0.45594000000E+02  0.51100000000E-03 0.  1.
    9900012    2    1    2    0    0  0.13751128564E+02 -0.27803210657E+02 -0.73898218196E+01  0.59301928964E+02  0.49999972526E+02 0.  0.
         12    1    1    2    0    0 -0.13751128564E+02  0.27803210657E+02  0.73898218196E+01  0.31886071036E+02  0.00000000000E+00 0. -1.
         11    1    3    3    0    0  0.76056791560E+01  0.66756209931E+01 -0.13396671621E+02  0.16789314514E+02  0.51100000000E-03 0. -1.
        -11    1    3    3    0    0 -0.56732262136E+01 -0.56816025123E+01 -0.50429465890E+01  0.94814246471E+01  0.51100000000E-03 0.  1.
         12    1    3    3    0    0  0.11818675622E+02 -0.28797229138E+02  0.11049796391E+02  0.33031189802E+02  0.00000000000E+00 0. -1.
</event>
<event>
 7    1  0.7457761E-012  0.5930198E+02  0.7816164E-02  0.1266605E+00
        -11   -1    0    0    0    0  0.00000000000E+00  0.00000000000E+00  0.45593999997E+02  0.45594000000E+02  0.51100000000E-03 0.  1.
         11   -1    0    0    0    0 -0.00000000000E+00 -0.00000000000E+00 -0.45593999997E+02  0.45594000000E+02  0.51100000000E-03 0. -1.
    9900012    2    1    2    0    0  0.32008837306E+01 -0.13185995830E+02  0.28854845101E+02  0.59301980674E+02  0.50000066834E+02 0.  0.
         12    1    1    2    0    0 -0.32008837306E+01  0.13185995830E+02 -0.28854845101E+02  0.31886019326E+02  0.00000000000E+00 0. -1.
         11    1    3    3    0    0 -0.26816463236E+00 -0.19895356712E+01  0.30787122534E+02  0.30852505225E+02  0.51100000000E-03 0. -1.
        -11    1    3    3    0    0  0.44300971523E+01 -0.19124965685E+02  0.16413862468E+01  0.19699853357E+02  0.51100000000E-03 0.  1.
        -12    1    3    3    0    0 -0.96104878927E+00  0.79285055263E+01 -0.35736636802E+01  0.87496220921E+01  0.00000000000E+00 0.  1.
</event>
<event>
 7    1  0.7457761E-012  0.5930194E+02  0.7816164E-02  0.1266605E+00
        -11   -1    0    0    0    0  0.00000000000E+00  0.00000000000E+00  0.45593999997E+02  0.45594000000E+02  0.51100000000E-03 0.  1.
         11   -1    0    0    0    0 -0.00000000000E+00 -0.00000000000E+00 -0.45593999997E+02  0.45594000000E+02  0.51100000000E-03 0. -1.
    9900012    2    1    2    0    0 -0.27451264549E+02  0.15241917551E+02 -0.55527327213E+01  0.59301940089E+02  0.49999992817E+02 0.  0.
         12    1    1    2    0    0  0.27451264549E+02 -0.15241917551E+02  0.55527327213E+01  0.31886059911E+02  0.00000000000E+00 0. -1.
         11    1    3    3    0    0 -0.24452802845E+02 -0.67998112642E+01 -0.41031552421E+01  0.25710170817E+02  0.51100000000E-03 0. -1.
        -11    1    3    3    0    0  0.22147644763E+01  0.63098235573E+01  0.10993315680E+02  0.12867480131E+02  0.51100000000E-03 0.  1.
         12    1    3    3    0    0 -0.52132261799E+01  0.15731905257E+02 -0.12442893160E+02  0.20724289141E+02  0.00000000000E+00 0. -1.
</event>
<event>
 7    1  0.7457761E-012  0.5930194E+02  0.7816164E-02  0.1266605E+00
        -11   -1    0    0    0    0  0.00000000000E+00  0.00000000000E+00  0.45593999997E+02  0.45594000000E+02  0.51100000000E-03 0. -1.
         11   -1    0    0    0    0 -0.00000000000E+00 -0.00000000000E+00 -0.45593999997E+02  0.45594000000E+02  0.51100000000E-03 0.  1.
    9900012    2    1    2    0    0  0.86015803673E+01  0.12423725813E+02 -0.28078185925E+02  0.59301942345E+02  0.49999996932E+02 0.  0.
         12    1    1    2    0    0 -0.86015803673E+01 -0.12423725813E+02  0.28078185925E+02  0.31886057655E+02  0.00000000000E+00 0. -1.
         11    1    3    3    0    0  0.19762506666E+02  0.11819848813E+02 -0.11854306765E+02  0.25899615534E+02  0.51100000000E-03 0. -1.
        -11    1    3    3    0    0 -0.84262411551E+01  0.13184066552E+02 -0.53053260788E+01  0.16521732231E+02  0.51100000000E-03 0.  1.
        -12    1    3    3    0    0 -0.27346851434E+01 -0.12580189552E+02 -0.10918553081E+02  0.16880594580E+02  0.00000000000E+00 0.  1.
</event>
<event>
 7    1  0.7457761E-012  0.5930196E+02  0.7816164E-02  0.1266605E+00
        -11   -1    0    0    0    0  0.00000000000E+00  0.00000000000E+00  0.45593999997E+02  0.45594000000E+02  0.51100000000E-03 0. -1.
         11   -1    0    0    0    0 -0.00000000000E+00 -0.00000000000E+00 -0.45593999997E+02  0.45594000000E+02  0.51100000000E-03 0.  1.
    9900012    2    1    2    0    0  0.26550061858E+02 -0.94313566221E+01 -0.14928612067E+02  0.59301957119E+02  0.50000023875E+02 0.  0.
         12    1    1    2    0    0 -0.26550061858E+02  0.94313566221E+01  0.14928612067E+02  0.31886042881E+02  0.00000000000E+00 0. -1.
         11    1    3    3    0    0 -0.56280964187E+00 -0.13949100255E+01 -0.22104814096E+02  0.22155932279E+02  0.51100000000E-03 0. -1.
        -11    1    3    3    0    0  0.27179455922E+02 -0.29242318644E+01  0.12238760258E+02  0.29950980103E+02  0.51100000000E-03 0.  1.
         12    1    3    3    0    0 -0.66584422241E-01 -0.51122147322E+01 -0.50625582289E+01  0.71950447375E+01  0.00000000000E+00 0. -1.
</event>
<event>
 7    1  0.7457761E-012  0.5930195E+02  0.7816164E-02  0.1266605E+00
        -11   -1    0    0    0    0  0.00000000000E+00  0.00000000000E+00  0.45593999997E+02  0.45594000000E+02  0.51100000000E-03 0. -1.
         11   -1    0    0    0    0 -0.00000000000E+00 -0.00000000000E+00 -0.45593999997E+02  0.45594000000E+02  0.51100000000E-03 0.  1.
    9900012    2    1    2    0    0  0.38840633572E+01 -0.21693179656E+02 -0.23044309631E+02  0.59301949788E+02  0.50000010505E+02 0.  0.
         12    1    1    2    0    0 -0.38840633572E+01  0.21693179656E+02  0.23044309631E+02  0.31886050212E+02  0.00000000000E+00 0. -1.
         11    1    3    3    0    0  0.24400685643E+01  0.28313166409E+01  0.34546631708E+01  0.50896941365E+01  0.51100000000E-03 0. -1.
        -11    1    3    3    0    0  0.51526965731E+01 -0.30867390757E+02 -0.32207798851E+02  0.44907553943E+02  0.51100000000E-03 0.  1.
        -12    1    3    3    0    0 -0.37087017802E+01  0.63428944594E+01  0.57088260489E+01  0.93047017080E+01  0.00000000000E+00 0.  1.
</event>
<event>
 7    1  0.7457761E-012  0.5930193E+02  0.7816164E-02  0.1266605E+00
        -11   -1    0    0    0    0  0.00000000000E+00  0.00000000000E+00  0.45593999997E+02  0.45594000000E+02  0.51100000000E-03 0.  1.
         11   -1    0    0    0    0 -0.00000000000E+00 -0.00000000000E+00 -0.45593999997E+02  0.45594000000E+02  0.51100000000E-03 0. -1.
    9900012    2    1    2    0    0 -0.29281968053E+02  0.62818623572E+01  0.10946496002E+02  0.59301933725E+02  0.49999981211E+02 0.  0.
         12    1    1    2    0    0  0.29281968053E+02 -0.62818623572E+01 -0.10946496002E+02  0.31886066275E+02  0.00000000000E+00 0. -1.
         11    1    3    3    0    0 -0.70692900481E+01 -0.42880226620E+01 -0.18319806576E+02  0.20099186883E+02  0.51100000000E-03 0. -1.
        -11    1    3    3    0    0 -0.17140666448E+02  0.38632190742E+01  0.18114878095E+02  0.25236396663E+02  0.51100000000E-03 0.  1.
         12    1    3    3    0    0 -0.50720115577E+01  0.67066659450E+01  0.11151424482E+02  0.13966350179E+02  0.00000000000E+00 0. -1.
</event>
<event>
 7    1  0.7457761E-012  0.5930193E+02  0.7816164E-02  0.1266605E+00
        -11   -1    0    0    0    0  0.00000000000E+00  0.00000000000E+00  0.45593999997E+02  0.45594000000E+02  0.51100000000E-03 0.  1.
         11   -1    0    0    0    0 -0.00000000000E+00 -0.00000000000E+00 -0.45593999997E+02  0.45594000000E+02  0.51100000000E-03 0. -1.
    9900012    2    1    2    0    0 -0.29065809515E+01  0.86212074930E+01  0.30560561572E+02  0.59301931646E+02  0.49999977419E+02 0.  0.
         12    1    1    2    0    0  0.29065809515E+01 -0.86212074930E+01 -0.30560561572E+02  0.31886068354E+02  0.00000000000E+00 0. -1.
         11    1    3    3    0    0  0.24214352504E+01  0.14401258580E+02 -0.31293058010E+01  0.14934930613E+02  0.51100000000E-03 0. -1.
        -11    1    3    3    0    0 -0.10036613365E+02 -0.15127811926E+02  0.18495835539E+02  0.25916794440E+02  0.51100000000E-03 0.  1.
        -12    1    3    3    0    0  0.47085971630E+01  0.93477608390E+01  0.15194031835E+02  0.18450206593E+02  0.00000000000E+00 0.  1.
</event>
<event>
 7    1  0.7457761E-012  0.5930196E+02  0.7816164E-02  0.1266605E+00
        -11   -1    0    0    0    0  0.00000000000E+00  0.00000000000E+00  0.45593999997E+02  0.45594000000E+02  0.51100000000E-03 0.  1.
         11   -1    0    0    0    0 -0.00000000000E+00 -0.00000000000E+00 -0.45593999997E+02  0.45594000000E+02  0.51100000000E-03 0. -1.
    9900012    2    1    2    0    0  0.24575986255E+02  0.16559198620E+02  0.11770030631E+02  0.59301956338E+02  0.50000022451E+02 0.  0.
         12    1    1    2    0    0 -0.24575986255E+02 -0.16559198620E+02 -0.11770030631E+02  0.31886043662E+02  0.00000000000E+00 0. -1.
         11    1    3    3    0    0  0.83139739700E+01  0.45412743079E+01 -0.12618749101E+02  0.15779041943E+02  0.51100000000E-03 0. -1.
        -11    1    3    3    0    0  0.27259998921E+01  0.10802954362E+02  0.27421218536E+02  0.29598279082E+02  0.51100000000E-03 0.  1.
        -12    1    3    3    0    0  0.13536012393E+02  0.12149699506E+01 -0.30324388046E+01  0.13924635313E+02  0.00000000000E+00 0.  1.
</event>
<event>
 7    1  0.7457761E-012  0.5930193E+02  0.7816164E-02  0.1266605E+00
        -11   -1    0    0    0    0  0.00000000000E+00  0.00000000000E+00  0.45593999997E+02  0.45594000000E+02  0.51100000000E-03 0.  1.
         11   -1    0    0    0    0 -0.00000000000E+00 -0.00000000000E+00 -0.45593999997E+02  0.45594000000E+02  0.51100000000E-03 0. -1.
    9900012    2    1    2    0    0 -0.15127326907E+02  0.26225852869E+02  0.10004495009E+02  0.59301932534E+02  0.49999979038E+02 0.  0.
         12    1    1    2    0    0  0.15127326907E+02 -0.26225852869E+02 -0.10004495009E+02  0.31886067466E+02  0.00000000000E+00 0. -1.
         11    1    3    3    0    0 -0.19415202395E+02  0.18035214913E+01 -0.64176093783E+01  0.20527749127E+02  0.51100000000E-03 0. -1.
        -11    1    3    3    0    0 -0.47386131434E+01  0.25491627905E+02  0.13461725637E+02  0.29214647099E+02  0.51100000000E-03 0.  1.
        -12    1    3    3    0    0  0.90264886315E+01 -0.10692965268E+01  0.29603787507E+01  0.95595363080E+01  0.00000000000E+00 0.  1.
</event>
<event>
 7    1  0.7457761E-012  0.5930191E+02  0.7816164E-02  0.1266605E+00
        -11   -1    0    0    0    0  0.00000000000E+00  0.00000000000E+00  0.45593999997E+02  0.45594000000E+02  0.51100000000E-03 0.  1.
         11   -1    0    0    0    0 -0.00000000000E+00 -0.00000000000E+00 -0.45593999997E+02  0.45594000000E+02  0.51100000000E-03 0. -1.
    9900012    2    1    2    0    0  0.20991248989E+01 -0.52645718432E+00  0.31812563019E+02  0.59301911367E+02  0.49999940434E+02 0.  0.
         12    1    1    2    0    0 -0.20991248989E+01  0.52645718432E+00 -0.31812563019E+02  0.31886088633E+02  0.00000000000E+00 0. -1.
         11    1    3    3    0    0  0.15322142159E+02  0.65815186438E+01  0.63118472324E+01  0.17830419057E+02  0.51100000000E-03 0. -1.
        -11    1    3    3    0    0 -0.68150669506E+01 -0.51327695571E+01 -0.52370329285E+01  0.10010842873E+02  0.51100000000E-03 0.  1.
        -12    1    3    3    0    0 -0.64079503092E+01 -0.19752062711E+01  0.30737748715E+02  0.31460649437E+02  0.00000000000E+00 0.  1.
</event>
<event>
 7    1  0.7457761E-012  0.5930193E+02  0.7816164E-02  0.1266605E+00
        -11   -1    0    0    0    0  0.00000000000E+00  0.00000000000E+00  0.45593999997E+02  0.45594000000E+02  0.51100000000E-03 0. -1.
         11   -1    0    0    0    0 -0.00000000000E+00 -0.00000000000E+00 -0.45593999997E+02  0.45594000000E+02  0.51100000000E-03 0.  1.
    9900012    2    1    2    0    0 -0.20858418161E+02 -0.24022702482E+01  0.23997435538E+02  0.59301930582E+02  0.49999975478E+02 0.  0.
         12    1    1    2    0    0  0.20858418161E+02  0.24022702482E+01 -0.23997435538E+02  0.31886069418E+02  0.00000000000E+00 0. -1.
         11    1    3    3    0    0 -0.19767913459E+02  0.27001267116E+01  0.32695983843E+02  0.38302590598E+02  0.51100000000E-03 0.  1.
        -11    1    3    3    0    0  0.65487210126E+01 -0.73107331550E+01 -0.85955071469E+01  0.13046658942E+02  0.51100000000E-03 0. -1.
        -12    1    3    3    0    0 -0.76392257154E+01  0.22083361951E+01 -0.10304115829E+00  0.79526810424E+01  0.00000000000E+00 0.  1.
</event>
<event>
 7    1  0.7457761E-012  0.5930199E+02  0.7816164E-02  0.1266605E+00
        -11   -1    0    0    0    0  0.00000000000E+00  0.00000000000E+00  0.45593999997E+02  0.45594000000E+02  0.51100000000E-03 0. -1.
         11   -1    0    0    0    0 -0.00000000000E+00 -0.00000000000E+00 -0.45593999997E+02  0.45594000000E+02  0.51100000000E-03 0.  1.
    9900012    2    1    2    0    0 -0.28404546033E+02 -0.14180925826E+02  0.29666302852E+01  0.59301987582E+02  0.50000079433E+02 0.  0.
         12    1    1    2    0    0  0.28404546033E+02  0.14180925826E+02 -0.29666302852E+01  0.31886012418E+02  0.00000000000E+00 0. -1.
         11    1    3    3    0    0 -0.25296044613E+02 -0.14513516069E+01  0.62181738210E+01  0.26089499429E+02  0.51100000000E-03 0. -1.
        -11    1    3    3    0    0 -0.47047459218E+01 -0.22521003976E+02 -0.35923546381E+01  0.23285945684E+02  0.51100000000E-03 0.  1.
         12    1    3    3    0    0  0.15962445012E+01  0.97914297569E+01  0.34081110233E+00  0.99265424695E+01  0.00000000000E+00 0. -1.
</event>
<event>
 7    1  0.7457761E-012  0.5930195E+02  0.7816164E-02  0.1266605E+00
        -11   -1    0    0    0    0  0.00000000000E+00  0.00000000000E+00  0.45593999997E+02  0.45594000000E+02  0.51100000000E-03 0. -1.
         11   -1    0    0    0    0 -0.00000000000E+00 -0.00000000000E+00 -0.45593999997E+02  0.45594000000E+02  0.51100000000E-03 0.  1.
    9900012    2    1    2    0    0 -0.90221757638E+01 -0.20091808283E+02 -0.23057320442E+02  0.59301945971E+02  0.50000003544E+02 0.  0.
         12    1    1    2    0    0  0.90221757638E+01  0.20091808283E+02  0.23057320442E+02  0.31886054029E+02  0.00000000000E+00 0. -1.
         11    1    3    3    0    0  0.30251313451E+01 -0.42896872823E+01  0.28588871269E+01  0.59771291186E+01  0.51100000000E-03 0. -1.
        -11    1    3    3    0    0 -0.49753909976E+01 -0.24882858987E+01 -0.35188874262E+02  0.35625874788E+02  0.51100000000E-03 0.  1.
        -12    1    3    3    0    0 -0.70719161113E+01 -0.13313835102E+02  0.92726666931E+01  0.17698942065E+02  0.00000000000E+00 0.  1.
</event>
<event>
 7    1  0.7457761E-012  0.5930188E+02  0.7816164E-02  0.1266605E+00
        -11   -1    0    0    0    0  0.00000000000E+00  0.00000000000E+00  0.45593999997E+02  0.45594000000E+02  0.51100000000E-03 0. -1.
         11   -1    0    0    0    0 -0.00000000000E+00 -0.00000000000E+00 -0.45593999997E+02  0.45594000000E+02  0.51100000000E-03 0.  1.
    9900012    2    1    2    0    0 -0.21452250553E+02 -0.23277992946E+02 -0.38289046712E+01  0.59301882012E+02  0.49999886897E+02 0.  0.
         12    1    1    2    0    0  0.21452250553E+02  0.23277992946E+02  0.38289046712E+01  0.31886117988E+02  0.00000000000E+00 0. -1.
         11    1    3    3    0    0 -0.62999130482E+01  0.38733080725E+01 -0.17222651801E+02  0.18743296272E+02  0.51100000000E-03 0. -1.
        -11    1    3    3    0    0 -0.75312811621E+01 -0.20971277406E+02 -0.19264016035E+01  0.22365725908E+02  0.51100000000E-03 0.  1.
         12    1    3    3    0    0 -0.76210563431E+01 -0.61800236120E+01  0.15320148733E+02  0.18192859831E+02  0.00000000000E+00 0. -1.
</event>
<event>
 7    1  0.7457761E-012  0.5930196E+02  0.7816164E-02  0.1266605E+00
        -11   -1    0    0    0    0  0.00000000000E+00  0.00000000000E+00  0.45593999997E+02  0.45594000000E+02  0.51100000000E-03 0. -1.
         11   -1    0    0    0    0 -0.00000000000E+00 -0.00000000000E+00 -0.45593999997E+02  0.45594000000E+02  0.51100000000E-03 0.  1.
    9900012    2    1    2    0    0  0.29693736455E+02 -0.11618834582E+02  0.66729726421E-01  0.59301956743E+02  0.50000023190E+02 0.  0.
         12    1    1    2    0    0 -0.29693736455E+02  0.11618834582E+02 -0.66729726421E-01  0.31886043257E+02  0.00000000000E+00 0. -1.
         11    1    3    3    0    0  0.11140868707E+02 -0.29061603563E+02  0.19225051921E+01  0.31183197137E+02  0.51100000000E-03 0. -1.
        -11    1    3    3    0    0  0.72087972229E+01  0.13180554801E+02 -0.45647840760E+01  0.15701306830E+02  0.51100000000E-03 0.  1.
         12    1    3    3    0    0  0.11344070525E+02  0.42622141799E+01  0.27090086104E+01  0.12417452776E+02  0.00000000000E+00 0. -1.
</event>
<event>
 7    1  0.7457761E-012  0.5930194E+02  0.7816164E-02  0.1266605E+00
        -11   -1    0    0    0    0  0.00000000000E+00  0.00000000000E+00  0.45593999997E+02  0.45594000000E+02  0.51100000000E-03 0.  1.
         11   -1    0    0    0    0 -0.00000000000E+00 -0.00000000000E+00 -0.45593999997E+02  0.45594000000E+02  0.51100000000E-03 0. -1.
    9900012    2    1    2    0    0  0.47422209051E+01  0.30840764643E+01  0.31380260128E+02  0.59301938587E+02  0.49999990078E+02 0.  0.
         12    1    1    2    0    0 -0.47422209051E+01 -0.30840764643E+01 -0.31380260128E+02  0.31886061413E+02  0.00000000000E+00 0. -1.
         11    1    3    3    0    0 -0.87165991915E+01  0.13358532136E+02  0.15044316617E+02  0.21926261538E+02  0.51100000000E-03 0. -1.
        -11    1    3    3    0    0  0.75751229335E+00 -0.10039375024E+02 -0.59708077219E+01  0.11705273208E+02  0.51100000000E-03 0.  1.
        -12    1    3    3    0    0  0.12701307803E+02 -0.23508064774E+00  0.22306751232E+02  0.25670403841E+02  0.00000000000E+00 0.  1.
</event>
<event>
 7    1  0.7457761E-012  0.5930193E+02  0.7816164E-02  0.1266605E+00
        -11   -1    0    0    0    0  0.00000000000E+00  0.00000000000E+00  0.45593999997E+02  0.45594000000E+02  0.51100000000E-03 0. -1.
         11   -1    0    0    0    0 -0.00000000000E+00 -0.00000000000E+00 -0.45593999997E+02  0.45594000000E+02  0.51100000000E-03 0.  1.
    9900012    2    1    2    0    0 -0.43207456401E+00  0.27806758907E+02 -0.15598673973E+02  0.59301934720E+02  0.49999983024E+02 0.  0.
         12    1    1    2    0    0  0.43207456401E+00 -0.27806758907E+02  0.15598673973E+02  0.31886065280E+02  0.00000000000E+00 0. -1.
         11    1    3    3    0    0 -0.16588594466E+02  0.10407124326E+01 -0.15222276188E+02  0.22538461379E+02  0.51100000000E-03 0. -1.
        -11    1    3    3    0    0  0.11634767879E+02  0.14811556252E+02 -0.94660848812E+01  0.21079771949E+02  0.51100000000E-03 0.  1.
         12    1    3    3    0    0  0.45217520229E+01  0.11954490222E+02  0.90896870962E+01  0.15683701391E+02  0.00000000000E+00 0. -1.
</event>
<event>
 7    1  0.7457761E-012  0.5930191E+02  0.7816164E-02  0.1266605E+00
        -11   -1    0    0    0    0  0.00000000000E+00  0.00000000000E+00  0.45593999997E+02  0.45594000000E+02  0.51100000000E-03 0.  1.
         11   -1    0    0    0    0 -0.00000000000E+00 -0.00000000000E+00 -0.45593999997E+02  0.45594000000E+02  0.51100000000E-03 0. -1.
    9900012    2    1    2    0    0 -0.14083547104E+02  0.27779779393E+02  0.68308307957E+01  0.59301910690E+02  0.49999939200E+02 0.  0.
         12    1    1    2    0    0  0.14083547104E+02 -0.27779779393E+02 -0.68308307957E+01  0.31886089310E+02  0.00000000000E+00 0. -1.
         11    1    3    3    0    0  0.30027739913E+01 -0.65927663077E+01 -0.67012206089E+01  0.98685144343E+01  0.51100000000E-03 0. -1.
        -11    1    3    3    0    0 -0.16944627553E+02  0.37915534952E+02  0.16619676451E+02  0.44731664838E+02  0.51100000000E-03 0.  1.
        -12    1    3    3    0    0 -0.14169354170E+00 -0.35429892516E+01 -0.30876250461E+01  0.47017314175E+01  0.00000000000E+00 0.  1.
</event>
<event>
 7    1  0.7457761E-012  0.5930193E+02  0.7816164E-02  0.1266605E+00
        -11   -1    0    0    0    0  0.00000000000E+00  0.00000000000E+00  0.45593999997E+02  0.45594000000E+02  0.51100000000E-03 0.  1.
         11   -1    0    0    0    0 -0.00000000000E+00 -0.00000000000E+00 -0.45593999997E+02  0.45594000000E+02  0.51100000000E-03 0. -1.
    9900012    2    1    2    0    0  0.30818777332E+01  0.18133358023E+02  0.26046201544E+02  0.59301933161E+02  0.49999980182E+02 0.  0.
         12    1    1    2    0    0 -0.30818777332E+01 -0.18133358023E+02 -0.26046201544E+02  0.31886066839E+02  0.00000000000E+00 0. -1.
         11    1    3    3    0    0 -0.37180297937E+01  0.16586555237E+02  0.20260536559E+02  0.26446680360E+02  0.51100000000E-03 0. -1.
        -11    1    3    3    0    0  0.62699657741E+01 -0.91956033479E+01  0.15009887811E+02  0.18686046240E+02  0.51100000000E-03 0.  1.
         12    1    3    3    0    0  0.52994175275E+00  0.10742406134E+02 -0.92242228258E+01  0.14169206561E+02  0.00000000000E+00 0. -1.
</event>
<event>
 7    1  0.7457761E-012  0.5930198E+02  0.7816164E-02  0.1266605E+00
        -11   -1    0    0    0    0  0.00000000000E+00  0.00000000000E+00  0.45593999997E+02  0.45594000000E+02  0.51100000000E-03 0.  1.
         11   -1    0    0    0    0 -0.00000000000E+00 -0.00000000000E+00 -0.45593999997E+02  0.45594000000E+02  0.51100000000E-03 0. -1.
    9900012    2    1    2    0    0 -0.12963695056E+01 -0.53190052808E+01  0.31412513302E+02  0.59301978250E+02  0.50000062413E+02 0.  0.
         12    1    1    2    0    0  0.12963695056E+01  0.53190052808E+01 -0.31412513302E+02  0.31886021750E+02  0.00000000000E+00 0. -1.
         11    1    3    3    0    0 -0.15357462945E+02 -0.66958067972E+01  0.38431003342E+01  0.17188802088E+02  0.51100000000E-03 0. -1.
        -11    1    3    3    0    0  0.17133185056E+02 -0.90934994902E+01  0.23491127611E+02  0.30464255117E+02  0.51100000000E-03 0.  1.
        -12    1    3    3    0    0 -0.30720916162E+01  0.10470301007E+02  0.40782853572E+01  0.11648921045E+02  0.00000000000E+00 0.  1.
</event>
<event>
 7    1  0.7457761E-012  0.5930203E+02  0.7816164E-02  0.1266604E+00
        -11   -1    0    0    0    0  0.00000000000E+00  0.00000000000E+00  0.45593999997E+02  0.45594000000E+02  0.51100000000E-03 0.  1.
         11   -1    0    0    0    0 -0.00000000000E+00 -0.00000000000E+00 -0.45593999997E+02  0.45594000000E+02  0.51100000000E-03 0. -1.
    9900012    2    1    2    0    0 -0.15930763116E+02 -0.22170185615E+02  0.16474489026E+02  0.59302029224E+02  0.50000155378E+02 0.  0.
         12    1    1    2    0    0  0.15930763116E+02  0.22170185615E+02 -0.16474489026E+02  0.31885970776E+02  0.00000000000E+00 0. -1.
         11    1    3    3    0    0 -0.79832066225E+01  0.10866875049E+02  0.13686607770E+02  0.19213115151E+02  0.51100000000E-03 0. -1.
        -11    1    3    3    0    0  0.67724724300E+01 -0.85836970053E+01  0.36701680059E+01  0.11533272326E+02  0.51100000000E-03 0.  1.
         12    1    3    3    0    0 -0.14720028924E+02 -0.24453363658E+02 -0.88228675043E+00  0.28555641747E+02  0.00000000000E+00 0. -1.
</event>
<event>
 7    1  0.7457761E-012  0.5930195E+02  0.7816164E-02  0.1266605E+00
        -11   -1    0    0    0    0  0.00000000000E+00  0.00000000000E+00  0.45593999997E+02  0.45594000000E+02  0.51100000000E-03 0.  1.
         11   -1    0    0    0    0 -0.00000000000E+00 -0.00000000000E+00 -0.45593999997E+02  0.45594000000E+02  0.51100000000E-03 0. -1.
    9900012    2    1    2    0    0  0.20577426897E+02  0.53797943768E+01  0.23756002775E+02  0.59301947358E+02  0.50000006074E+02 0.  0.
         12    1    1    2    0    0 -0.20577426897E+02 -0.53797943768E+01 -0.23756002775E+02  0.31886052642E+02  0.00000000000E+00 0. -1.
         11    1    3    3    0    0  0.48562584899E+01  0.18395609595E+02 -0.22154250159E+01  0.19154367835E+02  0.51100000000E-03 0. -1.
        -11    1    3    3    0    0  0.18726497771E+02 -0.92092581892E+01  0.27974070887E+02  0.34900441221E+02  0.51100000000E-03 0.  1.
        -12    1    3    3    0    0 -0.30053293642E+01 -0.38065570285E+01 -0.20026430958E+01  0.52471383027E+01  0.00000000000E+00 0.  1.
</event>
<event>
 7    1  0.7457761E-012  0.5930190E+02  0.7816164E-02  0.1266605E+00
        -11   -1    0    0    0    0  0.00000000000E+00  0.00000000000E+00  0.45593999997E+02  0.45594000000E+02  0.51100000000E-03 0. -1.
         11   -1    0    0    0    0 -0.00000000000E+00 -0.00000000000E+00 -0.45593999997E+02  0.45594000000E+02  0.51100000000E-03 0.  1.
    9900012    2    1    2    0    0  0.28917841601E+02  0.87793690082E+01 -0.10168808769E+02  0.59301897152E+02  0.49999914510E+02 0.  0.
         12    1    1    2    0    0 -0.28917841601E+02 -0.87793690082E+01  0.10168808769E+02  0.31886102848E+02  0.00000000000E+00 0. -1.
         11    1    3    3    0    0  0.45599689108E+01 -0.12541609192E+02 -0.12595704566E+02  0.18350396491E+02  0.51100000000E-03 0. -1.
        -11    1    3    3    0    0  0.21753028774E+02  0.10081291927E+02 -0.81264817209E+01  0.25315339484E+02  0.51100000000E-03 0.  1.
         12    1    3    3    0    0  0.26048439163E+01  0.11239686273E+02  0.10553377518E+02  0.15636161177E+02  0.00000000000E+00 0. -1.
</event>
<event>
 7    1  0.7457761E-012  0.5930195E+02  0.7816164E-02  0.1266605E+00
        -11   -1    0    0    0    0  0.00000000000E+00  0.00000000000E+00  0.45593999997E+02  0.45594000000E+02  0.51100000000E-03 0.  1.
         11   -1    0    0    0    0 -0.00000000000E+00 -0.00000000000E+00 -0.45593999997E+02  0.45594000000E+02  0.51100000000E-03 0. -1.
    9900012    2    1    2    0    0 -0.79974008497E+01 -0.22994854016E+02  0.20591228089E+02  0.59301946531E+02  0.50000004566E+02 0.  0.
         12    1    1    2    0    0  0.79974008497E+01  0.22994854016E+02 -0.20591228089E+02  0.31886053469E+02  0.00000000000E+00 0. -1.
         11    1    3    3    0    0 -0.44508825356E+01 -0.30990656613E+02  0.27530227320E+02  0.41691061023E+02  0.51100000000E-03 0.  1.
        -11    1    3    3    0    0 -0.59329588506E+01  0.10701390236E+02 -0.68044050095E+01  0.14000702893E+02  0.51100000000E-03 0. -1.
        -12    1    3    3    0    0  0.23864405365E+01 -0.27055876392E+01 -0.13459422177E+00  0.36101826148E+01  0.00000000000E+00 0.  1.
</event>
<event>
 7    1  0.7457761E-012  0.5930194E+02  0.7816164E-02  0.1266605E+00
        -11   -1    0    0    0    0  0.00000000000E+00  0.00000000000E+00  0.45593999997E+02  0.45594000000E+02  0.51100000000E-03 0.  1.
         11   -1    0    0    0    0 -0.00000000000E+00 -0.00000000000E+00 -0.45593999997E+02  0.45594000000E+02  0.51100000000E-03 0. -1.
    9900012    2    1    2    0    0  0.17053715682E+01  0.15069678160E+02  0.28048482582E+02  0.59301939297E+02  0.49999991372E+02 0.  0.
         12    1    1    2    0    0 -0.17053715682E+01 -0.15069678160E+02 -0.28048482582E+02  0.31886060703E+02  0.00000000000E+00 0. -1.
         11    1    3    3    0    0 -0.93299513587E+01  0.25355159578E+02  0.18998400530E+02  0.33028341353E+02  0.51100000000E-03 0. -1.
        -11    1    3    3    0    0  0.99753452823E+01 -0.15481946435E+02  0.98887906511E+01  0.20904218707E+02  0.51100000000E-03 0.  1.
        -12    1    3    3    0    0  0.10599776446E+01  0.51964650166E+01 -0.83870859862E+00  0.53693792368E+01  0.00000000000E+00 0.  1.
</event>
<event>
 7    1  0.7457761E-012  0.5930195E+02  0.7816164E-02  0.1266605E+00
        -11   -1    0    0    0    0  0.00000000000E+00  0.00000000000E+00  0.45593999997E+02  0.45594000000E+02  0.51100000000E-03 0.  1.
         11   -1    0    0    0    0 -0.00000000000E+00 -0.00000000000E+00 -0.45593999997E+02  0.45594000000E+02  0.51100000000E-03 0. -1.
    9900012    2    1    2    0    0  0.28562605404E+02 -0.75057135308E+01  0.12023400474E+02  0.59301947846E+02  0.50000006963E+02 0.  0.
         12    1    1    2    0    0 -0.28562605404E+02  0.75057135308E+01 -0.12023400474E+02  0.31886052154E+02  0.00000000000E+00 0. -1.
         11    1    3    3    0    0 -0.90246840714E+01  0.41145338354E+01 -0.68621327694E+01  0.12060811651E+02  0.51100000000E-03 0. -1.
        -11    1    3    3    0    0  0.34604735805E+02 -0.68638347468E+01  0.21211003422E+02  0.41164385504E+02  0.51100000000E-03 0.  1.
         12    1    3    3    0    0  0.29825536701E+01 -0.47564126194E+01 -0.23254701784E+01  0.60767506903E+01  0.00000000000E+00 0. -1.
</event>
<event>
 7    1  0.7457761E-012  0.5930196E+02  0.7816164E-02  0.1266605E+00
        -11   -1    0    0    0    0  0.00000000000E+00  0.00000000000E+00  0.45593999997E+02  0.45594000000E+02  0.51100000000E-03 0.  1.
         11   -1    0    0    0    0 -0.00000000000E+00 -0.00000000000E+00 -0.45593999997E+02  0.45594000000E+02  0.51100000000E-03 0. -1.
    9900012    2    1    2    0    0  0.42301427814E+01 -0.22884044740E+02  0.21797843245E+02  0.59301959453E+02  0.50000028133E+02 0.  0.
         12    1    1    2    0    0 -0.42301427814E+01  0.22884044740E+02 -0.21797843245E+02  0.31886040547E+02  0.00000000000E+00 0. -1.
         11    1    3    3    0    0  0.35999936543E+01 -0.40524557634E+01 -0.57002787771E+01  0.78661000771E+01  0.51100000000E-03 0. -1.
        -11    1    3    3    0    0 -0.12793044302E+02 -0.24941442398E+02  0.22226726822E+02  0.35773802103E+02  0.51100000000E-03 0.  1.
        -12    1    3    3    0    0  0.13423193430E+02  0.61098534214E+01  0.52713952001E+01  0.15662057273E+02  0.00000000000E+00 0.  1.
</event>
<event>
 7    1  0.7457761E-012  0.5930195E+02  0.7816164E-02  0.1266605E+00
        -11   -1    0    0    0    0  0.00000000000E+00  0.00000000000E+00  0.45593999997E+02  0.45594000000E+02  0.51100000000E-03 0.  1.
         11   -1    0    0    0    0 -0.00000000000E+00 -0.00000000000E+00 -0.45593999997E+02  0.45594000000E+02  0.51100000000E-03 0. -1.
    9900012    2    1    2    0    0  0.21279461554E+02  0.25564862575E+00  0.23745302635E+02  0.59301949171E+02  0.50000009380E+02 0.  0.
         12    1    1    2    0    0 -0.21279461554E+02 -0.25564862575E+00 -0.23745302635E+02  0.31886050829E+02  0.00000000000E+00 0. -1.
         11    1    3    3    0    0  0.29695554278E+02  0.28163535547E+01  0.25073893183E+02  0.38967395485E+02  0.51100000000E-03 0. -1.
        -11    1    3    3    0    0 -0.72940127300E+01  0.27242054902E+01  0.69581175640E+01  0.10442189308E+02  0.51100000000E-03 0.  1.
         12    1    3    3    0    0 -0.11220799943E+01 -0.52849104191E+01 -0.82867081121E+01  0.98923643780E+01  0.00000000000E+00 0. -1.
</event>
<event>
 7    1  0.7457761E-012  0.5930191E+02  0.7816164E-02  0.1266605E+00
        -11   -1    0    0    0    0  0.00000000000E+00  0.00000000000E+00  0.45593999997E+02  0.45594000000E+02  0.51100000000E-03 0. -1.
         11   -1    0    0    0    0 -0.00000000000E+00 -0.00000000000E+00 -0.45593999997E+02  0.45594000000E+02  0.51100000000E-03 0.  1.
    9900012    2    1    2    0    0  0.16829257674E+02  0.19892930671E+02  0.18378519016E+02  0.59301912662E+02  0.49999942796E+02 0.  0.
         12    1    1    2    0    0 -0.16829257674E+02 -0.19892930671E+02 -0.18378519016E+02  0.31886087338E+02  0.00000000000E+00 0. -1.
         11    1    3    3    0    0 -0.10360294650E+02  0.13069659957E+02  0.15399614113E+02  0.22700216557E+02  0.51100000000E-03 0. -1.
        -11    1    3    3    0    0  0.14561072411E+02  0.12600028656E+02  0.92524467362E+01  0.21363364031E+02  0.51100000000E-03 0.  1.
         12    1    3    3    0    0  0.12628479913E+02 -0.57767579421E+01 -0.62735418336E+01  0.15238332073E+02  0.00000000000E+00 0. -1.
</event>
<event>
 7    1  0.7457761E-012  0.5930187E+02  0.7816164E-02  0.1266605E+00
        -11   -1    0    0    0    0  0.00000000000E+00  0.00000000000E+00  0.45593999997E+02  0.45594000000E+02  0.51100000000E-03 0.  1.
         11   -1    0    0    0    0 -0.00000000000E+00 -0.00000000000E+00 -0.45593999997E+02  0.45594000000E+02  0.51100000000E-03 0. -1.
    9900012    2    1    2    0    0  0.14240753107E+02  0.84549190363E+01  0.27247760227E+02  0.59301872258E+02  0.49999869110E+02 0.  0.
         12    1    1    2    0    0 -0.14240753107E+02 -0.84549190363E+01 -0.27247760227E+02  0.31886127742E+02  0.00000000000E+00 0. -1.
         11    1    3    3    0    0  0.15110269696E+02  0.37242692768E+01 -0.32399226472E+01  0.15896148306E+02  0.51100000000E-03 0. -1.
        -11    1    3    3    0    0  0.24233093914E+01 -0.74726875678E+01  0.29722127501E+02  0.30742777222E+02  0.51100000000E-03 0.  1.
        -12    1    3    3    0    0 -0.32928259811E+01  0.12203337327E+02  0.76555537357E+00  0.12662946730E+02  0.00000000000E+00 0.  1.
</event>
<event>
 7    1  0.7457761E-012  0.5930197E+02  0.7816164E-02  0.1266605E+00
        -11   -1    0    0    0    0  0.00000000000E+00  0.00000000000E+00  0.45593999997E+02  0.45594000000E+02  0.51100000000E-03 0. -1.
         11   -1    0    0    0    0 -0.00000000000E+00 -0.00000000000E+00 -0.45593999997E+02  0.45594000000E+02  0.51100000000E-03 0.  1.
    9900012    2    1    2    0    0 -0.16511843222E+02  0.26789700037E+02 -0.51371174958E+01  0.59301969033E+02  0.50000045604E+02 0.  0.
         12    1    1    2    0    0  0.16511843222E+02 -0.26789700037E+02  0.51371174958E+01  0.31886030967E+02  0.00000000000E+00 0. -1.
         11    1    3    3    0    0  0.57097174419E+01  0.11246039476E+02  0.14581875911E+02  0.19279662406E+02  0.51100000000E-03 0. -1.
        -11    1    3    3    0    0 -0.10416643136E+02  0.19671732434E+02 -0.11469657518E+02  0.25040697974E+02  0.51100000000E-03 0.  1.
         12    1    3    3    0    0 -0.11804917528E+02 -0.41280718729E+01 -0.82493358887E+01  0.14981608653E+02  0.00000000000E+00 0. -1.
</event>
<event>
 7    1  0.7457761E-012  0.5930195E+02  0.7816164E-02  0.1266605E+00
        -11   -1    0    0    0    0  0.00000000000E+00  0.00000000000E+00  0.45593999997E+02  0.45594000000E+02  0.51100000000E-03 0.  1.
         11   -1    0    0    0    0 -0.00000000000E+00 -0.00000000000E+00 -0.45593999997E+02  0.45594000000E+02  0.51100000000E-03 0. -1.
    9900012    2    1    2    0    0 -0.20299888648E+02  0.13664686404E+02  0.20442866337E+02  0.59301954185E+02  0.50000018524E+02 0.  0.
         12    1    1    2    0    0  0.20299888648E+02 -0.13664686404E+02 -0.20442866337E+02  0.31886045815E+02  0.00000000000E+00 0. -1.
         11    1    3    3    0    0  0.98822121813E+01 -0.85778000626E+01 -0.35197242003E+01  0.13550838727E+02  0.51100000000E-03 0. -1.
        -11    1    3    3    0    0 -0.20254411469E+02  0.92840534171E+01  0.10692531332E+02  0.24713661371E+02  0.51100000000E-03 0.  1.
        -12    1    3    3    0    0 -0.99276893612E+01  0.12958433050E+02  0.13270059205E+02  0.21037454087E+02  0.00000000000E+00 0.  1.
</event>
<event>
 7    1  0.7457761E-012  0.5930196E+02  0.7816164E-02  0.1266605E+00
        -11   -1    0    0    0    0  0.00000000000E+00  0.00000000000E+00  0.45593999997E+02  0.45594000000E+02  0.51100000000E-03 0. -1.
         11   -1    0    0    0    0 -0.00000000000E+00 -0.00000000000E+00 -0.45593999997E+02  0.45594000000E+02  0.51100000000E-03 0.  1.
    9900012    2    1    2    0    0 -0.26140553743E+02 -0.10990183535E+02 -0.14581038379E+02  0.59301962863E+02  0.50000034351E+02 0.  0.
         12    1    1    2    0    0  0.26140553743E+02  0.10990183535E+02  0.14581038379E+02  0.31886037137E+02  0.00000000000E+00 0. -1.
         11    1    3    3    0    0 -0.69383183159E+00 -0.40513277856E+01 -0.57635845187E+01  0.70790936004E+01  0.51100000000E-03 0. -1.
        -11    1    3    3    0    0 -0.40647791684E+01  0.11692900391E+02  0.11845113848E+02  0.17133390545E+02  0.51100000000E-03 0.  1.
        -12    1    3    3    0    0 -0.21381942743E+02 -0.18631756141E+02 -0.20662567708E+02  0.35089478717E+02  0.00000000000E+00 0.  1.
</event>
<event>
 7    1  0.7457761E-012  0.5930189E+02  0.7816164E-02  0.1266605E+00
        -11   -1    0    0    0    0  0.00000000000E+00  0.00000000000E+00  0.45593999997E+02  0.45594000000E+02  0.51100000000E-03 0.  1.
         11   -1    0    0    0    0 -0.00000000000E+00 -0.00000000000E+00 -0.45593999997E+02  0.45594000000E+02  0.51100000000E-03 0. -1.
    9900012    2    1    2    0    0 -0.14686250569E+02 -0.25941976735E+02  0.11315996507E+02  0.59301891902E+02  0.49999904934E+02 0.  0.
         12    1    1    2    0    0  0.14686250569E+02  0.25941976735E+02 -0.11315996507E+02  0.31886108098E+02  0.00000000000E+00 0. -1.
         11    1    3    3    0    0 -0.13061085280E+02 -0.17278174564E+02  0.28370209567E+02  0.35693081348E+02  0.51100000000E-03 0. -1.
        -11    1    3    3    0    0 -0.62268282623E+01 -0.79765110328E+01 -0.15846605084E+02  0.18801941693E+02  0.51100000000E-03 0.  1.
         12    1    3    3    0    0  0.46016629729E+01 -0.68729113825E+00 -0.12076079760E+01  0.48068688612E+01  0.00000000000E+00 0. -1.
</event>
<event>
 7    1  0.7457761E-012  0.5930203E+02  0.7816164E-02  0.1266604E+00
        -11   -1    0    0    0    0  0.00000000000E+00  0.00000000000E+00  0.45593999997E+02  0.45594000000E+02  0.51100000000E-03 0. -1.
         11   -1    0    0    0    0 -0.00000000000E+00 -0.00000000000E+00 -0.45593999997E+02  0.45594000000E+02  0.51100000000E-03 0.  1.
    9900012    2    1    2    0    0  0.28029434012E+02 -0.39685397894E+01 -0.14673663675E+02  0.59302033107E+02  0.50000162458E+02 0.  0.
         12    1    1    2    0    0 -0.28029434012E+02  0.39685397894E+01  0.14673663675E+02  0.31885966893E+02  0.00000000000E+00 0. -1.
         11    1    3    3    0    0 -0.65630646961E+01 -0.15812698127E+01 -0.41854693858E+01  0.79430716140E+01  0.51100000000E-03 0. -1.
        -11    1    3    3    0    0  0.37076169911E+02  0.93429608543E+01 -0.69913226245E+01  0.38869163679E+02  0.51100000000E-03 0.  1.
        -12    1    3    3    0    0 -0.24836712031E+01 -0.11730230831E+02 -0.34968716645E+01  0.12489797814E+02  0.00000000000E+00 0.  1.
</event>
<event>
 7    1  0.7457761E-012  0.5930202E+02  0.7816164E-02  0.1266604E+00
        -11   -1    0    0    0    0  0.00000000000E+00  0.00000000000E+00  0.45593999997E+02  0.45594000000E+02  0.51100000000E-03 0. -1.
         11   -1    0    0    0    0 -0.00000000000E+00 -0.00000000000E+00 -0.45593999997E+02  0.45594000000E+02  0.51100000000E-03 0.  1.
    9900012    2    1    2    0    0 -0.19285086018E+02 -0.21089248745E+02 -0.14143718717E+02  0.59302019782E+02  0.50000138157E+02 0.  0.
         12    1    1    2    0    0  0.19285086018E+02  0.21089248745E+02  0.14143718717E+02  0.31885980218E+02  0.00000000000E+00 0. -1.
         11    1    3    3    0    0 -0.11583534768E+01 -0.65537167942E+01  0.43343882815E+01  0.79422861087E+01  0.51100000000E-03 0. -1.
        -11    1    3    3    0    0 -0.93177725251E+00 -0.12939486222E+01 -0.27723872787E+02  0.27769689132E+02  0.51100000000E-03 0.  1.
        -12    1    3    3    0    0 -0.17194955289E+02 -0.13241583328E+02  0.92457657887E+01  0.23590044541E+02  0.00000000000E+00 0.  1.
</event>
<event>
 7    1  0.7457761E-012  0.5930191E+02  0.7816164E-02  0.1266605E+00
        -11   -1    0    0    0    0  0.00000000000E+00  0.00000000000E+00  0.45593999997E+02  0.45594000000E+02  0.51100000000E-03 0.  1.
         11   -1    0    0    0    0 -0.00000000000E+00 -0.00000000000E+00 -0.45593999997E+02  0.45594000000E+02  0.51100000000E-03 0. -1.
    9900012    2    1    2    0    0  0.60925797450E+01 -0.31103065416E+02  0.34932480363E+01  0.59301906039E+02  0.49999930718E+02 0.  0.
         12    1    1    2    0    0 -0.60925797450E+01  0.31103065416E+02 -0.34932480363E+01  0.31886093961E+02  0.00000000000E+00 0. -1.
         11    1    3    3    0    0  0.51691218920E+01 -0.29498126579E+02 -0.18509507524E+01  0.30004754819E+02  0.51100000000E-03 0. -1.
        -11    1    3    3    0    0  0.12410905970E+02  0.54551721019E+01 -0.23704770668E+01  0.13762581569E+02  0.51100000000E-03 0.  1.
        -12    1    3    3    0    0 -0.11487448117E+02 -0.70601109395E+01  0.77146758555E+01  0.15534569652E+02  0.00000000000E+00 0.  1.
</event>
<event>
 7    1  0.7457761E-012  0.5930192E+02  0.7816164E-02  0.1266605E+00
        -11   -1    0    0    0    0  0.00000000000E+00  0.00000000000E+00  0.45593999997E+02  0.45594000000E+02  0.51100000000E-03 0. -1.
         11   -1    0    0    0    0 -0.00000000000E+00 -0.00000000000E+00 -0.45593999997E+02  0.45594000000E+02  0.51100000000E-03 0.  1.
    9900012    2    1    2    0    0 -0.35375955821E+00 -0.31212139782E+02  0.65114813153E+01  0.59301918326E+02  0.49999953126E+02 0.  0.
         12    1    1    2    0    0  0.35375955821E+00  0.31212139782E+02 -0.65114813153E+01  0.31886081674E+02  0.00000000000E+00 0. -1.
         11    1    3    3    0    0  0.10579754918E+02 -0.13842058985E+02  0.54283873808E+01  0.18248320495E+02  0.51100000000E-03 0. -1.
        -11    1    3    3    0    0 -0.38450460724E+01  0.11031812307E+02 -0.87271758198E+00  0.11715242136E+02  0.51100000000E-03 0.  1.
        -12    1    3    3    0    0 -0.70884684037E+01 -0.28401893104E+02  0.19558115165E+01  0.29338355695E+02  0.00000000000E+00 0.  1.
</event>
<event>
 7    1  0.7457761E-012  0.5930194E+02  0.7816164E-02  0.1266605E+00
        -11   -1    0    0    0    0  0.00000000000E+00  0.00000000000E+00  0.45593999997E+02  0.45594000000E+02  0.51100000000E-03 0. -1.
         11   -1    0    0    0    0 -0.00000000000E+00 -0.00000000000E+00 -0.45593999997E+02  0.45594000000E+02  0.51100000000E-03 0.  1.
    9900012    2    1    2    0    0  0.26849809703E+02  0.81022786565E+01 -0.15171079099E+02  0.59301939698E+02  0.49999992104E+02 0.  0.
         12    1    1    2    0    0 -0.26849809703E+02 -0.81022786565E+01  0.15171079099E+02  0.31886060302E+02  0.00000000000E+00 0. -1.
         11    1    3    3    0    0  0.28296749599E+01 -0.65736881683E+01  0.31579366367E+01  0.78225955140E+01  0.51100000000E-03 0. -1.
        -11    1    3    3    0    0  0.82134999893E+01  0.26898090989E+02 -0.10872001601E+02  0.30152434395E+02  0.51100000000E-03 0.  1.
        -12    1    3    3    0    0  0.15806634754E+02 -0.12222124164E+02 -0.74570141352E+01  0.21326909789E+02  0.00000000000E+00 0.  1.
</event>
<event>
 7    1  0.7457761E-012  0.5930206E+02  0.7816164E-02  0.1266604E+00
        -11   -1    0    0    0    0  0.00000000000E+00  0.00000000000E+00  0.45593999997E+02  0.45594000000E+02  0.51100000000E-03 0.  1.
         11   -1    0    0    0    0 -0.00000000000E+00 -0.00000000000E+00 -0.45593999997E+02  0.45594000000E+02  0.51100000000E-03 0. -1.
    9900012    2    1    2    0    0 -0.31960071900E+01 -0.27523697722E+02  0.15777986254E+02  0.59302058765E+02  0.50000209252E+02 0.  0.
         12    1    1    2    0    0  0.31960071900E+01  0.27523697722E+02 -0.15777986254E+02  0.31885941235E+02  0.00000000000E+00 0. -1.
         11    1    3    3    0    0 -0.20800281397E+01 -0.28213523201E+01 -0.96828709471E+01  0.10297792774E+02  0.51100000000E-03 0. -1.
        -11    1    3    3    0    0  0.16272179181E+02 -0.12609147464E+02  0.14284012669E+02  0.25056085753E+02  0.51100000000E-03 0.  1.
        -12    1    3    3    0    0 -0.17388158231E+02 -0.12093197938E+02  0.11176844531E+02  0.23948180238E+02  0.00000000000E+00 0.  1.
</event>
<event>
 7    1  0.7457761E-012  0.5930194E+02  0.7816164E-02  0.1266605E+00
        -11   -1    0    0    0    0  0.00000000000E+00  0.00000000000E+00  0.45593999997E+02  0.45594000000E+02  0.51100000000E-03 0.  1.
         11   -1    0    0    0    0 -0.00000000000E+00 -0.00000000000E+00 -0.45593999997E+02  0.45594000000E+02  0.51100000000E-03 0. -1.
    9900012    2    1    2    0    0  0.10449061861E+02 -0.19105510594E+02  0.23292001328E+02  0.59301941061E+02  0.49999994589E+02 0.  0.
         12    1    1    2    0    0 -0.10449061861E+02  0.19105510594E+02 -0.23292001328E+02  0.31886058939E+02  0.00000000000E+00 0. -1.
         11    1    3    3    0    0  0.93363230783E+01  0.99486570057E+01  0.15240828149E+02  0.20455452764E+02  0.51100000000E-03 0. -1.
        -11    1    3    3    0    0 -0.66055500697E+01 -0.23124675602E+02 -0.28669878768E+01  0.24219899529E+02  0.51100000000E-03 0.  1.
        -12    1    3    3    0    0  0.77182888524E+01 -0.59294919968E+01  0.10918161056E+02  0.14626588768E+02  0.00000000000E+00 0.  1.
</event>
<event>
 7    1  0.7457761E-012  0.5930194E+02  0.7816164E-02  0.1266605E+00
        -11   -1    0    0    0    0  0.00000000000E+00  0.00000000000E+00  0.45593999997E+02  0.45594000000E+02  0.51100000000E-03 0. -1.
         11   -1    0    0    0    0 -0.00000000000E+00 -0.00000000000E+00 -0.45593999997E+02  0.45594000000E+02  0.51100000000E-03 0.  1.
    9900012    2    1    2    0    0 -0.71257557468E+01 -0.30221790655E+02 -0.72517607495E+01  0.59301936283E+02  0.49999985876E+02 0.  0.
         12    1    1    2    0    0  0.71257557468E+01  0.30221790655E+02  0.72517607495E+01  0.31886063717E+02  0.00000000000E+00 0. -1.
         11    1    3    3    0    0 -0.73731183598E+01 -0.58755069123E+01  0.19105820787E+02  0.21305324312E+02  0.51100000000E-03 0. -1.
        -11    1    3    3    0    0 -0.34540054210E+00 -0.52887663563E+01 -0.14752831213E+02  0.15675980995E+02  0.51100000000E-03 0.  1.
         12    1    3    3    0    0  0.59276315506E+00 -0.19057517387E+02 -0.11604750323E+02  0.22320630976E+02  0.00000000000E+00 0. -1.
</event>
<event>
 7    1  0.7457761E-012  0.5930196E+02  0.7816164E-02  0.1266605E+00
        -11   -1    0    0    0    0  0.00000000000E+00  0.00000000000E+00  0.45593999997E+02  0.45594000000E+02  0.51100000000E-03 0.  1.
         11   -1    0    0    0    0 -0.00000000000E+00 -0.00000000000E+00 -0.45593999997E+02  0.45594000000E+02  0.51100000000E-03 0. -1.
    9900012    2    1    2    0    0 -0.14792128573E+02  0.17822106736E+02  0.21915399870E+02  0.59301963751E+02  0.50000035970E+02 0.  0.
         12    1    1    2    0    0  0.14792128573E+02 -0.17822106736E+02 -0.21915399870E+02  0.31886036249E+02  0.00000000000E+00 0. -1.
         11    1    3    3    0    0 -0.81881757667E+01  0.23383508604E+02  0.13546263003E+02  0.28237137579E+02  0.51100000000E-03 0. -1.
        -11    1    3    3    0    0 -0.15007939044E+02 -0.11163577140E+02  0.13261002671E+01  0.18751592762E+02  0.51100000000E-03 0.  1.
        -12    1    3    3    0    0  0.84039862385E+01  0.56021752716E+01  0.70430366000E+01  0.12313233410E+02  0.00000000000E+00 0.  1.
</event>
<event>
 7    1  0.7457761E-012  0.5930191E+02  0.7816164E-02  0.1266605E+00
        -11   -1    0    0    0    0  0.00000000000E+00  0.00000000000E+00  0.45593999997E+02  0.45594000000E+02  0.51100000000E-03 0. -1.
         11   -1    0    0    0    0 -0.00000000000E+00 -0.00000000000E+00 -0.45593999997E+02  0.45594000000E+02  0.51100000000E-03 0.  1.
    9900012    2    1    2    0    0  0.28761706270E+02 -0.52539401278E+01 -0.12723324390E+02  0.59301911843E+02  0.49999941303E+02 0.  0.
         12    1    1    2    0    0 -0.28761706270E+02  0.52539401278E+01  0.12723324390E+02  0.31886088157E+02  0.00000000000E+00 0. -1.
         11    1    3    3    0    0 -0.71498009936E+01  0.11242093766E+02 -0.51611250088E+01  0.14287810823E+02  0.51100000000E-03 0. -1.
        -11    1    3    3    0    0  0.15416067059E+02 -0.17957577299E+02 -0.59496090858E+01  0.24403433253E+02  0.51100000000E-03 0.  1.
         12    1    3    3    0    0  0.20495440205E+02  0.14615434052E+01 -0.16125902952E+01  0.20610667767E+02  0.00000000000E+00 0. -1.
</event>
<event>
 7    1  0.7457761E-012  0.5930195E+02  0.7816164E-02  0.1266605E+00
        -11   -1    0    0    0    0  0.00000000000E+00  0.00000000000E+00  0.45593999997E+02  0.45594000000E+02  0.51100000000E-03 0.  1.
         11   -1    0    0    0    0 -0.00000000000E+00 -0.00000000000E+00 -0.45593999997E+02  0.45594000000E+02  0.51100000000E-03 0. -1.
    9900012    2    1    2    0    0  0.39218062456E+01  0.77800965403E+01  0.30672625499E+02  0.59301946287E+02  0.50000004120E+02 0.  0.
         12    1    1    2    0    0 -0.39218062456E+01 -0.77800965403E+01 -0.30672625499E+02  0.31886053713E+02  0.00000000000E+00 0. -1.
         11    1    3    3    0    0  0.89159344125E+01 -0.52750789546E+01 -0.58346387630E+01  0.11889632214E+02  0.51100000000E-03 0. -1.
        -11    1    3    3    0    0 -0.60150021724E+01  0.21077941626E+02  0.23856997982E+02  0.32397781210E+02  0.51100000000E-03 0.  1.
        -12    1    3    3    0    0  0.10208740055E+01 -0.80227661315E+01  0.12650266280E+02  0.15014532863E+02  0.00000000000E+00 0.  1.
</event>
<event>
 7    1  0.7457761E-012  0.5930192E+02  0.7816164E-02  0.1266605E+00
        -11   -1    0    0    0    0  0.00000000000E+00  0.00000000000E+00  0.45593999997E+02  0.45594000000E+02  0.51100000000E-03 0. -1.
         11   -1    0    0    0    0 -0.00000000000E+00 -0.00000000000E+00 -0.45593999997E+02  0.45594000000E+02  0.51100000000E-03 0.  1.
    9900012    2    1    2    0    0  0.14928311033E+02  0.28154980067E+02  0.10790779905E+01  0.59301924949E+02  0.49999965205E+02 0.  0.
         12    1    1    2    0    0 -0.14928311033E+02 -0.28154980067E+02 -0.10790779905E+01  0.31886075051E+02  0.00000000000E+00 0. -1.
         11    1    3    3    0    0 -0.10013023885E+02  0.34647591104E+01 -0.44106982269E+01  0.11476909955E+02  0.51100000000E-03 0.  1.
        -11    1    3    3    0    0  0.17862846799E+02 -0.36887176710E+01  0.27965331053E+01  0.18452873258E+02  0.51100000000E-03 0. -1.
        -12    1    3    3    0    0  0.70784881187E+01  0.28378938627E+02  0.26932431120E+01  0.29372141735E+02  0.00000000000E+00 0.  1.
</event>
<event>
 7    1  0.7457761E-012  0.5930201E+02  0.7816164E-02  0.1266605E+00
        -11   -1    0    0    0    0  0.00000000000E+00  0.00000000000E+00  0.45593999997E+02  0.45594000000E+02  0.51100000000E-03 0. -1.
         11   -1    0    0    0    0 -0.00000000000E+00 -0.00000000000E+00 -0.45593999997E+02  0.45594000000E+02  0.51100000000E-03 0.  1.
    9900012    2    1    2    0    0  0.17376174730E+02 -0.30428268353E+01 -0.26561743448E+02  0.59302008431E+02  0.50000117455E+02 0.  0.
         12    1    1    2    0    0 -0.17376174730E+02  0.30428268353E+01  0.26561743448E+02  0.31885991569E+02  0.00000000000E+00 0. -1.
         11    1    3    3    0    0  0.22261381094E+01  0.99488553274E+01 -0.15118376170E+02  0.18234602038E+02  0.51100000000E-03 0. -1.
        -11    1    3    3    0    0  0.37127042721E+01 -0.19420190284E+02 -0.17695168280E+02  0.26533882950E+02  0.51100000000E-03 0.  1.
        -12    1    3    3    0    0  0.11437332348E+02  0.64285081210E+01  0.62518010021E+01  0.14533523443E+02  0.00000000000E+00 0.  1.
</event>
<event>
 7    1  0.7457761E-012  0.5930211E+02  0.7816164E-02  0.1266604E+00
        -11   -1    0    0    0    0  0.00000000000E+00  0.00000000000E+00  0.45593999997E+02  0.45594000000E+02  0.51100000000E-03 0. -1.
         11   -1    0    0    0    0 -0.00000000000E+00 -0.00000000000E+00 -0.45593999997E+02  0.45594000000E+02  0.51100000000E-03 0.  1.
    9900012    2    1    2    0    0 -0.10643823808E+02  0.26904602797E+02 -0.13400046397E+02  0.59302111580E+02  0.50000305573E+02 0.  0.
         12    1    1    2    0    0  0.10643823808E+02 -0.26904602797E+02  0.13400046397E+02  0.31885888420E+02  0.00000000000E+00 0. -1.
         11    1    3    3    0    0  0.18654739101E+02  0.86642853845E+01  0.93460145043E+00  0.20589866738E+02  0.51100000000E-03 0. -1.
        -11    1    3    3    0    0 -0.15738194996E+01  0.49881010579E+01 -0.19942417463E+01  0.55977728058E+01  0.51100000000E-03 0.  1.
         12    1    3    3    0    0 -0.27724743410E+02  0.13252216354E+02 -0.12340406101E+02  0.33114472036E+02  0.00000000000E+00 0. -1.
</event>
<event>
 7    1  0.7457761E-012  0.5930196E+02  0.7816164E-02  0.1266605E+00
        -11   -1    0    0    0    0  0.00000000000E+00  0.00000000000E+00  0.45593999997E+02  0.45594000000E+02  0.51100000000E-03 0.  1.
         11   -1    0    0    0    0 -0.00000000000E+00 -0.00000000000E+00 -0.45593999997E+02  0.45594000000E+02  0.51100000000E-03 0. -1.
    9900012    2    1    2    0    0 -0.25578001309E+02 -0.18801585463E+02 -0.29976368667E+01  0.59301959266E+02  0.50000027792E+02 0.  0.
         12    1    1    2    0    0  0.25578001309E+02  0.18801585463E+02  0.29976368667E+01  0.31886040734E+02  0.00000000000E+00 0. -1.
         11    1    3    3    0    0  0.91316206023E+01  0.52572573602E+00 -0.10605868631E+02  0.14005260871E+02  0.51100000000E-03 0. -1.
        -11    1    3    3    0    0 -0.20851538427E+02 -0.14823890151E+01 -0.14503951361E+01  0.20954421450E+02  0.51100000000E-03 0.  1.
        -12    1    3    3    0    0 -0.13858083484E+02 -0.17844922184E+02  0.90586269004E+01  0.24342276946E+02  0.00000000000E+00 0.  1.
</event>
<event>
 7    1  0.7457761E-012  0.5930194E+02  0.7816164E-02  0.1266605E+00
        -11   -1    0    0    0    0  0.00000000000E+00  0.00000000000E+00  0.45593999997E+02  0.45594000000E+02  0.51100000000E-03 0.  1.
         11   -1    0    0    0    0 -0.00000000000E+00 -0.00000000000E+00 -0.45593999997E+02  0.45594000000E+02  0.51100000000E-03 0. -1.
    9900012    2    1    2    0    0  0.31096049576E+02 -0.16202782602E+01  0.68651990969E+01  0.59301944121E+02  0.50000000171E+02 0.  0.
         12    1    1    2    0    0 -0.31096049576E+02  0.16202782602E+01 -0.68651990969E+01  0.31886055879E+02  0.00000000000E+00 0. -1.
         11    1    3    3    0    0  0.31706936906E+02 -0.39967528004E+01  0.15048217429E+02  0.35323543550E+02  0.51100000000E-03 0.  1.
        -11    1    3    3    0    0 -0.11318301667E+02  0.19078504952E+01 -0.63106890416E+01  0.13098421377E+02  0.51100000000E-03 0. -1.
         12    1    3    3    0    0  0.10707414337E+02  0.46862404507E+00 -0.18723292904E+01  0.10879979194E+02  0.00000000000E+00 0. -1.
</event>
<event>
 7    1  0.7457761E-012  0.5930195E+02  0.7816164E-02  0.1266605E+00
        -11   -1    0    0    0    0  0.00000000000E+00  0.00000000000E+00  0.45593999997E+02  0.45594000000E+02  0.51100000000E-03 0.  1.
         11   -1    0    0    0    0 -0.00000000000E+00 -0.00000000000E+00 -0.45593999997E+02  0.45594000000E+02  0.51100000000E-03 0. -1.
    9900012    2    1    2    0    0 -0.75194063316E+01  0.28589969481E+02  0.11949586428E+02  0.59301945959E+02  0.50000003522E+02 0.  0.
         12    1    1    2    0    0  0.75194063316E+01 -0.28589969481E+02 -0.11949586428E+02  0.31886054041E+02  0.00000000000E+00 0. -1.
         11    1    3    3    0    0  0.41638469587E+01  0.38097273090E+01 -0.15530266544E+02  0.16523946951E+02  0.51100000000E-03 0. -1.
        -11    1    3    3    0    0 -0.59102992638E+01  0.18564526771E+02  0.28187742803E+02  0.34265465650E+02  0.51100000000E-03 0.  1.
         12    1    3    3    0    0 -0.57729540265E+01  0.62157154016E+01 -0.70788983209E+00  0.85125333574E+01  0.00000000000E+00 0. -1.
</event>
<event>
 7    1  0.7457761E-012  0.5930197E+02  0.7816164E-02  0.1266605E+00
        -11   -1    0    0    0    0  0.00000000000E+00  0.00000000000E+00  0.45593999997E+02  0.45594000000E+02  0.51100000000E-03 0.  1.
         11   -1    0    0    0    0 -0.00000000000E+00 -0.00000000000E+00 -0.45593999997E+02  0.45594000000E+02  0.51100000000E-03 0. -1.
    9900012    2    1    2    0    0 -0.19883951858E+02 -0.18307920330E+02  0.16916480990E+02  0.59301971439E+02  0.50000049992E+02 0.  0.
         12    1    1    2    0    0  0.19883951858E+02  0.18307920330E+02 -0.16916480990E+02  0.31886028561E+02  0.00000000000E+00 0. -1.
         11    1    3    3    0    0 -0.29984289071E+00 -0.56751173061E+00 -0.11444866634E+02  0.11462850773E+02  0.51100000000E-03 0. -1.
        -11    1    3    3    0    0  0.44118028882E+00 -0.74098568114E+00  0.20362185722E+02  0.20380439334E+02  0.51100000000E-03 0.  1.
         12    1    3    3    0    0 -0.20025289256E+02 -0.16999422918E+02  0.79991619020E+01  0.27458681332E+02  0.00000000000E+00 0. -1.
</event>
<event>
 7    1  0.7457761E-012  0.5930194E+02  0.7816164E-02  0.1266605E+00
        -11   -1    0    0    0    0  0.00000000000E+00  0.00000000000E+00  0.45593999997E+02  0.45594000000E+02  0.51100000000E-03 0.  1.
         11   -1    0    0    0    0 -0.00000000000E+00 -0.00000000000E+00 -0.45593999997E+02  0.45594000000E+02  0.51100000000E-03 0. -1.
    9900012    2    1    2    0    0  0.78585851562E+01  0.19309484465E+02  0.24126900715E+02  0.59301938954E+02  0.49999990746E+02 0.  0.
         12    1    1    2    0    0 -0.78585851562E+01 -0.19309484465E+02 -0.24126900715E+02  0.31886061046E+02  0.00000000000E+00 0. -1.
         11    1    3    3    0    0 -0.10720776687E+02 -0.27881716205E+01 -0.63115327757E+00  0.11095373291E+02  0.51100000000E-03 0. -1.
        -11    1    3    3    0    0  0.26651902092E+02  0.16778816568E+02  0.16857165907E+02  0.35721374739E+02  0.51100000000E-03 0.  1.
         12    1    3    3    0    0 -0.80725402488E+01  0.53188395169E+01  0.79008880851E+01  0.12485190924E+02  0.00000000000E+00 0. -1.
</event>
<event>
 7    1  0.7457761E-012  0.5930188E+02  0.7816164E-02  0.1266605E+00
        -11   -1    0    0    0    0  0.00000000000E+00  0.00000000000E+00  0.45593999997E+02  0.45594000000E+02  0.51100000000E-03 0. -1.
         11   -1    0    0    0    0 -0.00000000000E+00 -0.00000000000E+00 -0.45593999997E+02  0.45594000000E+02  0.51100000000E-03 0.  1.
    9900012    2    1    2    0    0 -0.29877198472E+02 -0.33194731660E+01  0.10632915216E+02  0.59301877993E+02  0.49999879569E+02 0.  0.
         12    1    1    2    0    0  0.29877198472E+02  0.33194731660E+01 -0.10632915216E+02  0.31886122007E+02  0.00000000000E+00 0. -1.
         11    1    3    3    0    0 -0.68470239786E+01 -0.14773211081E+02  0.22869600761E+01  0.16442618090E+02  0.51100000000E-03 0. -1.
        -11    1    3    3    0    0 -0.25737633203E+02  0.17024763313E+02  0.14528328656E+02  0.34107780088E+02  0.51100000000E-03 0.  1.
         12    1    3    3    0    0  0.27074587090E+01 -0.55710253980E+01 -0.61823735169E+01  0.87514798147E+01  0.00000000000E+00 0. -1.
</event>
<event>
 7    1  0.7457761E-012  0.5930192E+02  0.7816164E-02  0.1266605E+00
        -11   -1    0    0    0    0  0.00000000000E+00  0.00000000000E+00  0.45593999997E+02  0.45594000000E+02  0.51100000000E-03 0. -1.
         11   -1    0    0    0    0 -0.00000000000E+00 -0.00000000000E+00 -0.45593999997E+02  0.45594000000E+02  0.51100000000E-03 0.  1.
    9900012    2    1    2    0    0  0.53066618311E+01 -0.28981111873E+02 -0.12192487530E+02  0.59301917497E+02  0.49999951615E+02 0.  0.
         12    1    1    2    0    0 -0.53066618311E+01  0.28981111873E+02  0.12192487530E+02  0.31886082503E+02  0.00000000000E+00 0. -1.
         11    1    3    3    0    0  0.13349888652E+02  0.75275184070E+01  0.38614709633E+01  0.15804873257E+02  0.51100000000E-03 0. -1.
        -11    1    3    3    0    0 -0.31261571245E+01 -0.32109267337E+02 -0.17558485884E+02  0.36729801716E+02  0.51100000000E-03 0.  1.
        -12    1    3    3    0    0 -0.49170696969E+01 -0.43993629430E+01  0.15045273911E+01  0.67672425240E+01  0.00000000000E+00 0.  1.
</event>
<event>
 7    1  0.7457761E-012  0.5930191E+02  0.7816164E-02  0.1266605E+00
        -11   -1    0    0    0    0  0.00000000000E+00  0.00000000000E+00  0.45593999997E+02  0.45594000000E+02  0.51100000000E-03 0.  1.
         11   -1    0    0    0    0 -0.00000000000E+00 -0.00000000000E+00 -0.45593999997E+02  0.45594000000E+02  0.51100000000E-03 0. -1.
    9900012    2    1    2    0    0  0.90956086195E+01  0.12863309801E+02  0.27722334137E+02  0.59301911416E+02  0.49999940523E+02 0.  0.
         12    1    1    2    0    0 -0.90956086195E+01 -0.12863309801E+02 -0.27722334137E+02  0.31886088584E+02  0.00000000000E+00 0. -1.
         11    1    3    3    0    0  0.15965680863E+02  0.34756894561E+01  0.84785733310E+01  0.18408410811E+02  0.51100000000E-03 0. -1.
        -11    1    3    3    0    0 -0.33947914675E+01  0.21513390350E+02  0.59717690013E+01  0.22583458520E+02  0.51100000000E-03 0.  1.
        -12    1    3    3    0    0 -0.34752807758E+01 -0.12125770005E+02  0.13271991805E+02  0.18310042084E+02  0.00000000000E+00 0.  1.
</event>
<event>
 7    1  0.7457761E-012  0.5930197E+02  0.7816164E-02  0.1266605E+00
        -11   -1    0    0    0    0  0.00000000000E+00  0.00000000000E+00  0.45593999997E+02  0.45594000000E+02  0.51100000000E-03 0. -1.
         11   -1    0    0    0    0 -0.00000000000E+00 -0.00000000000E+00 -0.45593999997E+02  0.45594000000E+02  0.51100000000E-03 0.  1.
    9900012    2    1    2    0    0 -0.18576488061E+02 -0.40895252907E+01  0.25591183089E+02  0.59301972062E+02  0.50000051128E+02 0.  0.
         12    1    1    2    0    0  0.18576488061E+02  0.40895252907E+01 -0.25591183089E+02  0.31886027938E+02  0.00000000000E+00 0. -1.
         11    1    3    3    0    0  0.30823604474E+01  0.87347000933E+01  0.20622839162E+02  0.22607463967E+02  0.51100000000E-03 0. -1.
        -11    1    3    3    0    0 -0.24941615922E+02 -0.67607757946E+01 -0.31616393647E+01  0.26034366861E+02  0.51100000000E-03 0.  1.
         12    1    3    3    0    0  0.32827674129E+01 -0.60634495893E+01  0.81299832916E+01  0.10660141234E+02  0.00000000000E+00 0. -1.
</event>
<event>
 7    1  0.7457761E-012  0.5930193E+02  0.7816164E-02  0.1266605E+00
        -11   -1    0    0    0    0  0.00000000000E+00  0.00000000000E+00  0.45593999997E+02  0.45594000000E+02  0.51100000000E-03 0. -1.
         11   -1    0    0    0    0 -0.00000000000E+00 -0.00000000000E+00 -0.45593999997E+02  0.45594000000E+02  0.51100000000E-03 0.  1.
    9900012    2    1    2    0    0  0.12448206934E+02 -0.29212245155E+02  0.28996589173E+01  0.59301934944E+02  0.49999983434E+02 0.  0.
         12    1    1    2    0    0 -0.12448206934E+02  0.29212245155E+02 -0.28996589173E+01  0.31886065056E+02  0.00000000000E+00 0. -1.
         11    1    3    3    0    0 -0.38380389695E+01 -0.70765676425E+01  0.20791683927E+02  0.22295794974E+02  0.51100000000E-03 0. -1.
        -11    1    3    3    0    0  0.15136222638E+02 -0.82236265877E+01 -0.48343158572E+01  0.17891447120E+02  0.51100000000E-03 0.  1.
         12    1    3    3    0    0  0.11500232659E+01 -0.13912050925E+02 -0.13057709152E+02  0.19114692850E+02  0.00000000000E+00 0. -1.
</event>
<event>
 7    1  0.7457761E-012  0.5930192E+02  0.7816164E-02  0.1266605E+00
        -11   -1    0    0    0    0  0.00000000000E+00  0.00000000000E+00  0.45593999997E+02  0.45594000000E+02  0.51100000000E-03 0.  1.
         11   -1    0    0    0    0 -0.00000000000E+00 -0.00000000000E+00 -0.45593999997E+02  0.45594000000E+02  0.51100000000E-03 0. -1.
    9900012    2    1    2    0    0  0.19931965173E+02 -0.51200233569E+01  0.24356194411E+02  0.59301920263E+02  0.49999956658E+02 0.  0.
         12    1    1    2    0    0 -0.19931965173E+02  0.51200233569E+01 -0.24356194411E+02  0.31886079737E+02  0.00000000000E+00 0. -1.
         11    1    3    3    0    0 -0.78274900660E+01 -0.13509781323E+02  0.44807100034E+01  0.16243785105E+02  0.51100000000E-03 0. -1.
        -11    1    3    3    0    0  0.14279365118E+02  0.99706195602E+01 -0.17739723881E+01  0.17506013278E+02  0.51100000000E-03 0.  1.
        -12    1    3    3    0    0  0.13480090121E+02 -0.15808615941E+01  0.21649456796E+02  0.25552121880E+02  0.00000000000E+00 0.  1.
</event>
<event>
 7    1  0.7457761E-012  0.5930188E+02  0.7816164E-02  0.1266605E+00
        -11   -1    0    0    0    0  0.00000000000E+00  0.00000000000E+00  0.45593999997E+02  0.45594000000E+02  0.51100000000E-03 0.  1.
         11   -1    0    0    0    0 -0.00000000000E+00 -0.00000000000E+00 -0.45593999997E+02  0.45594000000E+02  0.51100000000E-03 0. -1.
    9900012    2    1    2    0    0  0.16099256487E+02  0.27522988619E+02  0.15299216108E+00  0.59301884392E+02  0.49999891239E+02 0.  0.
         12    1    1    2    0    0 -0.16099256487E+02 -0.27522988619E+02 -0.15299216108E+00  0.31886115608E+02  0.00000000000E+00 0. -1.
         11    1    3    3    0    0  0.14773351865E+01 -0.53426662085E+01  0.10839243612E+02  0.12174391311E+02  0.51100000000E-03 0.  1.
        -11    1    3    3    0    0  0.33176576609E+01  0.27485781256E+02 -0.17619689847E+02  0.32816588705E+02  0.51100000000E-03 0. -1.
         12    1    3    3    0    0  0.11304263639E+02  0.53798735712E+01  0.69334383966E+01  0.14310904376E+02  0.00000000000E+00 0. -1.
</event>
<event>
 7    1  0.7457761E-012  0.5930194E+02  0.7816164E-02  0.1266605E+00
        -11   -1    0    0    0    0  0.00000000000E+00  0.00000000000E+00  0.45593999997E+02  0.45594000000E+02  0.51100000000E-03 0.  1.
         11   -1    0    0    0    0 -0.00000000000E+00 -0.00000000000E+00 -0.45593999997E+02  0.45594000000E+02  0.51100000000E-03 0. -1.
    9900012    2    1    2    0    0  0.58633016097E+00 -0.30057009158E+02 -0.10627951519E+02  0.59301938216E+02  0.49999989401E+02 0.  0.
         12    1    1    2    0    0 -0.58633016097E+00  0.30057009158E+02  0.10627951519E+02  0.31886061784E+02  0.00000000000E+00 0. -1.
         11    1    3    3    0    0  0.18379720135E+01 -0.54024819557E+01 -0.54721888157E+01  0.79063141286E+01  0.51100000000E-03 0. -1.
        -11    1    3    3    0    0 -0.17289691561E+02 -0.29096434568E+02  0.40853195853E+00  0.33848232413E+02  0.51100000000E-03 0.  1.
        -12    1    3    3    0    0  0.16038049709E+02  0.44419073656E+01 -0.55642946618E+01  0.17547391675E+02  0.00000000000E+00 0.  1.
</event>
<event>
 7    1  0.7457761E-012  0.5930185E+02  0.7816164E-02  0.1266605E+00
        -11   -1    0    0    0    0  0.00000000000E+00  0.00000000000E+00  0.45593999997E+02  0.45594000000E+02  0.51100000000E-03 0.  1.
         11   -1    0    0    0    0 -0.00000000000E+00 -0.00000000000E+00 -0.45593999997E+02  0.45594000000E+02  0.51100000000E-03 0. -1.
    9900012    2    1    2    0    0  0.25909704848E+02 -0.91270503890E+00  0.18562880057E+02  0.59301853293E+02  0.49999834522E+02 0.  0.
         12    1    1    2    0    0 -0.25909704848E+02  0.91270503890E+00 -0.18562880057E+02  0.31886146707E+02  0.00000000000E+00 0. -1.
         11    1    3    3    0    0 -0.69581198017E+01 -0.67020243214E+01  0.16199065694E+02  0.18861131747E+02  0.51100000000E-03 0. -1.
        -11    1    3    3    0    0  0.25479173803E+02 -0.90187855844E+00  0.10500964674E+02  0.27573029249E+02  0.51100000000E-03 0.  1.
        -12    1    3    3    0    0  0.73886508467E+01  0.66911978409E+01 -0.81371503105E+01  0.12867692297E+02  0.00000000000E+00 0.  1.
</event>
<event>
 7    1  0.7457761E-012  0.5930194E+02  0.7816164E-02  0.1266605E+00
        -11   -1    0    0    0    0  0.00000000000E+00  0.00000000000E+00  0.45593999997E+02  0.45594000000E+02  0.51100000000E-03 0. -1.
         11   -1    0    0    0    0 -0.00000000000E+00 -0.00000000000E+00 -0.45593999997E+02  0.45594000000E+02  0.51100000000E-03 0.  1.
    9900012    2    1    2    0    0  0.81822156905E+01 -0.10356843677E+02 -0.29025988320E+02  0.59301939370E+02  0.49999991505E+02 0.  0.
         12    1    1    2    0    0 -0.81822156905E+01  0.10356843677E+02  0.29025988320E+02  0.31886060630E+02  0.00000000000E+00 0. -1.
         11    1    3    3    0    0 -0.88436031166E+01 -0.22067338003E+02 -0.41237791349E+01  0.24128453686E+02  0.51100000000E-03 0. -1.
        -11    1    3    3    0    0  0.12799185061E+02  0.77611135320E+01 -0.73166555436E+01  0.16660956458E+02  0.51100000000E-03 0.  1.
         12    1    3    3    0    0  0.42266337458E+01  0.39493807940E+01 -0.17585553641E+02  0.18512529226E+02  0.00000000000E+00 0. -1.
</event>
<event>
 7    1  0.7457761E-012  0.5930195E+02  0.7816164E-02  0.1266605E+00
        -11   -1    0    0    0    0  0.00000000000E+00  0.00000000000E+00  0.45593999997E+02  0.45594000000E+02  0.51100000000E-03 0.  1.
         11   -1    0    0    0    0 -0.00000000000E+00 -0.00000000000E+00 -0.45593999997E+02  0.45594000000E+02  0.51100000000E-03 0. -1.
    9900012    2    1    2    0    0 -0.37573069533E+01  0.92311112132E+01  0.30288437469E+02  0.59301949538E+02  0.50000010049E+02 0.  0.
         12    1    1    2    0    0  0.37573069533E+01 -0.92311112132E+01 -0.30288437469E+02  0.31886050462E+02  0.00000000000E+00 0. -1.
         11    1    3    3    0    0 -0.14076381915E+01  0.65635598708E+01 -0.12956957727E+02  0.14592618588E+02  0.51100000000E-03 0. -1.
        -11    1    3    3    0    0 -0.46487591451E+01 -0.27923778299E+01  0.20593588974E+02  0.21295639052E+02  0.51100000000E-03 0.  1.
         12    1    3    3    0    0  0.22990903833E+01  0.54599291724E+01  0.22651806222E+02  0.23413691898E+02  0.00000000000E+00 0. -1.
</event>
<event>
 7    1  0.7457761E-012  0.5930198E+02  0.7816164E-02  0.1266605E+00
        -11   -1    0    0    0    0  0.00000000000E+00  0.00000000000E+00  0.45593999997E+02  0.45594000000E+02  0.51100000000E-03 0.  1.
         11   -1    0    0    0    0 -0.00000000000E+00 -0.00000000000E+00 -0.45593999997E+02  0.45594000000E+02  0.51100000000E-03 0. -1.
    9900012    2    1    2    0    0 -0.43284665280E+01 -0.27680932184E+02  0.15223302732E+02  0.59301975238E+02  0.50000056920E+02 0.  0.
         12    1    1    2    0    0  0.43284665280E+01  0.27680932184E+02 -0.15223302732E+02  0.31886024762E+02  0.00000000000E+00 0. -1.
         11    1    3    3    0    0  0.16478327516E+01 -0.15790521611E+02 -0.44118856226E+01  0.16477883983E+02  0.51100000000E-03 0. -1.
        -11    1    3    3    0    0  0.61136933165E+00 -0.22394953402E+02  0.20536991552E+02  0.30392034032E+02  0.51100000000E-03 0.  1.
        -12    1    3    3    0    0 -0.65876686112E+01  0.10504542829E+02 -0.90180319787E+00  0.12432057223E+02  0.00000000000E+00 0.  1.
</event>
<event>
 7    1  0.7457761E-012  0.5930194E+02  0.7816164E-02  0.1266605E+00
        -11   -1    0    0    0    0  0.00000000000E+00  0.00000000000E+00  0.45593999997E+02  0.45594000000E+02  0.51100000000E-03 0.  1.
         11   -1    0    0    0    0 -0.00000000000E+00 -0.00000000000E+00 -0.45593999997E+02  0.45594000000E+02  0.51100000000E-03 0. -1.
    9900012    2    1    2    0    0  0.21064171252E+02 -0.21772348407E+02  0.99491832902E+01  0.59301941701E+02  0.49999995757E+02 0.  0.
         12    1    1    2    0    0 -0.21064171252E+02  0.21772348407E+02 -0.99491832902E+01  0.31886058299E+02  0.00000000000E+00 0. -1.
         11    1    3    3    0    0 -0.87462091465E+01  0.10332603828E+02  0.29310006630E+00  0.13540486853E+02  0.51100000000E-03 0. -1.
        -11    1    3    3    0    0  0.16917783046E+02 -0.11943102173E+02  0.59347973698E+01  0.21542304723E+02  0.51100000000E-03 0.  1.
         12    1    3    3    0    0  0.12892597353E+02 -0.20161850061E+02  0.37212858540E+01  0.24219150126E+02  0.00000000000E+00 0. -1.
</event>
<event>
 7    1  0.7457761E-012  0.5930192E+02  0.7816164E-02  0.1266605E+00
        -11   -1    0    0    0    0  0.00000000000E+00  0.00000000000E+00  0.45593999997E+02  0.45594000000E+02  0.51100000000E-03 0.  1.
         11   -1    0    0    0    0 -0.00000000000E+00 -0.00000000000E+00 -0.45593999997E+02  0.45594000000E+02  0.51100000000E-03 0. -1.
    9900012    2    1    2    0    0 -0.13253324728E+02  0.23959223165E+02  0.16340962586E+02  0.59301920761E+02  0.49999957567E+02 0.  0.
         12    1    1    2    0    0  0.13253324728E+02 -0.23959223165E+02 -0.16340962586E+02  0.31886079239E+02  0.00000000000E+00 0. -1.
         11    1    3    3    0    0  0.16642985204E+01  0.10110725607E+02 -0.78112179330E+01  0.12884556171E+02  0.51100000000E-03 0. -1.
        -11    1    3    3    0    0 -0.11288054709E+02  0.10848359564E+02  0.32926640164E+02  0.36459165063E+02  0.51100000000E-03 0.  1.
        -12    1    3    3    0    0 -0.36295685392E+01  0.30001379938E+01 -0.87744596452E+01  0.99581995274E+01  0.00000000000E+00 0.  1.
</event>
<event>
 7    1  0.7457761E-012  0.5930195E+02  0.7816164E-02  0.1266605E+00
        -11   -1    0    0    0    0  0.00000000000E+00  0.00000000000E+00  0.45593999997E+02  0.45594000000E+02  0.51100000000E-03 0. -1.
         11   -1    0    0    0    0 -0.00000000000E+00 -0.00000000000E+00 -0.45593999997E+02  0.45594000000E+02  0.51100000000E-03 0.  1.
    9900012    2    1    2    0    0  0.10168554593E+02  0.12579318972E+02 -0.27478750452E+02  0.59301945137E+02  0.50000002023E+02 0.  0.
         12    1    1    2    0    0 -0.10168554593E+02 -0.12579318972E+02  0.27478750452E+02  0.31886054863E+02  0.00000000000E+00 0. -1.
         11    1    3    3    0    0 -0.16612439602E+02  0.37305902843E+01 -0.85668702071E+01  0.19059950651E+02  0.51100000000E-03 0.  1.
        -11    1    3    3    0    0  0.23832571917E+02 -0.20311197988E+01 -0.10234261053E+02  0.26016476152E+02  0.51100000000E-03 0. -1.
         12    1    3    3    0    0  0.29484222789E+01  0.10879848487E+02 -0.86776191920E+01  0.14225518334E+02  0.00000000000E+00 0. -1.
</event>
<event>
 7    1  0.7457761E-012  0.5930194E+02  0.7816164E-02  0.1266605E+00
        -11   -1    0    0    0    0  0.00000000000E+00  0.00000000000E+00  0.45593999997E+02  0.45594000000E+02  0.51100000000E-03 0. -1.
         11   -1    0    0    0    0 -0.00000000000E+00 -0.00000000000E+00 -0.45593999997E+02  0.45594000000E+02  0.51100000000E-03 0.  1.
    9900012    2    1    2    0    0  0.23369717108E+01  0.89200154456E+01 -0.30523636811E+02  0.59301944795E+02  0.50000001400E+02 0.  0.
         12    1    1    2    0    0 -0.23369717108E+01 -0.89200154456E+01  0.30523636811E+02  0.31886055205E+02  0.00000000000E+00 0. -1.
         11    1    3    3    0    0  0.74135277244E+01 -0.68908476302E+00 -0.28220548514E+02  0.29186205471E+02  0.51100000000E-03 0.  1.
        -11    1    3    3    0    0 -0.11228413702E+02  0.16972019429E+02 -0.51980136178E+00  0.20356741180E+02  0.51100000000E-03 0. -1.
         12    1    3    3    0    0  0.61518576886E+01 -0.73629192206E+01 -0.17832869356E+01  0.97589981435E+01  0.00000000000E+00 0. -1.
</event>
<event>
 7    1  0.7457761E-012  0.5930193E+02  0.7816164E-02  0.1266605E+00
        -11   -1    0    0    0    0  0.00000000000E+00  0.00000000000E+00  0.45593999997E+02  0.45594000000E+02  0.51100000000E-03 0. -1.
         11   -1    0    0    0    0 -0.00000000000E+00 -0.00000000000E+00 -0.45593999997E+02  0.45594000000E+02  0.51100000000E-03 0.  1.
    9900012    2    1    2    0    0 -0.58642535331E+01 -0.29192588670E+02 -0.11407216289E+02  0.59301932725E+02  0.49999979387E+02 0.  0.
         12    1    1    2    0    0  0.58642535331E+01  0.29192588670E+02  0.11407216289E+02  0.31886067275E+02  0.00000000000E+00 0. -1.
         11    1    3    3    0    0 -0.20097820576E+02 -0.15795058657E+02 -0.23456224789E+02  0.34692949593E+02  0.51100000000E-03 0.  1.
        -11    1    3    3    0    0  0.98707248428E+01 -0.33752463619E+01  0.47293339016E+01  0.11453824529E+02  0.51100000000E-03 0. -1.
        -12    1    3    3    0    0  0.43628422004E+01 -0.10022283651E+02  0.73196745978E+01  0.13155158603E+02  0.00000000000E+00 0.  1.
</event>
<event>
 7    1  0.7457761E-012  0.5930194E+02  0.7816164E-02  0.1266605E+00
        -11   -1    0    0    0    0  0.00000000000E+00  0.00000000000E+00  0.45593999997E+02  0.45594000000E+02  0.51100000000E-03 0.  1.
         11   -1    0    0    0    0 -0.00000000000E+00 -0.00000000000E+00 -0.45593999997E+02  0.45594000000E+02  0.51100000000E-03 0. -1.
    9900012    2    1    2    0    0  0.34124710783E+01 -0.55917250431E+01  0.31205909101E+02  0.59301935479E+02  0.49999984409E+02 0.  0.
         12    1    1    2    0    0 -0.34124710783E+01  0.55917250431E+01 -0.31205909101E+02  0.31886064521E+02  0.00000000000E+00 0. -1.
         11    1    3    3    0    0 -0.95895524463E+01 -0.35499814759E+01  0.26652200941E+02  0.28546483143E+02  0.51100000000E-03 0. -1.
        -11    1    3    3    0    0  0.20026299295E+02  0.26930788610E+01  0.78331810029E+01  0.21671734173E+02  0.51100000000E-03 0.  1.
        -12    1    3    3    0    0 -0.70242757701E+01 -0.47348224282E+01 -0.32794728425E+01  0.90837181620E+01  0.00000000000E+00 0.  1.
</event>
<event>
 7    1  0.7457761E-012  0.5930206E+02  0.7816164E-02  0.1266604E+00
        -11   -1    0    0    0    0  0.00000000000E+00  0.00000000000E+00  0.45593999997E+02  0.45594000000E+02  0.51100000000E-03 0. -1.
         11   -1    0    0    0    0 -0.00000000000E+00 -0.00000000000E+00 -0.45593999997E+02  0.45594000000E+02  0.51100000000E-03 0.  1.
    9900012    2    1    2    0    0 -0.17795223214E+02 -0.26365634398E+02 -0.22127417324E+01  0.59302064662E+02  0.50000220007E+02 0.  0.
         12    1    1    2    0    0  0.17795223214E+02  0.26365634398E+02  0.22127417324E+01  0.31885935338E+02  0.00000000000E+00 0. -1.
         11    1    3    3    0    0 -0.32063689428E+02 -0.24472469690E+02  0.43022319123E+01  0.40564653975E+02  0.51100000000E-03 0. -1.
        -11    1    3    3    0    0 -0.19975395348E+00 -0.45086800523E+00 -0.39405974218E+01  0.39713337687E+01  0.51100000000E-03 0.  1.
         12    1    3    3    0    0  0.14468220168E+02 -0.14422967027E+01 -0.25743762229E+01  0.14766076918E+02  0.00000000000E+00 0. -1.
</event>
<event>
 7    1  0.7457761E-012  0.5930196E+02  0.7816164E-02  0.1266605E+00
        -11   -1    0    0    0    0  0.00000000000E+00  0.00000000000E+00  0.45593999997E+02  0.45594000000E+02  0.51100000000E-03 0. -1.
         11   -1    0    0    0    0 -0.00000000000E+00 -0.00000000000E+00 -0.45593999997E+02  0.45594000000E+02  0.51100000000E-03 0.  1.
    9900012    2    1    2    0    0  0.12757632840E+02 -0.24889042704E+02 -0.15313317586E+02  0.59301963277E+02  0.50000035106E+02 0.  0.
         12    1    1    2    0    0 -0.12757632840E+02  0.24889042704E+02  0.15313317586E+02  0.31886036723E+02  0.00000000000E+00 0. -1.
         11    1    3    3    0    0  0.21527102683E+01  0.16890816884E+01  0.92555792055E+01  0.96515752673E+01  0.51100000000E-03 0. -1.
        -11    1    3    3    0    0 -0.58831918867E+01 -0.25809767998E+02 -0.12983671247E+02  0.29484433014E+02  0.51100000000E-03 0.  1.
         12    1    3    3    0    0  0.16488114459E+02 -0.76835639430E+00 -0.11585225545E+02  0.20165954995E+02  0.00000000000E+00 0. -1.
</event>
<event>
 7    1  0.7457761E-012  0.5930171E+02  0.7816164E-02  0.1266606E+00
        -11   -1    0    0    0    0  0.00000000000E+00  0.00000000000E+00  0.45593999997E+02  0.45594000000E+02  0.51100000000E-03 0. -1.
         11   -1    0    0    0    0 -0.00000000000E+00 -0.00000000000E+00 -0.45593999997E+02  0.45594000000E+02  0.51100000000E-03 0.  1.
    9900012    2    1    2    0    0 -0.33141107207E+01  0.26468944191E+02 -0.17468456349E+02  0.59301712921E+02  0.49999578515E+02 0.  0.
         12    1    1    2    0    0  0.33141107207E+01 -0.26468944191E+02  0.17468456349E+02  0.31886287079E+02  0.00000000000E+00 0. -1.
         11    1    3    3    0    0 -0.60821622769E+01  0.54510204490E+01 -0.21431234631E+02  0.22934780138E+02  0.51100000000E-03 0. -1.
        -11    1    3    3    0    0  0.10118686193E+01  0.28459164434E+02  0.25420271470E+01  0.28590379862E+02  0.51100000000E-03 0.  1.
        -12    1    3    3    0    0  0.17561829369E+01 -0.74412406924E+01  0.14207511345E+01  0.77765529212E+01  0.00000000000E+00 0.  1.
</event>
<event>
 7    1  0.7457761E-012  0.5930196E+02  0.7816164E-02  0.1266605E+00
        -11   -1    0    0    0    0  0.00000000000E+00  0.00000000000E+00  0.45593999997E+02  0.45594000000E+02  0.51100000000E-03 0.  1.
         11   -1    0    0    0    0 -0.00000000000E+00 -0.00000000000E+00 -0.45593999997E+02  0.45594000000E+02  0.51100000000E-03 0. -1.
    9900012    2    1    2    0    0 -0.25386576113E+02  0.18100044570E+02 -0.66805249124E+01  0.59301964291E+02  0.50000036954E+02 0.  0.
         12    1    1    2    0    0  0.25386576113E+02 -0.18100044570E+02  0.66805249124E+01  0.31886035709E+02  0.00000000000E+00 0. -1.
         11    1    3    3    0    0 -0.10200059556E+02 -0.10859030767E+02  0.12183609044E+02  0.19245781193E+02  0.51100000000E-03 0. -1.
        -11    1    3    3    0    0 -0.12352326732E+02  0.29897096525E+02 -0.17139653219E+02  0.36608524541E+02  0.51100000000E-03 0.  1.
         12    1    3    3    0    0 -0.28341898243E+01 -0.93802118830E+00 -0.17244807371E+01  0.34476585565E+01  0.00000000000E+00 0. -1.
</event>
<event>
 7    1  0.7457761E-012  0.5930196E+02  0.7816164E-02  0.1266605E+00
        -11   -1    0    0    0    0  0.00000000000E+00  0.00000000000E+00  0.45593999997E+02  0.45594000000E+02  0.51100000000E-03 0. -1.
         11   -1    0    0    0    0 -0.00000000000E+00 -0.00000000000E+00 -0.45593999997E+02  0.45594000000E+02  0.51100000000E-03 0.  1.
    9900012    2    1    2    0    0 -0.62135811699E+01  0.52693766417E+01 -0.30827663564E+02  0.59301956628E+02  0.50000022979E+02 0.  0.
         12    1    1    2    0    0  0.62135811699E+01 -0.52693766417E+01  0.30827663564E+02  0.31886043372E+02  0.00000000000E+00 0. -1.
         11    1    3    3    0    0 -0.27918052646E+01  0.98083135310E+01  0.73101340158E+01  0.12547320453E+02  0.51100000000E-03 0. -1.
        -11    1    3    3    0    0 -0.78849943615E+01  0.69558268811E+01 -0.30472294311E+02  0.32235343717E+02  0.51100000000E-03 0.  1.
         12    1    3    3    0    0  0.44632184562E+01 -0.11494763770E+02 -0.76655032684E+01  0.14519292458E+02  0.00000000000E+00 0. -1.
</event>
<event>
 7    1  0.7457761E-012  0.5930195E+02  0.7816164E-02  0.1266605E+00
        -11   -1    0    0    0    0  0.00000000000E+00  0.00000000000E+00  0.45593999997E+02  0.45594000000E+02  0.51100000000E-03 0. -1.
         11   -1    0    0    0    0 -0.00000000000E+00 -0.00000000000E+00 -0.45593999997E+02  0.45594000000E+02  0.51100000000E-03 0.  1.
    9900012    2    1    2    0    0 -0.13604615817E+02  0.21394850890E+02 -0.19336356925E+02  0.59301954223E+02  0.50000018595E+02 0.  0.
         12    1    1    2    0    0  0.13604615817E+02 -0.21394850890E+02  0.19336356925E+02  0.31886045777E+02  0.00000000000E+00 0. -1.
         11    1    3    3    0    0 -0.27984458743E+02  0.11380967398E+02 -0.36752699646E+01  0.30432942014E+02  0.51100000000E-03 0. -1.
        -11    1    3    3    0    0  0.69860101978E+01  0.80377744973E+01 -0.17958176574E+02  0.20878368315E+02  0.51100000000E-03 0.  1.
         12    1    3    3    0    0  0.73938327278E+01  0.19761089946E+01  0.22970896137E+01  0.79906438951E+01  0.00000000000E+00 0. -1.
</event>
<event>
 7    1  0.7457761E-012  0.5930195E+02  0.7816164E-02  0.1266605E+00
        -11   -1    0    0    0    0  0.00000000000E+00  0.00000000000E+00  0.45593999997E+02  0.45594000000E+02  0.51100000000E-03 0.  1.
         11   -1    0    0    0    0 -0.00000000000E+00 -0.00000000000E+00 -0.45593999997E+02  0.45594000000E+02  0.51100000000E-03 0. -1.
    9900012    2    1    2    0    0  0.25292020687E+02 -0.18374252669E+02  0.62786144761E+01  0.59301945504E+02  0.50000002693E+02 0.  0.
         12    1    1    2    0    0 -0.25292020687E+02  0.18374252669E+02 -0.62786144761E+01  0.31886054496E+02  0.00000000000E+00 0. -1.
         11    1    3    3    0    0  0.14210941333E+02 -0.26504339685E+02  0.11008143640E+02  0.32025147968E+02  0.51100000000E-03 0. -1.
        -11    1    3    3    0    0  0.18264236925E+02  0.45272230061E+01 -0.29623431997E+01  0.19048715865E+02  0.51100000000E-03 0.  1.
         12    1    3    3    0    0 -0.71831575713E+01  0.36028640098E+01 -0.17671859648E+01  0.82280816720E+01  0.00000000000E+00 0. -1.
</event>
<event>
 7    1  0.7457761E-012  0.5930195E+02  0.7816164E-02  0.1266605E+00
        -11   -1    0    0    0    0  0.00000000000E+00  0.00000000000E+00  0.45593999997E+02  0.45594000000E+02  0.51100000000E-03 0.  1.
         11   -1    0    0    0    0 -0.00000000000E+00 -0.00000000000E+00 -0.45593999997E+02  0.45594000000E+02  0.51100000000E-03 0. -1.
    9900012    2    1    2    0    0  0.31308324830E+02 -0.59539609271E+01  0.10293856472E+01  0.59301945224E+02  0.50000002181E+02 0.  0.
         12    1    1    2    0    0 -0.31308324830E+02  0.59539609271E+01 -0.10293856472E+01  0.31886054776E+02  0.00000000000E+00 0. -1.
         11    1    3    3    0    0  0.97497229623E+01 -0.19295538606E+02 -0.20596457280E+01  0.21716745814E+02  0.51100000000E-03 0. -1.
        -11    1    3    3    0    0  0.39432072855E+01  0.10221748279E+02  0.13105988770E+02  0.17082153362E+02  0.51100000000E-03 0.  1.
         12    1    3    3    0    0  0.17615394582E+02  0.31198293998E+01 -0.10016957395E+02  0.20503046048E+02  0.00000000000E+00 0. -1.
</event>
<event>
 7    1  0.7457761E-012  0.5930195E+02  0.7816164E-02  0.1266605E+00
        -11   -1    0    0    0    0  0.00000000000E+00  0.00000000000E+00  0.45593999997E+02  0.45594000000E+02  0.51100000000E-03 0.  1.
         11   -1    0    0    0    0 -0.00000000000E+00 -0.00000000000E+00 -0.45593999997E+02  0.45594000000E+02  0.51100000000E-03 0. -1.
    9900012    2    1    2    0    0 -0.23861691488E+02 -0.17048967607E+02  0.12516899632E+02  0.59301946724E+02  0.50000004917E+02 0.  0.
         12    1    1    2    0    0  0.23861691488E+02  0.17048967607E+02 -0.12516899632E+02  0.31886053276E+02  0.00000000000E+00 0. -1.
         11    1    3    3    0    0 -0.39341680868E+01 -0.28547063283E+02  0.82156684907E+01  0.29965141575E+02  0.51100000000E-03 0. -1.
        -11    1    3    3    0    0 -0.15218826304E+02 -0.78703088896E+00  0.53193559293E+01  0.16140868609E+02  0.51100000000E-03 0.  1.
         12    1    3    3    0    0 -0.47086970976E+01  0.12285126565E+02 -0.10181247881E+01  0.13195936539E+02  0.00000000000E+00 0. -1.
</event>
<event>
 7    1  0.7457761E-012  0.5930196E+02  0.7816164E-02  0.1266605E+00
        -11   -1    0    0    0    0  0.00000000000E+00  0.00000000000E+00  0.45593999997E+02  0.45594000000E+02  0.51100000000E-03 0.  1.
         11   -1    0    0    0    0 -0.00000000000E+00 -0.00000000000E+00 -0.45593999997E+02  0.45594000000E+02  0.51100000000E-03 0. -1.
    9900012    2    1    2    0    0 -0.13867772066E+01  0.10254749613E+02  0.30160183479E+02  0.59301957472E+02  0.50000024518E+02 0.  0.
         12    1    1    2    0    0  0.13867772066E+01 -0.10254749613E+02 -0.30160183479E+02  0.31886042528E+02  0.00000000000E+00 0. -1.
         11    1    3    3    0    0 -0.36127520312E+01  0.15503647975E+01  0.88556790883E+01  0.96891000934E+01  0.51100000000E-03 0.  1.
        -11    1    3    3    0    0  0.67597586743E+01 -0.15651916552E+02  0.17284477579E+00  0.17050123304E+02  0.51100000000E-03 0. -1.
        -12    1    3    3    0    0 -0.45337838498E+01  0.24356301368E+02  0.21131659615E+02  0.32562734074E+02  0.00000000000E+00 0.  1.
</event>
<event>
 7    1  0.7457761E-012  0.5930194E+02  0.7816164E-02  0.1266605E+00
        -11   -1    0    0    0    0  0.00000000000E+00  0.00000000000E+00  0.45593999997E+02  0.45594000000E+02  0.51100000000E-03 0. -1.
         11   -1    0    0    0    0 -0.00000000000E+00 -0.00000000000E+00 -0.45593999997E+02  0.45594000000E+02  0.51100000000E-03 0.  1.
    9900012    2    1    2    0    0  0.75903394383E+01 -0.14860581426E+01 -0.30933782341E+02  0.59301944874E+02  0.50000001543E+02 0.  0.
         12    1    1    2    0    0 -0.75903394383E+01  0.14860581426E+01  0.30933782341E+02  0.31886055126E+02  0.00000000000E+00 0. -1.
         11    1    3    3    0    0 -0.40729906620E+01  0.18078756931E+02 -0.84528225776E+00  0.18551151108E+02  0.51100000000E-03 0. -1.
        -11    1    3    3    0    0  0.93873031194E+00 -0.12512253762E+02 -0.22709235865E+02  0.25945078582E+02  0.51100000000E-03 0.  1.
         12    1    3    3    0    0  0.10724599788E+02 -0.70525613111E+01 -0.73792642183E+01  0.14805715183E+02  0.00000000000E+00 0. -1.
</event>
<event>
 7    1  0.7457761E-012  0.5930193E+02  0.7816164E-02  0.1266605E+00
        -11   -1    0    0    0    0  0.00000000000E+00  0.00000000000E+00  0.45593999997E+02  0.45594000000E+02  0.51100000000E-03 0.  1.
         11   -1    0    0    0    0 -0.00000000000E+00 -0.00000000000E+00 -0.45593999997E+02  0.45594000000E+02  0.51100000000E-03 0. -1.
    9900012    2    1    2    0    0 -0.22005067838E+02  0.13522802694E+02  0.18698455570E+02  0.59301930252E+02  0.49999974876E+02 0.  0.
         12    1    1    2    0    0  0.22005067838E+02 -0.13522802694E+02 -0.18698455570E+02  0.31886069748E+02  0.00000000000E+00 0. -1.
         11    1    3    3    0    0 -0.26137241175E+02  0.18386705033E+02  0.19986143440E+02  0.37691805848E+02  0.51100000000E-03 0.  1.
        -11    1    3    3    0    0  0.11789702918E+02 -0.36884702277E+01 -0.46035586282E+01  0.13183120261E+02  0.51100000000E-03 0. -1.
        -12    1    3    3    0    0 -0.76575295811E+01 -0.11754321118E+01  0.33158707583E+01  0.84270041427E+01  0.00000000000E+00 0.  1.
</event>
<event>
 7    1  0.7457761E-012  0.5930189E+02  0.7816164E-02  0.1266605E+00
        -11   -1    0    0    0    0  0.00000000000E+00  0.00000000000E+00  0.45593999997E+02  0.45594000000E+02  0.51100000000E-03 0. -1.
         11   -1    0    0    0    0 -0.00000000000E+00 -0.00000000000E+00 -0.45593999997E+02  0.45594000000E+02  0.51100000000E-03 0.  1.
    9900012    2    1    2    0    0  0.14922886300E+02 -0.27926850877E+02 -0.37579641027E+01  0.59301892843E+02  0.49999906651E+02 0.  0.
         12    1    1    2    0    0 -0.14922886300E+02  0.27926850877E+02  0.37579641027E+01  0.31886107157E+02  0.00000000000E+00 0. -1.
         11    1    3    3    0    0  0.16442434093E+02  0.48517725463E+01  0.11695903184E+02  0.20753011523E+02  0.51100000000E-03 0. -1.
        -11    1    3    3    0    0 -0.62399474390E+01 -0.11174180817E+02 -0.85130190627E+01  0.15371101288E+02  0.51100000000E-03 0.  1.
         12    1    3    3    0    0  0.47203996461E+01 -0.21604442606E+02 -0.69408482237E+01  0.23177780032E+02  0.00000000000E+00 0. -1.
</event>
<event>
 7    1  0.7457761E-012  0.5930194E+02  0.7816164E-02  0.1266605E+00
        -11   -1    0    0    0    0  0.00000000000E+00  0.00000000000E+00  0.45593999997E+02  0.45594000000E+02  0.51100000000E-03 0.  1.
         11   -1    0    0    0    0 -0.00000000000E+00 -0.00000000000E+00 -0.45593999997E+02  0.45594000000E+02  0.51100000000E-03 0. -1.
    9900012    2    1    2    0    0  0.15724163856E+02 -0.77756382712E+01  0.26627262377E+02  0.59301937509E+02  0.49999988111E+02 0.  0.
         12    1    1    2    0    0 -0.15724163856E+02  0.77756382712E+01 -0.26627262377E+02  0.31886062491E+02  0.00000000000E+00 0. -1.
         11    1    3    3    0    0 -0.13419968556E+02  0.47755207523E+01 -0.12086152504E+00  0.14244850377E+02  0.51100000000E-03 0. -1.
        -11    1    3    3    0    0  0.32118130220E+01 -0.61784563906E+01  0.13628519329E+02  0.15304430914E+02  0.51100000000E-03 0.  1.
         12    1    3    3    0    0  0.25932319390E+02 -0.63727026329E+01  0.13119604573E+02  0.29752656217E+02  0.00000000000E+00 0. -1.
</event>
<event>
 7    1  0.7457761E-012  0.5930197E+02  0.7816164E-02  0.1266605E+00
        -11   -1    0    0    0    0  0.00000000000E+00  0.00000000000E+00  0.45593999997E+02  0.45594000000E+02  0.51100000000E-03 0. -1.
         11   -1    0    0    0    0 -0.00000000000E+00 -0.00000000000E+00 -0.45593999997E+02  0.45594000000E+02  0.51100000000E-03 0.  1.
    9900012    2    1    2    0    0  0.13847495050E+02 -0.28254115317E+02 -0.51643462375E+01  0.59301974478E+02  0.50000055534E+02 0.  0.
         12    1    1    2    0    0 -0.13847495050E+02  0.28254115317E+02  0.51643462375E+01  0.31886025522E+02  0.00000000000E+00 0. -1.
         11    1    3    3    0    0  0.92600792534E+01  0.73036739980E+01  0.21356131857E+01  0.11985556541E+02  0.51100000000E-03 0. -1.
        -11    1    3    3    0    0  0.11303733760E+02 -0.24015005852E+02  0.73020685832E+01  0.27528441816E+02  0.51100000000E-03 0.  1.
        -12    1    3    3    0    0 -0.67163179634E+01 -0.11542783463E+02 -0.14602028006E+02  0.19787976121E+02  0.00000000000E+00 0.  1.
</event>
<event>
 7    1  0.7457761E-012  0.5930195E+02  0.7816164E-02  0.1266605E+00
        -11   -1    0    0    0    0  0.00000000000E+00  0.00000000000E+00  0.45593999997E+02  0.45594000000E+02  0.51100000000E-03 0. -1.
         11   -1    0    0    0    0 -0.00000000000E+00 -0.00000000000E+00 -0.45593999997E+02  0.45594000000E+02  0.51100000000E-03 0.  1.
    9900012    2    1    2    0    0 -0.28813726472E+02 -0.26215280977E+01 -0.13402118456E+02  0.59301952552E+02  0.50000015545E+02 0.  0.
         12    1    1    2    0    0  0.28813726472E+02  0.26215280977E+01  0.13402118456E+02  0.31886047448E+02  0.00000000000E+00 0. -1.
         11    1    3    3    0    0 -0.19601084956E+02  0.54161612639E+01  0.11414423142E+02  0.23320085553E+02  0.51100000000E-03 0. -1.
        -11    1    3    3    0    0 -0.13032223111E+02 -0.11191362802E+02 -0.25737640993E+02  0.30943684407E+02  0.51100000000E-03 0.  1.
         12    1    3    3    0    0  0.38195815943E+01  0.31536734408E+01  0.92109939418E+00  0.50381825910E+01  0.00000000000E+00 0. -1.
</event>
<event>
 7    1  0.7457761E-012  0.5930196E+02  0.7816164E-02  0.1266605E+00
        -11   -1    0    0    0    0  0.00000000000E+00  0.00000000000E+00  0.45593999997E+02  0.45594000000E+02  0.51100000000E-03 0.  1.
         11   -1    0    0    0    0 -0.00000000000E+00 -0.00000000000E+00 -0.45593999997E+02  0.45594000000E+02  0.51100000000E-03 0. -1.
    9900012    2    1    2    0    0 -0.91681553395E+01 -0.12513443399E+02  0.27858184065E+02  0.59301956698E+02  0.50000023107E+02 0.  0.
         12    1    1    2    0    0  0.91681553395E+01  0.12513443399E+02 -0.27858184065E+02  0.31886043302E+02  0.00000000000E+00 0. -1.
         11    1    3    3    0    0  0.97671423604E+01  0.11319292628E+02  0.29976288641E+01  0.15248253492E+02  0.51100000000E-03 0. -1.
        -11    1    3    3    0    0 -0.22280187201E+02 -0.18431164823E+02  0.15692440706E+02  0.32899350663E+02  0.51100000000E-03 0.  1.
        -12    1    3    3    0    0  0.33448895011E+01 -0.54015712048E+01  0.91681144950E+01  0.11154352543E+02  0.00000000000E+00 0.  1.
</event>
<event>
 7    1  0.7457761E-012  0.5930202E+02  0.7816164E-02  0.1266604E+00
        -11   -1    0    0    0    0  0.00000000000E+00  0.00000000000E+00  0.45593999997E+02  0.45594000000E+02  0.51100000000E-03 0. -1.
         11   -1    0    0    0    0 -0.00000000000E+00 -0.00000000000E+00 -0.45593999997E+02  0.45594000000E+02  0.51100000000E-03 0.  1.
    9900012    2    1    2    0    0 -0.87795683557E+01 -0.14212271728E+02 -0.27159638557E+02  0.59302024169E+02  0.50000146158E+02 0.  0.
         12    1    1    2    0    0  0.87795683557E+01  0.14212271728E+02  0.27159638557E+02  0.31885975831E+02  0.00000000000E+00 0. -1.
         11    1    3    3    0    0 -0.72201044075E+01  0.43312058523E+01  0.34791176568E+01  0.91100774816E+01  0.51100000000E-03 0. -1.
        -11    1    3    3    0    0 -0.72474091575E+01 -0.24571682771E+02 -0.32807525086E+02  0.41624827162E+02  0.51100000000E-03 0.  1.
        -12    1    3    3    0    0  0.56879452093E+01  0.60282051916E+01  0.21687688729E+01  0.85671195252E+01  0.00000000000E+00 0.  1.
</event>
<event>
 7    1  0.7457761E-012  0.5930169E+02  0.7816164E-02  0.1266606E+00
        -11   -1    0    0    0    0  0.00000000000E+00  0.00000000000E+00  0.45593999997E+02  0.45594000000E+02  0.51100000000E-03 0.  1.
         11   -1    0    0    0    0 -0.00000000000E+00 -0.00000000000E+00 -0.45593999997E+02  0.45594000000E+02  0.51100000000E-03 0. -1.
    9900012    2    1    2    0    0  0.28924268659E+02 -0.13360291208E+02  0.12751271894E+01  0.59301691841E+02  0.49999540070E+02 0.  0.
         12    1    1    2    0    0 -0.28924268659E+02  0.13360291208E+02 -0.12751271894E+01  0.31886308159E+02  0.00000000000E+00 0. -1.
         11    1    3    3    0    0  0.91339707203E+01 -0.11471135112E+02  0.10853475150E+02  0.18243198321E+02  0.51100000000E-03 0.  1.
        -11    1    3    3    0    0 -0.49243965652E+01  0.10678103859E+02 -0.56818033023E+01  0.13059650554E+02  0.51100000000E-03 0. -1.
        -12    1    3    3    0    0  0.24714694504E+02 -0.12567259956E+02 -0.38965446581E+01  0.27998842967E+02  0.00000000000E+00 0.  1.
</event>
<event>
 7    1  0.7457761E-012  0.5930192E+02  0.7816164E-02  0.1266605E+00
        -11   -1    0    0    0    0  0.00000000000E+00  0.00000000000E+00  0.45593999997E+02  0.45594000000E+02  0.51100000000E-03 0.  1.
         11   -1    0    0    0    0 -0.00000000000E+00 -0.00000000000E+00 -0.45593999997E+02  0.45594000000E+02  0.51100000000E-03 0. -1.
    9900012    2    1    2    0    0 -0.15504965037E+01  0.30240310799E+02  0.99920687944E+01  0.59301923486E+02  0.49999962537E+02 0.  0.
         12    1    1    2    0    0  0.15504965037E+01 -0.30240310799E+02 -0.99920687944E+01  0.31886076514E+02  0.00000000000E+00 0. -1.
         11    1    3    3    0    0 -0.85357627066E+01  0.27233694674E+01 -0.45993365369E+01  0.10071240394E+02  0.51100000000E-03 0. -1.
        -11    1    3    3    0    0  0.99363272319E+01  0.35816798259E+02  0.74919951532E+01  0.37917062492E+02  0.51100000000E-03 0.  1.
        -12    1    3    3    0    0 -0.29510610290E+01 -0.82998569269E+01  0.70994101781E+01  0.11313620600E+02  0.00000000000E+00 0.  1.
</event>
<event>
 7    1  0.7457761E-012  0.5930201E+02  0.7816164E-02  0.1266605E+00
        -11   -1    0    0    0    0  0.00000000000E+00  0.00000000000E+00  0.45593999997E+02  0.45594000000E+02  0.51100000000E-03 0.  1.
         11   -1    0    0    0    0 -0.00000000000E+00 -0.00000000000E+00 -0.45593999997E+02  0.45594000000E+02  0.51100000000E-03 0. -1.
    9900012    2    1    2    0    0  0.16334431016E+02 -0.82675356631E+01  0.26106521596E+02  0.59302011660E+02  0.50000123345E+02 0.  0.
         12    1    1    2    0    0 -0.16334431016E+02  0.82675356631E+01 -0.26106521596E+02  0.31885988340E+02  0.00000000000E+00 0. -1.
         11    1    3    3    0    0 -0.15507212778E+01 -0.20212111097E+02  0.12195803346E+02  0.23657383435E+02  0.51100000000E-03 0. -1.
        -11    1    3    3    0    0  0.22447833831E+02  0.46205534165E+01  0.14287934695E+02  0.27007403349E+02  0.51100000000E-03 0.  1.
         12    1    3    3    0    0 -0.45626815367E+01  0.73240220171E+01 -0.37721644529E+00  0.86372248760E+01  0.00000000000E+00 0. -1.
</event>
<event>
 7    1  0.7457761E-012  0.5930197E+02  0.7816164E-02  0.1266605E+00
        -11   -1    0    0    0    0  0.00000000000E+00  0.00000000000E+00  0.45593999997E+02  0.45594000000E+02  0.51100000000E-03 0.  1.
         11   -1    0    0    0    0 -0.00000000000E+00 -0.00000000000E+00 -0.45593999997E+02  0.45594000000E+02  0.51100000000E-03 0. -1.
    9900012    2    1    2    0    0  0.22145593754E+01 -0.17121187593E+02  0.26808197837E+02  0.59301971569E+02  0.50000050229E+02 0.  0.
         12    1    1    2    0    0 -0.22145593754E+01  0.17121187593E+02 -0.26808197837E+02  0.31886028431E+02  0.00000000000E+00 0. -1.
         11    1    3    3    0    0 -0.13153694528E+02  0.24242493991E+00  0.29577747503E+02  0.32371617154E+02  0.51100000000E-03 0.  1.
        -11    1    3    3    0    0  0.40776586169E+01 -0.13499897048E+02 -0.46512144461E+01  0.14849522423E+02  0.51100000000E-03 0. -1.
        -12    1    3    3    0    0  0.11290595287E+02 -0.38637154848E+01  0.18816647803E+01  0.12080831992E+02  0.00000000000E+00 0.  1.
</event>
<event>
 7    1  0.7457761E-012  0.5930195E+02  0.7816164E-02  0.1266605E+00
        -11   -1    0    0    0    0  0.00000000000E+00  0.00000000000E+00  0.45593999997E+02  0.45594000000E+02  0.51100000000E-03 0. -1.
         11   -1    0    0    0    0 -0.00000000000E+00 -0.00000000000E+00 -0.45593999997E+02  0.45594000000E+02  0.51100000000E-03 0.  1.
    9900012    2    1    2    0    0 -0.29422550704E+02  0.98804023569E+01 -0.73083262884E+01  0.59301945465E+02  0.50000002622E+02 0.  0.
         12    1    1    2    0    0  0.29422550704E+02 -0.98804023569E+01  0.73083262884E+01  0.31886054535E+02  0.00000000000E+00 0. -1.
         11    1    3    3    0    0 -0.16097127077E+02 -0.97973774930E+01  0.14678091499E+02  0.23886240311E+02  0.51100000000E-03 0. -1.
        -11    1    3    3    0    0 -0.64687063133E+01  0.11735016380E+02 -0.20953883025E+02  0.24872072389E+02  0.51100000000E-03 0.  1.
         12    1    3    3    0    0 -0.68567173136E+01  0.79427634704E+01 -0.10325347623E+01  0.10543632766E+02  0.00000000000E+00 0. -1.
</event>
<event>
 7    1  0.7457761E-012  0.5930197E+02  0.7816164E-02  0.1266605E+00
        -11   -1    0    0    0    0  0.00000000000E+00  0.00000000000E+00  0.45593999997E+02  0.45594000000E+02  0.51100000000E-03 0. -1.
         11   -1    0    0    0    0 -0.00000000000E+00 -0.00000000000E+00 -0.45593999997E+02  0.45594000000E+02  0.51100000000E-03 0.  1.
    9900012    2    1    2    0    0  0.30448823357E+01  0.25750680991E+02 -0.18556679103E+02  0.59301965137E+02  0.50000038498E+02 0.  0.
         12    1    1    2    0    0 -0.30448823357E+01 -0.25750680991E+02  0.18556679103E+02  0.31886034863E+02  0.00000000000E+00 0. -1.
         11    1    3    3    0    0 -0.30718812584E+01 -0.97049804057E+01 -0.12764152573E+02  0.16326257694E+02  0.51100000000E-03 0. -1.
        -11    1    3    3    0    0  0.57687211161E+01  0.22755183971E+02  0.74452181124E+01  0.24627379355E+02  0.51100000000E-03 0.  1.
         12    1    3    3    0    0  0.34804247808E+00  0.12700477426E+02 -0.13237744642E+02  0.18348328088E+02  0.00000000000E+00 0. -1.
</event>
<event>
 7    1  0.7457761E-012  0.5930197E+02  0.7816164E-02  0.1266605E+00
        -11   -1    0    0    0    0  0.00000000000E+00  0.00000000000E+00  0.45593999997E+02  0.45594000000E+02  0.51100000000E-03 0. -1.
         11   -1    0    0    0    0 -0.00000000000E+00 -0.00000000000E+00 -0.45593999997E+02  0.45594000000E+02  0.51100000000E-03 0.  1.
    9900012    2    1    2    0    0  0.17486776977E+02 -0.17290286285E+02 -0.20297228906E+02  0.59301970612E+02  0.50000048483E+02 0.  0.
         12    1    1    2    0    0 -0.17486776977E+02  0.17290286285E+02  0.20297228906E+02  0.31886029388E+02  0.00000000000E+00 0. -1.
         11    1    3    3    0    0 -0.15144456144E+01 -0.29217634368E+01  0.74381226350E+01  0.81336286917E+01  0.51100000000E-03 0. -1.
        -11    1    3    3    0    0 -0.49873971357E+00  0.82197560083E+01 -0.17975423194E+02  0.19771923766E+02  0.51100000000E-03 0.  1.
        -12    1    3    3    0    0  0.19499962305E+02 -0.22588278857E+02 -0.97599283475E+01  0.31396418155E+02  0.00000000000E+00 0.  1.
</event>
<event>
 7    1  0.7457761E-012  0.5930192E+02  0.7816164E-02  0.1266605E+00
        -11   -1    0    0    0    0  0.00000000000E+00  0.00000000000E+00  0.45593999997E+02  0.45594000000E+02  0.51100000000E-03 0.  1.
         11   -1    0    0    0    0 -0.00000000000E+00 -0.00000000000E+00 -0.45593999997E+02  0.45594000000E+02  0.51100000000E-03 0. -1.
    9900012    2    1    2    0    0 -0.46341842194E+01  0.25417523637E+02  0.18686786631E+02  0.59301918933E+02  0.49999954234E+02 0.  0.
         12    1    1    2    0    0  0.46341842194E+01 -0.25417523637E+02 -0.18686786631E+02  0.31886081067E+02  0.00000000000E+00 0. -1.
         11    1    3    3    0    0  0.11055207964E+02  0.27792681022E+02  0.29380321909E+01  0.30054663115E+02  0.51100000000E-03 0.  1.
        -11    1    3    3    0    0 -0.61878521624E+01 -0.10342581795E+02  0.95894384199E+01  0.15401812946E+02  0.51100000000E-03 0. -1.
        -12    1    3    3    0    0 -0.95015400211E+01  0.79674244092E+01  0.61593160196E+01  0.13845442872E+02  0.00000000000E+00 0.  1.
</event>
<event>
 7    1  0.7457761E-012  0.5930195E+02  0.7816164E-02  0.1266605E+00
        -11   -1    0    0    0    0  0.00000000000E+00  0.00000000000E+00  0.45593999997E+02  0.45594000000E+02  0.51100000000E-03 0.  1.
         11   -1    0    0    0    0 -0.00000000000E+00 -0.00000000000E+00 -0.45593999997E+02  0.45594000000E+02  0.51100000000E-03 0. -1.
    9900012    2    1    2    0    0  0.36231558426E+01  0.78134071666E+01  0.30700868838E+02  0.59301953879E+02  0.50000017966E+02 0.  0.
         12    1    1    2    0    0 -0.36231558426E+01 -0.78134071666E+01 -0.30700868838E+02  0.31886046121E+02  0.00000000000E+00 0. -1.
         11    1    3    3    0    0 -0.10183180017E+02 -0.27983598844E+01  0.24455614975E+02  0.26638413567E+02  0.51100000000E-03 0. -1.
        -11    1    3    3    0    0  0.19866007871E+02  0.55526453248E+01  0.11071779767E+02  0.23410989862E+02  0.51100000000E-03 0.  1.
         12    1    3    3    0    0 -0.60596720122E+01  0.50591217262E+01 -0.48265259032E+01  0.92525504501E+01  0.00000000000E+00 0. -1.
</event>
<event>
 7    1  0.7457761E-012  0.5930197E+02  0.7816164E-02  0.1266605E+00
        -11   -1    0    0    0    0  0.00000000000E+00  0.00000000000E+00  0.45593999997E+02  0.45594000000E+02  0.51100000000E-03 0.  1.
         11   -1    0    0    0    0 -0.00000000000E+00 -0.00000000000E+00 -0.45593999997E+02  0.45594000000E+02  0.51100000000E-03 0. -1.
    9900012    2    1    2    0    0  0.72514761887E+01  0.17948736470E+02  0.25337278475E+02  0.59301972836E+02  0.50000052539E+02 0.  0.
         12    1    1    2    0    0 -0.72514761887E+01 -0.17948736470E+02 -0.25337278475E+02  0.31886027164E+02  0.00000000000E+00 0. -1.
         11    1    3    3    0    0  0.57137021713E+01  0.78318594084E+01  0.16003791062E+01  0.98257634737E+01  0.51100000000E-03 0. -1.
        -11    1    3    3    0    0 -0.40411755165E+01 -0.82761045910E+00  0.33519595329E+02  0.33772463782E+02  0.51100000000E-03 0.  1.
        -12    1    3    3    0    0  0.55789495339E+01  0.10944487521E+02 -0.97826959605E+01  0.15703745580E+02  0.00000000000E+00 0.  1.
</event>
<event>
 7    1  0.7457761E-012  0.5930195E+02  0.7816164E-02  0.1266605E+00
        -11   -1    0    0    0    0  0.00000000000E+00  0.00000000000E+00  0.45593999997E+02  0.45594000000E+02  0.51100000000E-03 0.  1.
         11   -1    0    0    0    0 -0.00000000000E+00 -0.00000000000E+00 -0.45593999997E+02  0.45594000000E+02  0.51100000000E-03 0. -1.
    9900012    2    1    2    0    0 -0.28955169107E+02 -0.13200598565E+02 -0.20156290092E+01  0.59301946924E+02  0.50000005281E+02 0.  0.
         12    1    1    2    0    0  0.28955169107E+02  0.13200598565E+02  0.20156290092E+01  0.31886053076E+02  0.00000000000E+00 0. -1.
         11    1    3    3    0    0 -0.25504126890E+02 -0.44931181622E+01 -0.22644167590E+02  0.34400682048E+02  0.51100000000E-03 0. -1.
        -11    1    3    3    0    0 -0.71465226218E+01 -0.60756434989E+01  0.13114110296E+02  0.16123464845E+02  0.51100000000E-03 0.  1.
         12    1    3    3    0    0  0.36954804056E+01 -0.26318369043E+01  0.75144282851E+01  0.87778000302E+01  0.00000000000E+00 0. -1.
</event>
<event>
 7    1  0.7457761E-012  0.5930194E+02  0.7816164E-02  0.1266605E+00
        -11   -1    0    0    0    0  0.00000000000E+00  0.00000000000E+00  0.45593999997E+02  0.45594000000E+02  0.51100000000E-03 0. -1.
         11   -1    0    0    0    0 -0.00000000000E+00 -0.00000000000E+00 -0.45593999997E+02  0.45594000000E+02  0.51100000000E-03 0.  1.
    9900012    2    1    2    0    0 -0.23094544520E+02  0.45437879450E+01  0.21510860968E+02  0.59301935096E+02  0.49999983711E+02 0.  0.
         12    1    1    2    0    0  0.23094544520E+02 -0.45437879450E+01 -0.21510860968E+02  0.31886064904E+02  0.00000000000E+00 0. -1.
         11    1    3    3    0    0 -0.51300214593E+01 -0.21698464724E+00  0.12944920332E+02  0.13926060648E+02  0.51100000000E-03 0. -1.
        -11    1    3    3    0    0 -0.21091050589E+01  0.35543930783E+01 -0.15771595036E+02  0.16304148078E+02  0.51100000000E-03 0.  1.
        -12    1    3    3    0    0 -0.15855418002E+02  0.12063795140E+01  0.24337535672E+02  0.29071726370E+02  0.00000000000E+00 0.  1.
</event>
<event>
 7    1  0.7457761E-012  0.5930194E+02  0.7816164E-02  0.1266605E+00
        -11   -1    0    0    0    0  0.00000000000E+00  0.00000000000E+00  0.45593999997E+02  0.45594000000E+02  0.51100000000E-03 0. -1.
         11   -1    0    0    0    0 -0.00000000000E+00 -0.00000000000E+00 -0.45593999997E+02  0.45594000000E+02  0.51100000000E-03 0.  1.
    9900012    2    1    2    0    0  0.14619199529E+02 -0.36388211455E+01 -0.28102642278E+02  0.59301944785E+02  0.50000001380E+02 0.  0.
         12    1    1    2    0    0 -0.14619199529E+02  0.36388211455E+01  0.28102642278E+02  0.31886055215E+02  0.00000000000E+00 0. -1.
         11    1    3    3    0    0  0.64453709848E+01  0.60322151389E+01 -0.81853533582E+00  0.88656881837E+01  0.51100000000E-03 0. -1.
        -11    1    3    3    0    0  0.45087041957E+01 -0.25614344370E+02 -0.15526253148E+02  0.30290057578E+02  0.51100000000E-03 0.  1.
        -12    1    3    3    0    0  0.36651243482E+01  0.15943308086E+02 -0.11757853795E+02  0.20146199023E+02  0.00000000000E+00 0.  1.
</event>
<event>
 7    1  0.7457761E-012  0.5930207E+02  0.7816164E-02  0.1266604E+00
        -11   -1    0    0    0    0  0.00000000000E+00  0.00000000000E+00  0.45593999997E+02  0.45594000000E+02  0.51100000000E-03 0. -1.
         11   -1    0    0    0    0 -0.00000000000E+00 -0.00000000000E+00 -0.45593999997E+02  0.45594000000E+02  0.51100000000E-03 0.  1.
    9900012    2    1    2    0    0 -0.88553281129E+01  0.19947992790E+02 -0.23245930226E+02  0.59302070119E+02  0.50000229960E+02 0.  0.
         12    1    1    2    0    0  0.88553281129E+01 -0.19947992790E+02  0.23245930226E+02  0.31885929881E+02  0.00000000000E+00 0. -1.
         11    1    3    3    0    0 -0.51362264297E+01  0.17048154818E+02  0.26774480089E+01  0.18005252920E+02  0.51100000000E-03 0. -1.
        -11    1    3    3    0    0 -0.54119683667E+01 -0.13794636020E+02 -0.83940039554E+01  0.17030580941E+02  0.51100000000E-03 0.  1.
        -12    1    3    3    0    0  0.16928666835E+01  0.16694473992E+02 -0.17529374279E+02  0.24266236257E+02  0.00000000000E+00 0.  1.
</event>
<event>
 7    1  0.7457761E-012  0.5930194E+02  0.7816164E-02  0.1266605E+00
        -11   -1    0    0    0    0  0.00000000000E+00  0.00000000000E+00  0.45593999997E+02  0.45594000000E+02  0.51100000000E-03 0. -1.
         11   -1    0    0    0    0 -0.00000000000E+00 -0.00000000000E+00 -0.45593999997E+02  0.45594000000E+02  0.51100000000E-03 0.  1.
    9900012    2    1    2    0    0  0.31353927688E+02 -0.43193244084E+01 -0.38724131011E+01  0.59301938342E+02  0.49999989631E+02 0.  0.
         12    1    1    2    0    0 -0.31353927688E+02  0.43193244084E+01  0.38724131011E+01  0.31886061658E+02  0.00000000000E+00 0. -1.
         11    1    3    3    0    0  0.38303420893E+02 -0.27076958524E+00  0.11089513028E+02  0.39877345295E+02  0.51100000000E-03 0. -1.
        -11    1    3    3    0    0 -0.15886345018E+01 -0.54629791790E+01 -0.11653709431E+02  0.12968301541E+02  0.51100000000E-03 0.  1.
         12    1    3    3    0    0 -0.53608587032E+01  0.14144243558E+01 -0.33082166978E+01  0.64562915062E+01  0.00000000000E+00 0. -1.
</event>
<event>
 7    1  0.7457761E-012  0.5930186E+02  0.7816164E-02  0.1266605E+00
        -11   -1    0    0    0    0  0.00000000000E+00  0.00000000000E+00  0.45593999997E+02  0.45594000000E+02  0.51100000000E-03 0. -1.
         11   -1    0    0    0    0 -0.00000000000E+00 -0.00000000000E+00 -0.45593999997E+02  0.45594000000E+02  0.51100000000E-03 0.  1.
    9900012    2    1    2    0    0  0.71576413572E+01 -0.30316031548E+02 -0.68141149458E+01  0.59301862556E+02  0.49999851415E+02 0.  0.
         12    1    1    2    0    0 -0.71576413572E+01  0.30316031548E+02  0.68141149458E+01  0.31886137444E+02  0.00000000000E+00 0. -1.
         11    1    3    3    0    0 -0.10043989604E+02 -0.10616055401E+02  0.10604609100E+01  0.14652881527E+02  0.51100000000E-03 0. -1.
        -11    1    3    3    0    0  0.21918017202E+02 -0.26846912078E+02 -0.29791583793E+01  0.34785507774E+02  0.51100000000E-03 0.  1.
        -12    1    3    3    0    0 -0.47163862408E+01  0.71469359313E+01 -0.48954174765E+01  0.98634732548E+01  0.00000000000E+00 0.  1.
</event>
<event>
 7    1  0.7457761E-012  0.5930194E+02  0.7816164E-02  0.1266605E+00
        -11   -1    0    0    0    0  0.00000000000E+00  0.00000000000E+00  0.45593999997E+02  0.45594000000E+02  0.51100000000E-03 0. -1.
         11   -1    0    0    0    0 -0.00000000000E+00 -0.00000000000E+00 -0.45593999997E+02  0.45594000000E+02  0.51100000000E-03 0.  1.
    9900012    2    1    2    0    0  0.17193154482E+02 -0.20700304729E+02 -0.17105948033E+02  0.59301942937E+02  0.49999998011E+02 0.  0.
         12    1    1    2    0    0 -0.17193154482E+02  0.20700304729E+02  0.17105948033E+02  0.31886057063E+02  0.00000000000E+00 0. -1.
         11    1    3    3    0    0 -0.10045570055E+02 -0.23535608167E+02 -0.15591236126E+02  0.29965396271E+02  0.51100000000E-03 0. -1.
        -11    1    3    3    0    0  0.18364526827E+02 -0.28075339284E+01 -0.26223412040E+01  0.18762056550E+02  0.51100000000E-03 0.  1.
         12    1    3    3    0    0  0.88741977104E+01  0.56428373661E+01  0.11076292969E+01  0.10574490116E+02  0.00000000000E+00 0. -1.
</event>
<event>
 7    1  0.7457761E-012  0.5930199E+02  0.7816164E-02  0.1266605E+00
        -11   -1    0    0    0    0  0.00000000000E+00  0.00000000000E+00  0.45593999997E+02  0.45594000000E+02  0.51100000000E-03 0.  1.
         11   -1    0    0    0    0 -0.00000000000E+00 -0.00000000000E+00 -0.45593999997E+02  0.45594000000E+02  0.51100000000E-03 0. -1.
    9900012    2    1    2    0    0  0.10170018209E+02 -0.13791148389E+01  0.30189179864E+02  0.59301987252E+02  0.50000078830E+02 0.  0.
         12    1    1    2    0    0 -0.10170018209E+02  0.13791148389E+01 -0.30189179864E+02  0.31886012748E+02  0.00000000000E+00 0. -1.
         11    1    3    3    0    0 -0.45735874140E+01 -0.23025117183E+01  0.36264266200E+02  0.36623984837E+02  0.51100000000E-03 0.  1.
        -11    1    3    3    0    0  0.17256228308E+02 -0.11190805246E+01 -0.78439035827E+01  0.18988327476E+02  0.51100000000E-03 0. -1.
        -12    1    3    3    0    0 -0.25126226855E+01  0.20424774041E+01  0.17688172474E+01  0.36896749397E+01  0.00000000000E+00 0.  1.
</event>
<event>
 7    1  0.7457761E-012  0.5930193E+02  0.7816164E-02  0.1266605E+00
        -11   -1    0    0    0    0  0.00000000000E+00  0.00000000000E+00  0.45593999997E+02  0.45594000000E+02  0.51100000000E-03 0.  1.
         11   -1    0    0    0    0 -0.00000000000E+00 -0.00000000000E+00 -0.45593999997E+02  0.45594000000E+02  0.51100000000E-03 0. -1.
    9900012    2    1    2    0    0 -0.14100586940E+02 -0.24538737781E+02 -0.14688270559E+02  0.59301929437E+02  0.49999973390E+02 0.  0.
         12    1    1    2    0    0  0.14100586940E+02  0.24538737781E+02  0.14688270559E+02  0.31886070563E+02  0.00000000000E+00 0. -1.
         11    1    3    3    0    0 -0.11206243960E+01 -0.16502134450E+02 -0.17674609491E+02  0.24206777178E+02  0.51100000000E-03 0. -1.
        -11    1    3    3    0    0  0.64588261890E+01 -0.69195333315E+00  0.11039810705E+02  0.12809084894E+02  0.51100000000E-03 0.  1.
        -12    1    3    3    0    0 -0.19438788733E+02 -0.73446499979E+01 -0.80534717736E+01  0.22286067365E+02  0.00000000000E+00 0.  1.
</event>
<event>
 7    1  0.7457761E-012  0.5930193E+02  0.7816164E-02  0.1266605E+00
        -11   -1    0    0    0    0  0.00000000000E+00  0.00000000000E+00  0.45593999997E+02  0.45594000000E+02  0.51100000000E-03 0.  1.
         11   -1    0    0    0    0 -0.00000000000E+00 -0.00000000000E+00 -0.45593999997E+02  0.45594000000E+02  0.51100000000E-03 0. -1.
    9900012    2    1    2    0    0  0.24209046504E+02  0.33330812622E+01  0.20482526424E+02  0.59301933262E+02  0.49999980366E+02 0.  0.
         12    1    1    2    0    0 -0.24209046504E+02 -0.33330812622E+01 -0.20482526424E+02  0.31886066738E+02  0.00000000000E+00 0. -1.
         11    1    3    3    0    0 -0.40853799888E+01  0.60138774295E+01  0.10083244759E+01  0.73398753328E+01  0.51100000000E-03 0. -1.
        -11    1    3    3    0    0  0.31555589181E+02  0.11227717927E+02  0.10540553498E+02  0.35112962374E+02  0.51100000000E-03 0.  1.
        -12    1    3    3    0    0 -0.32611626884E+01 -0.13908514094E+02  0.89336484498E+01  0.16849095555E+02  0.00000000000E+00 0.  1.
</event>
<event>
 7    1  0.7457761E-012  0.5930190E+02  0.7816164E-02  0.1266605E+00
        -11   -1    0    0    0    0  0.00000000000E+00  0.00000000000E+00  0.45593999997E+02  0.45594000000E+02  0.51100000000E-03 0. -1.
         11   -1    0    0    0    0 -0.00000000000E+00 -0.00000000000E+00 -0.45593999997E+02  0.45594000000E+02  0.51100000000E-03 0.  1.
    9900012    2    1    2    0    0  0.26477204170E+02  0.17299620035E+02  0.40502402750E+01  0.59301895812E+02  0.49999912066E+02 0.  0.
         12    1    1    2    0    0 -0.26477204170E+02 -0.17299620035E+02 -0.40502402750E+01  0.31886104188E+02  0.00000000000E+00 0. -1.
         11    1    3    3    0    0  0.22051817278E+02  0.12094405964E+02  0.23980608282E+02  0.34750926242E+02  0.51100000000E-03 0. -1.
        -11    1    3    3    0    0  0.68511855016E+01  0.33936166824E+00 -0.45334794533E+01  0.82223077864E+01  0.51100000000E-03 0.  1.
         12    1    3    3    0    0 -0.24257986097E+01  0.48658524029E+01 -0.15396888553E+02  0.16328661783E+02  0.00000000000E+00 0. -1.
</event>
<event>
 7    1  0.7457761E-012  0.5930195E+02  0.7816164E-02  0.1266605E+00
        -11   -1    0    0    0    0  0.00000000000E+00  0.00000000000E+00  0.45593999997E+02  0.45594000000E+02  0.51100000000E-03 0. -1.
         11   -1    0    0    0    0 -0.00000000000E+00 -0.00000000000E+00 -0.45593999997E+02  0.45594000000E+02  0.51100000000E-03 0.  1.
    9900012    2    1    2    0    0  0.14577744471E+02 -0.23376410311E+02 -0.16054684194E+02  0.59301951680E+02  0.50000013957E+02 0.  0.
         12    1    1    2    0    0 -0.14577744471E+02  0.23376410311E+02  0.16054684194E+02  0.31886048320E+02  0.00000000000E+00 0. -1.
         11    1    3    3    0    0  0.14738543156E+02  0.96379049799E+01  0.46030487450E+01  0.18201701151E+02  0.51100000000E-03 0. -1.
        -11    1    3    3    0    0 -0.58164202865E+01 -0.20547786839E+02 -0.15837413596E+02  0.26586950908E+02  0.51100000000E-03 0.  1.
        -12    1    3    3    0    0  0.56556216010E+01 -0.12466528451E+02 -0.48203193434E+01  0.14513299621E+02  0.00000000000E+00 0.  1.
</event>
<event>
 7    1  0.7457761E-012  0.5930194E+02  0.7816164E-02  0.1266605E+00
        -11   -1    0    0    0    0  0.00000000000E+00  0.00000000000E+00  0.45593999997E+02  0.45594000000E+02  0.51100000000E-03 0.  1.
         11   -1    0    0    0    0 -0.00000000000E+00 -0.00000000000E+00 -0.45593999997E+02  0.45594000000E+02  0.51100000000E-03 0. -1.
    9900012    2    1    2    0    0 -0.18359688951E+02 -0.22115339173E+02  0.13804149512E+02  0.59301938015E+02  0.49999989035E+02 0.  0.
         12    1    1    2    0    0  0.18359688951E+02  0.22115339173E+02 -0.13804149512E+02  0.31886061985E+02  0.00000000000E+00 0. -1.
         11    1    3    3    0    0  0.11776176356E+02  0.24155036333E+01  0.90171443170E+01  0.15027371003E+02  0.51100000000E-03 0.  1.
        -11    1    3    3    0    0 -0.27905056690E+02 -0.28197928869E+02  0.36791498743E+01  0.39841580358E+02  0.51100000000E-03 0. -1.
         12    1    3    3    0    0 -0.22308086170E+01  0.36670860619E+01  0.11078553202E+01  0.44329866548E+01  0.00000000000E+00 0. -1.
</event>
<event>
 7    1  0.7457761E-012  0.5930195E+02  0.7816164E-02  0.1266605E+00
        -11   -1    0    0    0    0  0.00000000000E+00  0.00000000000E+00  0.45593999997E+02  0.45594000000E+02  0.51100000000E-03 0. -1.
         11   -1    0    0    0    0 -0.00000000000E+00 -0.00000000000E+00 -0.45593999997E+02  0.45594000000E+02  0.51100000000E-03 0.  1.
    9900012    2    1    2    0    0 -0.18206014922E+02  0.19710000331E+02 -0.17227215024E+02  0.59301952426E+02  0.50000015316E+02 0.  0.
         12    1    1    2    0    0  0.18206014922E+02 -0.19710000331E+02  0.17227215024E+02  0.31886047574E+02  0.00000000000E+00 0. -1.
         11    1    3    3    0    0  0.41175404179E+01  0.15167074908E+01  0.12527112876E+02  0.13273398132E+02  0.51100000000E-03 0. -1.
        -11    1    3    3    0    0 -0.18013664976E+02  0.13865202963E+02 -0.90925361809E+01  0.24482855094E+02  0.51100000000E-03 0.  1.
        -12    1    3    3    0    0 -0.43098903638E+01  0.43280898771E+01 -0.20661791720E+02  0.21545699199E+02  0.00000000000E+00 0.  1.
</event>
<event>
 7    1  0.7457761E-012  0.5930196E+02  0.7816164E-02  0.1266605E+00
        -11   -1    0    0    0    0  0.00000000000E+00  0.00000000000E+00  0.45593999997E+02  0.45594000000E+02  0.51100000000E-03 0.  1.
         11   -1    0    0    0    0 -0.00000000000E+00 -0.00000000000E+00 -0.45593999997E+02  0.45594000000E+02  0.51100000000E-03 0. -1.
    9900012    2    1    2    0    0  0.90265867337E+01 -0.10084141031E+02  0.28871269529E+02  0.59301962733E+02  0.50000034114E+02 0.  0.
         12    1    1    2    0    0 -0.90265867337E+01  0.10084141031E+02 -0.28871269529E+02  0.31886037267E+02  0.00000000000E+00 0. -1.
         11    1    3    3    0    0  0.28530482366E+01 -0.13867250005E+02 -0.82610213295E+01  0.16391613118E+02  0.51100000000E-03 0. -1.
        -11    1    3    3    0    0 -0.19250993234E+01 -0.90359180210E+00  0.32317261189E+02  0.32387155735E+02  0.51100000000E-03 0.  1.
        -12    1    3    3    0    0  0.80986378205E+01  0.46867007769E+01  0.48150296689E+01  0.10523193880E+02  0.00000000000E+00 0.  1.
</event>
<event>
 7    1  0.7457761E-012  0.5930188E+02  0.7816164E-02  0.1266605E+00
        -11   -1    0    0    0    0  0.00000000000E+00  0.00000000000E+00  0.45593999997E+02  0.45594000000E+02  0.51100000000E-03 0. -1.
         11   -1    0    0    0    0 -0.00000000000E+00 -0.00000000000E+00 -0.45593999997E+02  0.45594000000E+02  0.51100000000E-03 0.  1.
    9900012    2    1    2    0    0  0.24215231579E+02 -0.16234889857E+01 -0.20681191387E+02  0.59301877092E+02  0.49999877926E+02 0.  0.
         12    1    1    2    0    0 -0.24215231579E+02  0.16234889857E+01  0.20681191387E+02  0.31886122908E+02  0.00000000000E+00 0. -1.
         11    1    3    3    0    0  0.34446559296E+02 -0.85597737511E+01 -0.78087583686E+00  0.35502745546E+02  0.51100000000E-03 0. -1.
        -11    1    3    3    0    0 -0.17860749480E+01 -0.19889605802E+00 -0.15382751583E+01  0.23655684487E+01  0.51100000000E-03 0.  1.
         12    1    3    3    0    0 -0.84452527688E+01  0.71351808235E+01 -0.18362040392E+02  0.21433563098E+02  0.00000000000E+00 0. -1.
</event>
<event>
 7    1  0.7457761E-012  0.5930198E+02  0.7816164E-02  0.1266605E+00
        -11   -1    0    0    0    0  0.00000000000E+00  0.00000000000E+00  0.45593999997E+02  0.45594000000E+02  0.51100000000E-03 0.  1.
         11   -1    0    0    0    0 -0.00000000000E+00 -0.00000000000E+00 -0.45593999997E+02  0.45594000000E+02  0.51100000000E-03 0. -1.
    9900012    2    1    2    0    0 -0.24971035114E+02  0.16455447813E+02  0.11062715731E+02  0.59301983680E+02  0.50000072317E+02 0.  0.
         12    1    1    2    0    0  0.24971035114E+02 -0.16455447813E+02 -0.11062715731E+02  0.31886016320E+02  0.00000000000E+00 0. -1.
         11    1    3    3    0    0 -0.15563748755E+01 -0.67244915379E+01  0.33737824019E+01  0.76826751299E+01  0.51100000000E-03 0. -1.
        -11    1    3    3    0    0 -0.22686295624E+02  0.97444337953E+01 -0.12252149333E+02  0.27563330036E+02  0.51100000000E-03 0.  1.
        -12    1    3    3    0    0 -0.72836461427E+00  0.13435505556E+02  0.19941082662E+02  0.24055978514E+02  0.00000000000E+00 0.  1.
</event>
<event>
 7    1  0.7457761E-012  0.5930195E+02  0.7816164E-02  0.1266605E+00
        -11   -1    0    0    0    0  0.00000000000E+00  0.00000000000E+00  0.45593999997E+02  0.45594000000E+02  0.51100000000E-03 0. -1.
         11   -1    0    0    0    0 -0.00000000000E+00 -0.00000000000E+00 -0.45593999997E+02  0.45594000000E+02  0.51100000000E-03 0.  1.
    9900012    2    1    2    0    0  0.16739871599E+02 -0.24362043314E+02 -0.11957753827E+02  0.59301947686E+02  0.50000006671E+02 0.  0.
         12    1    1    2    0    0 -0.16739871599E+02  0.24362043314E+02  0.11957753827E+02  0.31886052314E+02  0.00000000000E+00 0. -1.
         11    1    3    3    0    0  0.10320790977E+02 -0.22301521536E+01  0.18172968105E+02  0.21017827553E+02  0.51100000000E-03 0. -1.
        -11    1    3    3    0    0  0.23882586571E+01 -0.14544082433E+02 -0.21812239930E+02  0.26325043670E+02  0.51100000000E-03 0.  1.
         12    1    3    3    0    0  0.40308219650E+01 -0.75878087281E+01 -0.83184820028E+01  0.11959076463E+02  0.00000000000E+00 0. -1.
</event>
<event>
 7    1  0.7457761E-012  0.5930195E+02  0.7816164E-02  0.1266605E+00
        -11   -1    0    0    0    0  0.00000000000E+00  0.00000000000E+00  0.45593999997E+02  0.45594000000E+02  0.51100000000E-03 0.  1.
         11   -1    0    0    0    0 -0.00000000000E+00 -0.00000000000E+00 -0.45593999997E+02  0.45594000000E+02  0.51100000000E-03 0. -1.
    9900012    2    1    2    0    0 -0.23337952808E+02  0.84565856223E+01  0.20013654825E+02  0.59301948801E+02  0.50000008704E+02 0.  0.
         12    1    1    2    0    0  0.23337952808E+02 -0.84565856223E+01 -0.20013654825E+02  0.31886051199E+02  0.00000000000E+00 0. -1.
         11    1    3    3    0    0 -0.47543701565E+01  0.27795755291E+01 -0.36627336601E+01  0.66140527540E+01  0.51100000000E-03 0. -1.
        -11    1    3    3    0    0 -0.26437508266E+01  0.11022731405E+02  0.31985248939E+02  0.33934439379E+02  0.51100000000E-03 0.  1.
        -12    1    3    3    0    0 -0.15939831825E+02 -0.53457213117E+01 -0.83088604534E+01  0.18753456667E+02  0.00000000000E+00 0.  1.
</event>
<event>
 7    1  0.7457761E-012  0.5930193E+02  0.7816164E-02  0.1266605E+00
        -11   -1    0    0    0    0  0.00000000000E+00  0.00000000000E+00  0.45593999997E+02  0.45594000000E+02  0.51100000000E-03 0.  1.
         11   -1    0    0    0    0 -0.00000000000E+00 -0.00000000000E+00 -0.45593999997E+02  0.45594000000E+02  0.51100000000E-03 0. -1.
    9900012    2    1    2    0    0 -0.31699862789E+02 -0.32004410214E+01  0.12639257004E+01  0.59301927307E+02  0.49999969506E+02 0.  0.
         12    1    1    2    0    0  0.31699862789E+02  0.32004410214E+01 -0.12639257004E+01  0.31886072693E+02  0.00000000000E+00 0. -1.
         11    1    3    3    0    0 -0.29173166894E+02  0.43786908821E+01  0.19624606662E+02  0.35431226162E+02  0.51100000000E-03 0. -1.
        -11    1    3    3    0    0 -0.51744585124E+00 -0.73343987371E+01 -0.23303475025E+01  0.77130846480E+01  0.51100000000E-03 0.  1.
         12    1    3    3    0    0 -0.20092500446E+01 -0.24473316639E+00 -0.16030333459E+02  0.16157616497E+02  0.00000000000E+00 0. -1.
</event>
<event>
 7    1  0.7457761E-012  0.5930198E+02  0.7816164E-02  0.1266605E+00
        -11   -1    0    0    0    0  0.00000000000E+00  0.00000000000E+00  0.45593999997E+02  0.45594000000E+02  0.51100000000E-03 0.  1.
         11   -1    0    0    0    0 -0.00000000000E+00 -0.00000000000E+00 -0.45593999997E+02  0.45594000000E+02  0.51100000000E-03 0. -1.
    9900012    2    1    2    0    0 -0.24636081908E+02 -0.19341342104E+02 -0.59744617325E+01  0.59301980507E+02  0.50000066529E+02 0.  0.
         12    1    1    2    0    0  0.24636081908E+02  0.19341342104E+02  0.59744617325E+01  0.31886019493E+02  0.00000000000E+00 0. -1.
         11    1    3    3    0    0 -0.18899715578E+02  0.32929921527E+01  0.10316567094E+02  0.21782437951E+02  0.51100000000E-03 0. -1.
        -11    1    3    3    0    0 -0.10736133704E+02 -0.24806963613E+02 -0.17133755110E+02  0.32003368183E+02  0.51100000000E-03 0.  1.
        -12    1    3    3    0    0  0.49997673743E+01  0.21726293566E+01  0.84272628362E+00  0.55161743725E+01  0.00000000000E+00 0.  1.
</event>
<event>
 7    1  0.7457761E-012  0.5930194E+02  0.7816164E-02  0.1266605E+00
        -11   -1    0    0    0    0  0.00000000000E+00  0.00000000000E+00  0.45593999997E+02  0.45594000000E+02  0.51100000000E-03 0.  1.
         11   -1    0    0    0    0 -0.00000000000E+00 -0.00000000000E+00 -0.45593999997E+02  0.45594000000E+02  0.51100000000E-03 0. -1.
    9900012    2    1    2    0    0  0.63461231644E+01 -0.31194374458E+02  0.18325709002E+01  0.59301943594E+02  0.49999999209E+02 0.  0.
         12    1    1    2    0    0 -0.63461231644E+01  0.31194374458E+02 -0.18325709002E+01  0.31886056406E+02  0.00000000000E+00 0. -1.
         11    1    3    3    0    0  0.11814581052E+02 -0.14578962513E+02 -0.66580964556E+01  0.19911321454E+02  0.51100000000E-03 0. -1.
        -11    1    3    3    0    0 -0.33202308611E+01 -0.17243626763E+02  0.20604160460E+02  0.27072089418E+02  0.51100000000E-03 0.  1.
        -12    1    3    3    0    0 -0.21482270269E+01  0.62821481830E+00 -0.12113493104E+02  0.12318532721E+02  0.00000000000E+00 0.  1.
</event>
<event>
 7    1  0.7457761E-012  0.5930201E+02  0.7816164E-02  0.1266605E+00
        -11   -1    0    0    0    0  0.00000000000E+00  0.00000000000E+00  0.45593999997E+02  0.45594000000E+02  0.51100000000E-03 0.  1.
         11   -1    0    0    0    0 -0.00000000000E+00 -0.00000000000E+00 -0.45593999997E+02  0.45594000000E+02  0.51100000000E-03 0. -1.
    9900012    2    1    2    0    0  0.86031052578E+01  0.22873049613E+02  0.20482354155E+02  0.59302005419E+02  0.50000111963E+02 0.  0.
         12    1    1    2    0    0 -0.86031052578E+01 -0.22873049613E+02 -0.20482354155E+02  0.31885994581E+02  0.00000000000E+00 0. -1.
         11    1    3    3    0    0 -0.16626944513E+02  0.15901472469E+02  0.17131602034E+02  0.28684558546E+02  0.51100000000E-03 0. -1.
        -11    1    3    3    0    0  0.92485712378E+00 -0.32439745255E+01 -0.16935200655E+01  0.37744856464E+01  0.51100000000E-03 0.  1.
         12    1    3    3    0    0  0.24305192647E+02  0.10215551670E+02  0.50442721863E+01  0.26842961226E+02  0.00000000000E+00 0. -1.
</event>
<event>
 7    1  0.7457761E-012  0.5930194E+02  0.7816164E-02  0.1266605E+00
        -11   -1    0    0    0    0  0.00000000000E+00  0.00000000000E+00  0.45593999997E+02  0.45594000000E+02  0.51100000000E-03 0. -1.
         11   -1    0    0    0    0 -0.00000000000E+00 -0.00000000000E+00 -0.45593999997E+02  0.45594000000E+02  0.51100000000E-03 0.  1.
    9900012    2    1    2    0    0  0.27987667331E+02  0.14647859550E+02 -0.43418150057E+01  0.59301942395E+02  0.49999997022E+02 0.  0.
         12    1    1    2    0    0 -0.27987667331E+02 -0.14647859550E+02  0.43418150057E+01  0.31886057605E+02  0.00000000000E+00 0. -1.
         11    1    3    3    0    0  0.21324765108E+02  0.35883505408E+01  0.38820280584E+01  0.21970252812E+02  0.51100000000E-03 0. -1.
        -11    1    3    3    0    0 -0.90998692518E+01 -0.17453978218E+01  0.72785113452E+01  0.11782646630E+02  0.51100000000E-03 0.  1.
        -12    1    3    3    0    0  0.15762771475E+02  0.12804906831E+02 -0.15502354409E+02  0.25549042952E+02  0.00000000000E+00 0.  1.
</event>
<event>
 7    1  0.7457761E-012  0.5930195E+02  0.7816164E-02  0.1266605E+00
        -11   -1    0    0    0    0  0.00000000000E+00  0.00000000000E+00  0.45593999997E+02  0.45594000000E+02  0.51100000000E-03 0.  1.
         11   -1    0    0    0    0 -0.00000000000E+00 -0.00000000000E+00 -0.45593999997E+02  0.45594000000E+02  0.51100000000E-03 0. -1.
    9900012    2    1    2    0    0  0.21036809521E+02 -0.18841434907E+02  0.14804488927E+02  0.59301954203E+02  0.50000018558E+02 0.  0.
         12    1    1    2    0    0 -0.21036809521E+02  0.18841434907E+02 -0.14804488927E+02  0.31886045797E+02  0.00000000000E+00 0. -1.
         11    1    3    3    0    0 -0.91178948806E+01  0.20071177916E+01 -0.35475374607E+01  0.99874697086E+01  0.51100000000E-03 0.  1.
        -11    1    3    3    0    0  0.34370314711E+02 -0.15456726567E+02  0.10974982676E+02  0.39251486272E+02  0.51100000000E-03 0. -1.
         12    1    3    3    0    0 -0.42156103103E+01 -0.53918261313E+01  0.73770437112E+01  0.10062998223E+02  0.00000000000E+00 0. -1.
</event>
<event>
 7    1  0.7457761E-012  0.5930198E+02  0.7816164E-02  0.1266605E+00
        -11   -1    0    0    0    0  0.00000000000E+00  0.00000000000E+00  0.45593999997E+02  0.45594000000E+02  0.51100000000E-03 0.  1.
         11   -1    0    0    0    0 -0.00000000000E+00 -0.00000000000E+00 -0.45593999997E+02  0.45594000000E+02  0.51100000000E-03 0. -1.
    9900012    2    1    2    0    0  0.63354906360E+01  0.18389081529E+02  0.25267005627E+02  0.59301979012E+02  0.50000063803E+02 0.  0.
         12    1    1    2    0    0 -0.63354906360E+01 -0.18389081529E+02 -0.25267005627E+02  0.31886020988E+02  0.00000000000E+00 0. -1.
         11    1    3    3    0    0 -0.73529064608E+01  0.23795570376E+01 -0.11813725697E+02  0.14117069109E+02  0.51100000000E-03 0. -1.
        -11    1    3    3    0    0  0.12347531771E+02  0.33628152568E+01  0.15131351426E+02  0.19817362678E+02  0.51100000000E-03 0.  1.
         12    1    3    3    0    0  0.13408653258E+01  0.12646709235E+02  0.21949379898E+02  0.25367547225E+02  0.00000000000E+00 0. -1.
</event>
<event>
 7    1  0.7457761E-012  0.5930194E+02  0.7816164E-02  0.1266605E+00
        -11   -1    0    0    0    0  0.00000000000E+00  0.00000000000E+00  0.45593999997E+02  0.45594000000E+02  0.51100000000E-03 0.  1.
         11   -1    0    0    0    0 -0.00000000000E+00 -0.00000000000E+00 -0.45593999997E+02  0.45594000000E+02  0.51100000000E-03 0. -1.
    9900012    2    1    2    0    0 -0.79059864149E+01 -0.27613947057E+02  0.13845072872E+02  0.59301941353E+02  0.49999995121E+02 0.  0.
         12    1    1    2    0    0  0.79059864149E+01  0.27613947057E+02 -0.13845072872E+02  0.31886058647E+02  0.00000000000E+00 0. -1.
         11    1    3    3    0    0 -0.53351877654E+01 -0.16886281690E+02  0.22541528761E+02  0.28665855245E+02  0.51100000000E-03 0.  1.
        -11    1    3    3    0    0  0.40674065554E-01  0.39594870835E+01 -0.14195404077E+02  0.14737323010E+02  0.51100000000E-03 0. -1.
         12    1    3    3    0    0 -0.26114727150E+01 -0.14687152450E+02  0.54989481882E+01  0.15898763097E+02  0.00000000000E+00 0. -1.
</event>
<event>
 7    1  0.7457761E-012  0.5930194E+02  0.7816164E-02  0.1266605E+00
        -11   -1    0    0    0    0  0.00000000000E+00  0.00000000000E+00  0.45593999997E+02  0.45594000000E+02  0.51100000000E-03 0.  1.
         11   -1    0    0    0    0 -0.00000000000E+00 -0.00000000000E+00 -0.45593999997E+02  0.45594000000E+02  0.51100000000E-03 0. -1.
    9900012    2    1    2    0    0 -0.34815545461E+01  0.34226178957E+01  0.31510078158E+02  0.59301944100E+02  0.50000000132E+02 0.  0.
         12    1    1    2    0    0  0.34815545461E+01 -0.34226178957E+01 -0.31510078158E+02  0.31886055900E+02  0.00000000000E+00 0. -1.
         11    1    3    3    0    0 -0.46130564695E+00 -0.93288365794E+01  0.58004896703E+01  0.10994802204E+02  0.51100000000E-03 0. -1.
        -11    1    3    3    0    0 -0.16863444459E+02  0.58851925740E+01  0.27458089709E+02  0.32756036716E+02  0.51100000000E-03 0.  1.
        -12    1    3    3    0    0  0.13843195560E+02  0.68662619012E+01 -0.17485012209E+01  0.15551105180E+02  0.00000000000E+00 0.  1.
</event>
<event>
 7    1  0.7457761E-012  0.5930170E+02  0.7816164E-02  0.1266606E+00
        -11   -1    0    0    0    0  0.00000000000E+00  0.00000000000E+00  0.45593999997E+02  0.45594000000E+02  0.51100000000E-03 0.  1.
         11   -1    0    0    0    0 -0.00000000000E+00 -0.00000000000E+00 -0.45593999997E+02  0.45594000000E+02  0.51100000000E-03 0. -1.
    9900012    2    1    2    0    0 -0.83451475604E+01 -0.30501358097E+02  0.40941087393E+01  0.59301701063E+02  0.49999556888E+02 0.  0.
         12    1    1    2    0    0  0.83451475604E+01  0.30501358097E+02 -0.40941087393E+01  0.31886298937E+02  0.00000000000E+00 0. -1.
         11    1    3    3    0    0  0.90480523504E+01 -0.71155595606E+01 -0.11078559485E+02  0.15976010757E+02  0.51100000000E-03 0. -1.
        -11    1    3    3    0    0  0.28797827725E+01 -0.18225095514E+02  0.12382251786E+02  0.22220877905E+02  0.51100000000E-03 0.  1.
         12    1    3    3    0    0 -0.20272982683E+02 -0.51607030226E+01  0.27904164382E+01  0.21104812401E+02  0.00000000000E+00 0. -1.
</event>
<event>
 7    1  0.7457761E-012  0.5930197E+02  0.7816164E-02  0.1266605E+00
        -11   -1    0    0    0    0  0.00000000000E+00  0.00000000000E+00  0.45593999997E+02  0.45594000000E+02  0.51100000000E-03 0.  1.
         11   -1    0    0    0    0 -0.00000000000E+00 -0.00000000000E+00 -0.45593999997E+02  0.45594000000E+02  0.51100000000E-03 0. -1.
    9900012    2    1    2    0    0  0.87174508048E+01 -0.20845464813E+02  0.22498701221E+02  0.59301970011E+02  0.50000047388E+02 0.  0.
         12    1    1    2    0    0 -0.87174508048E+01  0.20845464813E+02 -0.22498701221E+02  0.31886029989E+02  0.00000000000E+00 0. -1.
         11    1    3    3    0    0 -0.15918302064E+02 -0.63153151418E+01 -0.58922576093E+01  0.18110611418E+02  0.51100000000E-03 0. -1.
        -11    1    3    3    0    0  0.42765014955E+01 -0.63888135705E+01  0.52341246629E+01  0.93006163843E+01  0.51100000000E-03 0.  1.
         12    1    3    3    0    0  0.20359251373E+02 -0.81413361010E+01  0.23156834167E+02  0.31890742209E+02  0.00000000000E+00 0. -1.
</event>
<event>
 7    1  0.7457761E-012  0.5930195E+02  0.7816164E-02  0.1266605E+00
        -11   -1    0    0    0    0  0.00000000000E+00  0.00000000000E+00  0.45593999997E+02  0.45594000000E+02  0.51100000000E-03 0.  1.
         11   -1    0    0    0    0 -0.00000000000E+00 -0.00000000000E+00 -0.45593999997E+02  0.45594000000E+02  0.51100000000E-03 0. -1.
    9900012    2    1    2    0    0 -0.27986213433E+02 -0.81024191186E+01  0.12955409859E+02  0.59301953169E+02  0.50000016672E+02 0.  0.
         12    1    1    2    0    0  0.27986213433E+02  0.81024191186E+01 -0.12955409859E+02  0.31886046831E+02  0.00000000000E+00 0. -1.
         11    1    3    3    0    0 -0.12776316749E+02  0.67722603275E+01 -0.75069930397E+01  0.16292719981E+02  0.51100000000E-03 0. -1.
        -11    1    3    3    0    0  0.13701723386E+01 -0.18763008135E+02  0.38182888397E+01  0.19196540741E+02  0.51100000000E-03 0.  1.
        -12    1    3    3    0    0 -0.16580069023E+02  0.38883286887E+01  0.16644114058E+02  0.23812692447E+02  0.00000000000E+00 0.  1.
</event>
<event>
 7    1  0.7457761E-012  0.5930210E+02  0.7816164E-02  0.1266604E+00
        -11   -1    0    0    0    0  0.00000000000E+00  0.00000000000E+00  0.45593999997E+02  0.45594000000E+02  0.51100000000E-03 0.  1.
         11   -1    0    0    0    0 -0.00000000000E+00 -0.00000000000E+00 -0.45593999997E+02  0.45594000000E+02  0.51100000000E-03 0. -1.
    9900012    2    1    2    0    0  0.52956051941E+01 -0.20889013788E+02  0.23501411300E+02  0.59302099283E+02  0.50000283148E+02 0.  0.
         12    1    1    2    0    0 -0.52956051941E+01  0.20889013788E+02 -0.23501411300E+02  0.31885900717E+02  0.00000000000E+00 0. -1.
         11    1    3    3    0    0 -0.16683625892E+02 -0.26457938788E+02  0.16421059958E+02  0.35327285605E+02  0.51100000000E-03 0. -1.
        -11    1    3    3    0    0  0.12851200855E+02  0.16210688184E+01  0.43038926141E+01  0.13649348682E+02  0.51100000000E-03 0.  1.
         12    1    3    3    0    0  0.91280302312E+01  0.39478561816E+01  0.27764587282E+01  0.10325464997E+02  0.00000000000E+00 0. -1.
</event>
<event>
 7    1  0.7457761E-012  0.5930197E+02  0.7816164E-02  0.1266605E+00
        -11   -1    0    0    0    0  0.00000000000E+00  0.00000000000E+00  0.45593999997E+02  0.45594000000E+02  0.51100000000E-03 0. -1.
         11   -1    0    0    0    0 -0.00000000000E+00 -0.00000000000E+00 -0.45593999997E+02  0.45594000000E+02  0.51100000000E-03 0.  1.
    9900012    2    1    2    0    0 -0.31284934569E+02  0.16920845610E+01  0.59252484612E+01  0.59301970920E+02  0.50000049045E+02 0.  0.
         12    1    1    2    0    0  0.31284934569E+02 -0.16920845610E+01 -0.59252484612E+01  0.31886029080E+02  0.00000000000E+00 0. -1.
         11    1    3    3    0    0 -0.61327696522E+01  0.18215950060E+02 -0.15783365976E+01  0.19285301317E+02  0.51100000000E-03 0.  1.
        -11    1    3    3    0    0  0.15659764584E+00 -0.12948608702E+02 -0.12249231123E+01  0.13007360495E+02  0.51100000000E-03 0. -1.
        -12    1    3    3    0    0 -0.25308762563E+02 -0.35752567968E+01  0.87285081711E+01  0.27009309109E+02  0.00000000000E+00 0.  1.
</event>
<event>
 7    1  0.7457761E-012  0.5930189E+02  0.7816164E-02  0.1266605E+00
        -11   -1    0    0    0    0  0.00000000000E+00  0.00000000000E+00  0.45593999997E+02  0.45594000000E+02  0.51100000000E-03 0. -1.
         11   -1    0    0    0    0 -0.00000000000E+00 -0.00000000000E+00 -0.45593999997E+02  0.45594000000E+02  0.51100000000E-03 0.  1.
    9900012    2    1    2    0    0 -0.83331695121E+01  0.19477401144E+01 -0.30716263543E+02  0.59301886224E+02  0.49999894580E+02 0.  0.
         12    1    1    2    0    0  0.83331695121E+01 -0.19477401144E+01  0.30716263543E+02  0.31886113776E+02  0.00000000000E+00 0. -1.
         11    1    3    3    0    0  0.46085470409E+01  0.58985309988E+01  0.98951367361E+01  0.12407461669E+02  0.51100000000E-03 0. -1.
        -11    1    3    3    0    0 -0.17937850782E+02 -0.42634579027E+01 -0.31564075221E+02  0.36554540194E+02  0.51100000000E-03 0.  1.
         12    1    3    3    0    0  0.49961342289E+01  0.31266701831E+00 -0.90473250581E+01  0.10339884361E+02  0.00000000000E+00 0. -1.
</event>
<event>
 7    1  0.7457761E-012  0.5930190E+02  0.7816164E-02  0.1266605E+00
        -11   -1    0    0    0    0  0.00000000000E+00  0.00000000000E+00  0.45593999997E+02  0.45594000000E+02  0.51100000000E-03 0.  1.
         11   -1    0    0    0    0 -0.00000000000E+00 -0.00000000000E+00 -0.45593999997E+02  0.45594000000E+02  0.51100000000E-03 0. -1.
    9900012    2    1    2    0    0 -0.34972075419E+01  0.24677454700E+02  0.19887581461E+02  0.59301903854E+02  0.49999926733E+02 0.  0.
         12    1    1    2    0    0  0.34972075419E+01 -0.24677454700E+02 -0.19887581461E+02  0.31886096146E+02  0.00000000000E+00 0. -1.
         11    1    3    3    0    0 -0.35291156497E+01 -0.27763163226E+01 -0.83665608313E+01  0.94953636053E+01  0.51100000000E-03 0. -1.
        -11    1    3    3    0    0 -0.76899852377E+01  0.31321907983E+02  0.20625722155E+02  0.38283393362E+02  0.51100000000E-03 0.  1.
        -12    1    3    3    0    0  0.77218933455E+01 -0.38681369605E+01  0.76284201380E+01  0.11523146887E+02  0.00000000000E+00 0.  1.
</event>
<event>
 7    1  0.7457761E-012  0.5930194E+02  0.7816164E-02  0.1266605E+00
        -11   -1    0    0    0    0  0.00000000000E+00  0.00000000000E+00  0.45593999997E+02  0.45594000000E+02  0.51100000000E-03 0.  1.
         11   -1    0    0    0    0 -0.00000000000E+00 -0.00000000000E+00 -0.45593999997E+02  0.45594000000E+02  0.51100000000E-03 0. -1.
    9900012    2    1    2    0    0  0.23295433951E+02  0.19455590368E+02 -0.97736073872E+01  0.59301942845E+02  0.49999997843E+02 0.  0.
         12    1    1    2    0    0 -0.23295433951E+02 -0.19455590368E+02  0.97736073872E+01  0.31886057155E+02  0.00000000000E+00 0. -1.
         11    1    3    3    0    0 -0.36041421509E+01  0.74423550007E+01  0.98611568509E+01  0.12869378513E+02  0.51100000000E-03 0. -1.
        -11    1    3    3    0    0  0.29354171070E+02  0.15358946961E+02 -0.80024935913E+01  0.34082319682E+02  0.51100000000E-03 0.  1.
        -12    1    3    3    0    0 -0.24545949677E+01 -0.33457115944E+01 -0.11632270647E+02  0.12350244651E+02  0.00000000000E+00 0.  1.
</event>
<event>
 7    1  0.7457761E-012  0.5930213E+02  0.7816164E-02  0.1266604E+00
        -11   -1    0    0    0    0  0.00000000000E+00  0.00000000000E+00  0.45593999997E+02  0.45594000000E+02  0.51100000000E-03 0.  1.
         11   -1    0    0    0    0 -0.00000000000E+00 -0.00000000000E+00 -0.45593999997E+02  0.45594000000E+02  0.51100000000E-03 0. -1.
    9900012    2    1    2    0    0 -0.27248981699E+02  0.69956716997E+01  0.15008746427E+02  0.59302127024E+02  0.50000333739E+02 0.  0.
         12    1    1    2    0    0  0.27248981699E+02 -0.69956716997E+01 -0.15008746427E+02  0.31885872976E+02  0.00000000000E+00 0. -1.
         11    1    3    3    0    0 -0.20509129830E+01  0.16966734251E+02  0.14937244296E+01  0.17155393558E+02  0.51100000000E-03 0. -1.
        -11    1    3    3    0    0 -0.15290310985E+02  0.23719643127E+01  0.19789663771E+02  0.25120720872E+02  0.51100000000E-03 0.  1.
         12    1    3    3    0    0 -0.99077577308E+01 -0.12343026864E+02 -0.62746417737E+01  0.17026012593E+02  0.00000000000E+00 0. -1.
</event>
<event>
 7    1  0.7457761E-012  0.5930191E+02  0.7816164E-02  0.1266605E+00
        -11   -1    0    0    0    0  0.00000000000E+00  0.00000000000E+00  0.45593999997E+02  0.45594000000E+02  0.51100000000E-03 0.  1.
         11   -1    0    0    0    0 -0.00000000000E+00 -0.00000000000E+00 -0.45593999997E+02  0.45594000000E+02  0.51100000000E-03 0. -1.
    9900012    2    1    2    0    0  0.24535992622E+02 -0.11625548164E+02  0.16719889226E+02  0.59301905856E+02  0.49999930383E+02 0.  0.
         12    1    1    2    0    0 -0.24535992622E+02  0.11625548164E+02 -0.16719889226E+02  0.31886094144E+02  0.00000000000E+00 0. -1.
         11    1    3    3    0    0 -0.86706899013E+01 -0.16595366971E+02  0.22404385181E+01  0.18857535186E+02  0.51100000000E-03 0. -1.
        -11    1    3    3    0    0  0.24197283831E+02  0.19919501130E+01  0.18105119648E+02  0.30286494808E+02  0.51100000000E-03 0.  1.
        -12    1    3    3    0    0  0.90093986925E+01  0.29778686942E+01 -0.36256689399E+01  0.10157875862E+02  0.00000000000E+00 0.  1.
</event>
<event>
 7    1  0.7457761E-012  0.5930195E+02  0.7816164E-02  0.1266605E+00
        -11   -1    0    0    0    0  0.00000000000E+00  0.00000000000E+00  0.45593999997E+02  0.45594000000E+02  0.51100000000E-03 0. -1.
         11   -1    0    0    0    0 -0.00000000000E+00 -0.00000000000E+00 -0.45593999997E+02  0.45594000000E+02  0.51100000000E-03 0.  1.
    9900012    2    1    2    0    0  0.26234763381E+02  0.18087549395E+02  0.11392697475E+01  0.59301949941E+02  0.50000010784E+02 0.  0.
         12    1    1    2    0    0 -0.26234763381E+02 -0.18087549395E+02 -0.11392697475E+01  0.31886050059E+02  0.00000000000E+00 0. -1.
         11    1    3    3    0    0  0.25158885117E+01  0.27348380003E+02  0.32176943120E+00  0.27465744476E+02  0.51100000000E-03 0. -1.
        -11    1    3    3    0    0  0.12685809243E+02 -0.12967530843E+02 -0.50098716470E+01  0.18819814730E+02  0.51100000000E-03 0.  1.
        -12    1    3    3    0    0  0.11033065627E+02  0.37067002354E+01  0.58273719633E+01  0.13016390735E+02  0.00000000000E+00 0.  1.
</event>
<event>
 7    1  0.7457761E-012  0.5930193E+02  0.7816164E-02  0.1266605E+00
        -11   -1    0    0    0    0  0.00000000000E+00  0.00000000000E+00  0.45593999997E+02  0.45594000000E+02  0.51100000000E-03 0.  1.
         11   -1    0    0    0    0 -0.00000000000E+00 -0.00000000000E+00 -0.45593999997E+02  0.45594000000E+02  0.51100000000E-03 0. -1.
    9900012    2    1    2    0    0 -0.67819514941E+01 -0.18986158950E+02  0.24703292609E+02  0.59301925242E+02  0.49999965739E+02 0.  0.
         12    1    1    2    0    0  0.67819514941E+01  0.18986158950E+02 -0.24703292609E+02  0.31886074758E+02  0.00000000000E+00 0. -1.
         11    1    3    3    0    0 -0.90612137337E+01  0.39422532386E+01  0.25711839054E+02  0.27545337586E+02  0.51100000000E-03 0. -1.
        -11    1    3    3    0    0  0.11355012193E+02 -0.16983342851E+02  0.19173564422E+01  0.20519417445E+02  0.51100000000E-03 0.  1.
        -12    1    3    3    0    0 -0.90757499535E+01 -0.59450693383E+01 -0.29259028870E+01  0.11237170211E+02  0.00000000000E+00 0.  1.
</event>
<event>
 7    1  0.7457761E-012  0.5930195E+02  0.7816164E-02  0.1266605E+00
        -11   -1    0    0    0    0  0.00000000000E+00  0.00000000000E+00  0.45593999997E+02  0.45594000000E+02  0.51100000000E-03 0.  1.
         11   -1    0    0    0    0 -0.00000000000E+00 -0.00000000000E+00 -0.45593999997E+02  0.45594000000E+02  0.51100000000E-03 0. -1.
    9900012    2    1    2    0    0  0.30490135380E+02 -0.57745983948E+01  0.73297899562E+01  0.59301950340E+02  0.50000011512E+02 0.  0.
         12    1    1    2    0    0 -0.30490135380E+02  0.57745983948E+01 -0.73297899562E+01  0.31886049660E+02  0.00000000000E+00 0. -1.
         11    1    3    3    0    0  0.11325685950E+02 -0.73748812457E+01 -0.18389550681E+02  0.22821823112E+02  0.51100000000E-03 0. -1.
        -11    1    3    3    0    0  0.19292726345E+02 -0.23125283550E+01  0.26108943534E+02  0.32545875468E+02  0.51100000000E-03 0.  1.
        -12    1    3    3    0    0 -0.12827691536E+00  0.39128112059E+01 -0.38960289675E+00  0.39342517608E+01  0.00000000000E+00 0.  1.
</event>
<event>
 7    1  0.7457761E-012  0.5930198E+02  0.7816164E-02  0.1266605E+00
        -11   -1    0    0    0    0  0.00000000000E+00  0.00000000000E+00  0.45593999997E+02  0.45594000000E+02  0.51100000000E-03 0. -1.
         11   -1    0    0    0    0 -0.00000000000E+00 -0.00000000000E+00 -0.45593999997E+02  0.45594000000E+02  0.51100000000E-03 0.  1.
    9900012    2    1    2    0    0  0.45798595381E+01 -0.19540306582E+02 -0.24777400427E+02  0.59301980075E+02  0.50000065742E+02 0.  0.
         12    1    1    2    0    0 -0.45798595381E+01  0.19540306582E+02  0.24777400427E+02  0.31886019925E+02  0.00000000000E+00 0. -1.
         11    1    3    3    0    0 -0.10552489841E+02  0.37029930782E+01 -0.90753448331E+01  0.14402398539E+02  0.51100000000E-03 0. -1.
        -11    1    3    3    0    0  0.41500618072E+01 -0.25150419989E+02 -0.20551807984E+02  0.32743601670E+02  0.51100000000E-03 0.  1.
        -12    1    3    3    0    0  0.10982287572E+02  0.19071203288E+01  0.48497523901E+01  0.12155979866E+02  0.00000000000E+00 0.  1.
</event>
<event>
 7    1  0.7457761E-012  0.5930197E+02  0.7816164E-02  0.1266605E+00
        -11   -1    0    0    0    0  0.00000000000E+00  0.00000000000E+00  0.45593999997E+02  0.45594000000E+02  0.51100000000E-03 0.  1.
         11   -1    0    0    0    0 -0.00000000000E+00 -0.00000000000E+00 -0.45593999997E+02  0.45594000000E+02  0.51100000000E-03 0. -1.
    9900012    2    1    2    0    0 -0.30381052988E+02  0.82862351340E+01  0.50048778239E+01  0.59301970530E+02  0.50000048333E+02 0.  0.
         12    1    1    2    0    0  0.30381052988E+02 -0.82862351340E+01 -0.50048778239E+01  0.31886029470E+02  0.00000000000E+00 0. -1.
         11    1    3    3    0    0  0.61051473110E+01 -0.98385733622E+01  0.15564717648E+01  0.11683019905E+02  0.51100000000E-03 0. -1.
        -11    1    3    3    0    0 -0.32491486594E+02  0.39745186067E+01  0.34559040396E+01  0.32915600742E+02  0.51100000000E-03 0.  1.
         12    1    3    3    0    0 -0.39947137055E+01  0.14150289889E+02 -0.74979804954E-02  0.14703349882E+02  0.00000000000E+00 0. -1.
</event>
<event>
 7    1  0.7457761E-012  0.5930185E+02  0.7816164E-02  0.1266605E+00
        -11   -1    0    0    0    0  0.00000000000E+00  0.00000000000E+00  0.45593999997E+02  0.45594000000E+02  0.51100000000E-03 0. -1.
         11   -1    0    0    0    0 -0.00000000000E+00 -0.00000000000E+00 -0.45593999997E+02  0.45594000000E+02  0.51100000000E-03 0.  1.
    9900012    2    1    2    0    0  0.14909777337E+01 -0.27524686277E+02 -0.16027954791E+02  0.59301847770E+02  0.49999824449E+02 0.  0.
         12    1    1    2    0    0 -0.14909777337E+01  0.27524686277E+02  0.16027954791E+02  0.31886152230E+02  0.00000000000E+00 0. -1.
         11    1    3    3    0    0 -0.16809198568E+01 -0.60780716025E+01  0.89941943324E+01  0.10984715650E+02  0.51100000000E-03 0. -1.
        -11    1    3    3    0    0  0.19171547516E+02 -0.12893662079E+02 -0.15564922387E+02  0.27857881562E+02  0.51100000000E-03 0.  1.
        -12    1    3    3    0    0 -0.15999649925E+02 -0.85529525952E+01 -0.94572267359E+01  0.20459250557E+02  0.00000000000E+00 0.  1.
</event>
<event>
 7    1  0.7457761E-012  0.5930195E+02  0.7816164E-02  0.1266605E+00
        -11   -1    0    0    0    0  0.00000000000E+00  0.00000000000E+00  0.45593999997E+02  0.45594000000E+02  0.51100000000E-03 0.  1.
         11   -1    0    0    0    0 -0.00000000000E+00 -0.00000000000E+00 -0.45593999997E+02  0.45594000000E+02  0.51100000000E-03 0. -1.
    9900012    2    1    2    0    0  0.30351161061E+02 -0.87700901403E+01 -0.43142291503E+01  0.59301952393E+02  0.50000015256E+02 0.  0.
         12    1    1    2    0    0 -0.30351161061E+02  0.87700901403E+01  0.43142291503E+01  0.31886047607E+02  0.00000000000E+00 0. -1.
         11    1    3    3    0    0 -0.86613177708E+01 -0.25993036436E+01 -0.12655066817E+02  0.15553955168E+02  0.51100000000E-03 0. -1.
        -11    1    3    3    0    0  0.23766163075E+02 -0.47248142910E+01 -0.33758775172E+01  0.24465300462E+02  0.51100000000E-03 0.  1.
         12    1    3    3    0    0  0.15246315757E+02 -0.14459722056E+01  0.11716715184E+02  0.19282696763E+02  0.00000000000E+00 0. -1.
</event>
<event>
 7    1  0.7457761E-012  0.5930196E+02  0.7816164E-02  0.1266605E+00
        -11   -1    0    0    0    0  0.00000000000E+00  0.00000000000E+00  0.45593999997E+02  0.45594000000E+02  0.51100000000E-03 0. -1.
         11   -1    0    0    0    0 -0.00000000000E+00 -0.00000000000E+00 -0.45593999997E+02  0.45594000000E+02  0.51100000000E-03 0.  1.
    9900012    2    1    2    0    0  0.11026151981E+02  0.22673821374E+02 -0.19520276593E+02  0.59301962280E+02  0.50000033288E+02 0.  0.
         12    1    1    2    0    0 -0.11026151981E+02 -0.22673821374E+02  0.19520276593E+02  0.31886037720E+02  0.00000000000E+00 0. -1.
         11    1    3    3    0    0  0.19143822311E+02  0.28290349253E+00 -0.16067245597E+01  0.19213212410E+02  0.51100000000E-03 0. -1.
        -11    1    3    3    0    0  0.20140856165E+01  0.24756071767E+02 -0.15901038772E+02  0.29491738919E+02  0.51100000000E-03 0.  1.
         12    1    3    3    0    0 -0.10131755946E+02 -0.23651538854E+01 -0.20125132616E+01  0.10597010950E+02  0.00000000000E+00 0. -1.
</event>
<event>
 7    1  0.7457761E-012  0.5930194E+02  0.7816164E-02  0.1266605E+00
        -11   -1    0    0    0    0  0.00000000000E+00  0.00000000000E+00  0.45593999997E+02  0.45594000000E+02  0.51100000000E-03 0. -1.
         11   -1    0    0    0    0 -0.00000000000E+00 -0.00000000000E+00 -0.45593999997E+02  0.45594000000E+02  0.51100000000E-03 0.  1.
    9900012    2    1    2    0    0 -0.21670891723E+02 -0.13207175911E+02 -0.19304497225E+02  0.59301942597E+02  0.49999997390E+02 0.  0.
         12    1    1    2    0    0  0.21670891723E+02  0.13207175911E+02  0.19304497225E+02  0.31886057403E+02  0.00000000000E+00 0. -1.
         11    1    3    3    0    0  0.97755121883E+01  0.42125786983E+01  0.21380325668E+01  0.10857147017E+02  0.51100000000E-03 0. -1.
        -11    1    3    3    0    0 -0.25399567100E+02 -0.33362411998E+01 -0.52524310075E+01  0.26150650966E+02  0.51100000000E-03 0.  1.
         12    1    3    3    0    0 -0.60468368115E+01 -0.14083513410E+02 -0.16190098784E+02  0.22294144613E+02  0.00000000000E+00 0. -1.
</event>
<event>
 7    1  0.7457761E-012  0.5930199E+02  0.7816164E-02  0.1266605E+00
        -11   -1    0    0    0    0  0.00000000000E+00  0.00000000000E+00  0.45593999997E+02  0.45594000000E+02  0.51100000000E-03 0. -1.
         11   -1    0    0    0    0 -0.00000000000E+00 -0.00000000000E+00 -0.45593999997E+02  0.45594000000E+02  0.51100000000E-03 0.  1.
    9900012    2    1    2    0    0 -0.98907501390E+01  0.30064217730E+02 -0.38772943044E+01  0.59301991515E+02  0.50000086605E+02 0.  0.
         12    1    1    2    0    0  0.98907501390E+01 -0.30064217730E+02  0.38772943044E+01  0.31886008485E+02  0.00000000000E+00 0. -1.
         11    1    3    3    0    0 -0.35382918910E+01 -0.13954621020E+01  0.76046086837E+01  0.85027582277E+01  0.51100000000E-03 0. -1.
        -11    1    3    3    0    0  0.11574444608E+02  0.19032380628E+02 -0.17321934036E+02  0.28217878718E+02  0.51100000000E-03 0.  1.
        -12    1    3    3    0    0 -0.17926902856E+02  0.12427299203E+02  0.58400310474E+01  0.22581354569E+02  0.00000000000E+00 0.  1.
</event>
<event>
 7    1  0.7457761E-012  0.5930196E+02  0.7816164E-02  0.1266605E+00
        -11   -1    0    0    0    0  0.00000000000E+00  0.00000000000E+00  0.45593999997E+02  0.45594000000E+02  0.51100000000E-03 0.  1.
         11   -1    0    0    0    0 -0.00000000000E+00 -0.00000000000E+00 -0.45593999997E+02  0.45594000000E+02  0.51100000000E-03 0. -1.
    9900012    2    1    2    0    0  0.31097844122E+02 -0.17719760854E+01 -0.68193736705E+01  0.59301958139E+02  0.50000025736E+02 0.  0.
         12    1    1    2    0    0 -0.31097844122E+02  0.17719760854E+01  0.68193736705E+01  0.31886041861E+02  0.00000000000E+00 0. -1.
         11    1    3    3    0    0  0.87480587045E+01  0.78706033023E+01  0.98745631326E+01  0.15361703186E+02  0.51100000000E-03 0. -1.
        -11    1    3    3    0    0  0.29547947212E+02 -0.12105357284E+02 -0.17284724574E+02  0.36309538186E+02  0.51100000000E-03 0.  1.
        -12    1    3    3    0    0 -0.71981617948E+01  0.24627778965E+01  0.59078777068E+00  0.76307167672E+01  0.00000000000E+00 0.  1.
</event>
<event>
 7    1  0.7457761E-012  0.5930198E+02  0.7816164E-02  0.1266605E+00
        -11   -1    0    0    0    0  0.00000000000E+00  0.00000000000E+00  0.45593999997E+02  0.45594000000E+02  0.51100000000E-03 0.  1.
         11   -1    0    0    0    0 -0.00000000000E+00 -0.00000000000E+00 -0.45593999997E+02  0.45594000000E+02  0.51100000000E-03 0. -1.
    9900012    2    1    2    0    0  0.95858041513E+01 -0.18707981361E+02  0.23975862238E+02  0.59301981467E+02  0.50000068280E+02 0.  0.
         12    1    1    2    0    0 -0.95858041513E+01  0.18707981361E+02 -0.23975862238E+02  0.31886018533E+02  0.00000000000E+00 0. -1.
         11    1    3    3    0    0  0.19137289702E+02  0.36176635154E+01  0.73825947232E+01  0.20828491341E+02  0.51100000000E-03 0. -1.
        -11    1    3    3    0    0 -0.12857552278E+02 -0.82540981961E+00  0.73977666387E+01  0.14856813368E+02  0.51100000000E-03 0.  1.
         12    1    3    3    0    0  0.33060667271E+01 -0.21500235057E+02  0.91955008760E+01  0.23616676758E+02  0.00000000000E+00 0. -1.
</event>
<event>
 7    1  0.7457761E-012  0.5930195E+02  0.7816164E-02  0.1266605E+00
        -11   -1    0    0    0    0  0.00000000000E+00  0.00000000000E+00  0.45593999997E+02  0.45594000000E+02  0.51100000000E-03 0. -1.
         11   -1    0    0    0    0 -0.00000000000E+00 -0.00000000000E+00 -0.45593999997E+02  0.45594000000E+02  0.51100000000E-03 0.  1.
    9900012    2    1    2    0    0  0.12137618317E+02  0.19058354011E+02  0.22498384373E+02  0.59301953908E+02  0.50000018018E+02 0.  0.
         12    1    1    2    0    0 -0.12137618317E+02 -0.19058354011E+02 -0.22498384373E+02  0.31886046092E+02  0.00000000000E+00 0. -1.
         11    1    3    3    0    0  0.10461171552E+02 -0.13174478429E+02  0.48406168133E+01  0.17505272449E+02  0.51100000000E-03 0. -1.
        -11    1    3    3    0    0 -0.28815434178E+01  0.16502357242E+02 -0.12301465718E+01  0.16797152969E+02  0.51100000000E-03 0.  1.
         12    1    3    3    0    0  0.45579901831E+01  0.15730475198E+02  0.18887914131E+02  0.24999528490E+02  0.00000000000E+00 0. -1.
</event>
<event>
 7    1  0.7457761E-012  0.5930194E+02  0.7816164E-02  0.1266605E+00
        -11   -1    0    0    0    0  0.00000000000E+00  0.00000000000E+00  0.45593999997E+02  0.45594000000E+02  0.51100000000E-03 0.  1.
         11   -1    0    0    0    0 -0.00000000000E+00 -0.00000000000E+00 -0.45593999997E+02  0.45594000000E+02  0.51100000000E-03 0. -1.
    9900012    2    1    2    0    0  0.72947888349E+01  0.12096060471E+02  0.28586570199E+02  0.59301943191E+02  0.49999998475E+02 0.  0.
         12    1    1    2    0    0 -0.72947888349E+01 -0.12096060471E+02 -0.28586570199E+02  0.31886056809E+02  0.00000000000E+00 0. -1.
         11    1    3    3    0    0 -0.13313386728E+02 -0.72221626946E+01  0.72374575969E+01  0.16786503296E+02  0.51100000000E-03 0. -1.
        -11    1    3    3    0    0  0.18232312298E+02  0.61722733808E+01  0.24970882901E+01  0.19410039171E+02  0.51100000000E-03 0.  1.
         12    1    3    3    0    0  0.23758632652E+01  0.13145949785E+02  0.18852024312E+02  0.23105400725E+02  0.00000000000E+00 0. -1.
</event>
<event>
 7    1  0.7457761E-012  0.5930195E+02  0.7816164E-02  0.1266605E+00
        -11   -1    0    0    0    0  0.00000000000E+00  0.00000000000E+00  0.45593999997E+02  0.45594000000E+02  0.51100000000E-03 0.  1.
         11   -1    0    0    0    0 -0.00000000000E+00 -0.00000000000E+00 -0.45593999997E+02  0.45594000000E+02  0.51100000000E-03 0. -1.
    9900012    2    1    2    0    0 -0.28988265148E+02  0.42522971804E+01 -0.12582465896E+02  0.59301952964E+02  0.50000016297E+02 0.  0.
         12    1    1    2    0    0  0.28988265148E+02 -0.42522971804E+01  0.12582465896E+02  0.31886047036E+02  0.00000000000E+00 0. -1.
         11    1    3    3    0    0 -0.36111228178E+02  0.52965893866E+01 -0.10985661293E+02  0.38115081188E+02  0.51100000000E-03 0. -1.
        -11    1    3    3    0    0  0.10657436388E+02 -0.32425259378E+01  0.59047256686E+01  0.12607962179E+02  0.51100000000E-03 0.  1.
        -12    1    3    3    0    0 -0.35344733576E+01  0.21982337316E+01 -0.75015302722E+01  0.85789095974E+01  0.00000000000E+00 0.  1.
</event>
<event>
 7    1  0.7457761E-012  0.5930195E+02  0.7816164E-02  0.1266605E+00
        -11   -1    0    0    0    0  0.00000000000E+00  0.00000000000E+00  0.45593999997E+02  0.45594000000E+02  0.51100000000E-03 0. -1.
         11   -1    0    0    0    0 -0.00000000000E+00 -0.00000000000E+00 -0.45593999997E+02  0.45594000000E+02  0.51100000000E-03 0.  1.
    9900012    2    1    2    0    0 -0.24662313020E+02 -0.15596236989E+02  0.12854888470E+02  0.59301945850E+02  0.50000003323E+02 0.  0.
         12    1    1    2    0    0  0.24662313020E+02  0.15596236989E+02 -0.12854888470E+02  0.31886054150E+02  0.00000000000E+00 0. -1.
         11    1    3    3    0    0 -0.18588070684E+02 -0.17500836337E+02 -0.60765301593E+01  0.26243472775E+02  0.51100000000E-03 0. -1.
        -11    1    3    3    0    0 -0.14861809195E+02  0.69165239420E+01  0.82667162608E+01  0.18358928999E+02  0.51100000000E-03 0.  1.
         12    1    3    3    0    0  0.87875668587E+01 -0.50119245934E+01  0.10664702369E+02  0.14699544076E+02  0.00000000000E+00 0. -1.
</event>
<event>
 7    1  0.7457761E-012  0.5930194E+02  0.7816164E-02  0.1266605E+00
        -11   -1    0    0    0    0  0.00000000000E+00  0.00000000000E+00  0.45593999997E+02  0.45594000000E+02  0.51100000000E-03 0.  1.
         11   -1    0    0    0    0 -0.00000000000E+00 -0.00000000000E+00 -0.45593999997E+02  0.45594000000E+02  0.51100000000E-03 0. -1.
    9900012    2    1    2    0    0  0.14816829488E+02 -0.27563539798E+02  0.61182890386E+01  0.59301943125E+02  0.49999998353E+02 0.  0.
         12    1    1    2    0    0 -0.14816829488E+02  0.27563539798E+02 -0.61182890386E+01  0.31886056875E+02  0.00000000000E+00 0. -1.
         11    1    3    3    0    0  0.17241558295E+02 -0.19455353917E+02 -0.16372029951E+02  0.30721743008E+02  0.51100000000E-03 0. -1.
        -11    1    3    3    0    0  0.19513618700E+01  0.41681285740E+01  0.59447833541E+01  0.75180820922E+01  0.51100000000E-03 0.  1.
        -12    1    3    3    0    0 -0.43760906761E+01 -0.12276314455E+02  0.16545535636E+02  0.21062118025E+02  0.00000000000E+00 0.  1.
</event>
<event>
 7    1  0.7457761E-012  0.5930195E+02  0.7816164E-02  0.1266605E+00
        -11   -1    0    0    0    0  0.00000000000E+00  0.00000000000E+00  0.45593999997E+02  0.45594000000E+02  0.51100000000E-03 0. -1.
         11   -1    0    0    0    0 -0.00000000000E+00 -0.00000000000E+00 -0.45593999997E+02  0.45594000000E+02  0.51100000000E-03 0.  1.
    9900012    2    1    2    0    0 -0.95587609042E+01  0.22864241980E+02 -0.20064320671E+02  0.59301946068E+02  0.50000003722E+02 0.  0.
         12    1    1    2    0    0  0.95587609042E+01 -0.22864241980E+02  0.20064320671E+02  0.31886053932E+02  0.00000000000E+00 0. -1.
         11    1    3    3    0    0 -0.71451545821E+01  0.30567374706E+02 -0.22306398124E+02  0.38509648505E+02  0.51100000000E-03 0. -1.
        -11    1    3    3    0    0 -0.10959015131E+01 -0.76475195771E+01 -0.76147778507E+01  0.10847598711E+02  0.51100000000E-03 0.  1.
         12    1    3    3    0    0 -0.13177048089E+01 -0.55613148644E-01  0.98568553045E+01  0.99446988531E+01  0.00000000000E+00 0. -1.
</event>
<event>
 7    1  0.7457761E-012  0.5930193E+02  0.7816164E-02  0.1266605E+00
        -11   -1    0    0    0    0  0.00000000000E+00  0.00000000000E+00  0.45593999997E+02  0.45594000000E+02  0.51100000000E-03 0. -1.
         11   -1    0    0    0    0 -0.00000000000E+00 -0.00000000000E+00 -0.45593999997E+02  0.45594000000E+02  0.51100000000E-03 0.  1.
    9900012    2    1    2    0    0  0.34160267282E+01 -0.22689613424E+02 -0.22141226331E+02  0.59301926247E+02  0.49999967572E+02 0.  0.
         12    1    1    2    0    0 -0.34160267282E+01  0.22689613424E+02  0.22141226331E+02  0.31886073753E+02  0.00000000000E+00 0. -1.
         11    1    3    3    0    0 -0.16793928675E+01  0.52488094369E+01  0.99562723925E+01  0.11379706548E+02  0.51100000000E-03 0. -1.
        -11    1    3    3    0    0  0.54393417848E+01 -0.28846539529E+02 -0.19396781382E+02  0.35184434202E+02  0.51100000000E-03 0.  1.
        -12    1    3    3    0    0 -0.34392218913E+00  0.90811666867E+00 -0.12700717342E+02  0.12737785497E+02  0.00000000000E+00 0.  1.
</event>
<event>
 7    1  0.7457761E-012  0.5930192E+02  0.7816164E-02  0.1266605E+00
        -11   -1    0    0    0    0  0.00000000000E+00  0.00000000000E+00  0.45593999997E+02  0.45594000000E+02  0.51100000000E-03 0.  1.
         11   -1    0    0    0    0 -0.00000000000E+00 -0.00000000000E+00 -0.45593999997E+02  0.45594000000E+02  0.51100000000E-03 0. -1.
    9900012    2    1    2    0    0 -0.19954181564E+02  0.13785954476E+02  0.20700251417E+02  0.59301916649E+02  0.49999950068E+02 0.  0.
         12    1    1    2    0    0  0.19954181564E+02 -0.13785954476E+02 -0.20700251417E+02  0.31886083351E+02  0.00000000000E+00 0. -1.
         11    1    3    3    0    0  0.14375985066E+01 -0.69659542949E+01  0.11314414711E+01  0.72021780573E+01  0.51100000000E-03 0. -1.
        -11    1    3    3    0    0 -0.29606975583E+02  0.98937055362E+01  0.40875939118E+01  0.31482802236E+02  0.51100000000E-03 0.  1.
        -12    1    3    3    0    0  0.82151955123E+01  0.10858203235E+02  0.15481216034E+02  0.20616936356E+02  0.00000000000E+00 0.  1.
</event>
<event>
 7    1  0.7457761E-012  0.5930194E+02  0.7816164E-02  0.1266605E+00
        -11   -1    0    0    0    0  0.00000000000E+00  0.00000000000E+00  0.45593999997E+02  0.45594000000E+02  0.51100000000E-03 0.  1.
         11   -1    0    0    0    0 -0.00000000000E+00 -0.00000000000E+00 -0.45593999997E+02  0.45594000000E+02  0.51100000000E-03 0. -1.
    9900012    2    1    2    0    0  0.28493709379E+02 -0.13501548628E+02  0.47473723892E+01  0.59301939816E+02  0.49999992318E+02 0.  0.
         12    1    1    2    0    0 -0.28493709379E+02  0.13501548628E+02 -0.47473723892E+01  0.31886060184E+02  0.00000000000E+00 0. -1.
         11    1    3    3    0    0 -0.12188702210E+02 -0.91470239753E+01 -0.20515408602E+01  0.15376648833E+02  0.51100000000E-03 0. -1.
        -11    1    3    3    0    0  0.32618277207E+02  0.66067166213E+00  0.96287329763E+01  0.34016187235E+02  0.51100000000E-03 0.  1.
         12    1    3    3    0    0  0.80641343818E+01 -0.50151963144E+01 -0.28298197269E+01  0.99091037478E+01  0.00000000000E+00 0. -1.
</event>
<event>
 7    1  0.7457761E-012  0.5930201E+02  0.7816164E-02  0.1266605E+00
        -11   -1    0    0    0    0  0.00000000000E+00  0.00000000000E+00  0.45593999997E+02  0.45594000000E+02  0.51100000000E-03 0.  1.
         11   -1    0    0    0    0 -0.00000000000E+00 -0.00000000000E+00 -0.45593999997E+02  0.45594000000E+02  0.51100000000E-03 0. -1.
    9900012    2    1    2    0    0 -0.12588705082E+02 -0.15113827489E+02 -0.25096075106E+02  0.59302011499E+02  0.50000123051E+02 0.  0.
         12    1    1    2    0    0  0.12588705082E+02  0.15113827489E+02  0.25096075106E+02  0.31885988501E+02  0.00000000000E+00 0. -1.
         11    1    3    3    0    0 -0.99631488833E+01  0.44420916770E+01 -0.24019016893E+02  0.26380100207E+02  0.51100000000E-03 0. -1.
        -11    1    3    3    0    0  0.11508057686E+02 -0.83474611431E+01  0.27540542428E+01  0.14481032915E+02  0.51100000000E-03 0.  1.
        -12    1    3    3    0    0 -0.14133613884E+02 -0.11208458023E+02 -0.38311124552E+01  0.18440878377E+02  0.00000000000E+00 0.  1.
</event>
<event>
 7    1  0.7457761E-012  0.5930192E+02  0.7816164E-02  0.1266605E+00
        -11   -1    0    0    0    0  0.00000000000E+00  0.00000000000E+00  0.45593999997E+02  0.45594000000E+02  0.51100000000E-03 0.  1.
         11   -1    0    0    0    0 -0.00000000000E+00 -0.00000000000E+00 -0.45593999997E+02  0.45594000000E+02  0.51100000000E-03 0. -1.
    9900012    2    1    2    0    0 -0.23976915466E+02 -0.20449160540E+02  0.48642969554E+01  0.59301921111E+02  0.49999958205E+02 0.  0.
         12    1    1    2    0    0  0.23976915466E+02  0.20449160540E+02 -0.48642969554E+01  0.31886078889E+02  0.00000000000E+00 0. -1.
         11    1    3    3    0    0 -0.63708679283E+01 -0.21000615173E+02  0.75047939505E+01  0.23193441493E+02  0.51100000000E-03 0. -1.
        -11    1    3    3    0    0  0.22384514523E+01  0.95880089838E+01  0.71881599734E+01  0.12190579365E+02  0.51100000000E-03 0.  1.
         12    1    3    3    0    0 -0.19844498990E+02 -0.90365543515E+01 -0.98286569685E+01  0.23917900253E+02  0.00000000000E+00 0. -1.
</event>
<event>
 7    1  0.7457761E-012  0.5930195E+02  0.7816164E-02  0.1266605E+00
        -11   -1    0    0    0    0  0.00000000000E+00  0.00000000000E+00  0.45593999997E+02  0.45594000000E+02  0.51100000000E-03 0.  1.
         11   -1    0    0    0    0 -0.00000000000E+00 -0.00000000000E+00 -0.45593999997E+02  0.45594000000E+02  0.51100000000E-03 0. -1.
    9900012    2    1    2    0    0 -0.26228315729E+02  0.14450157635E+02  0.10953928372E+02  0.59301950567E+02  0.50000011927E+02 0.  0.
         12    1    1    2    0    0  0.26228315729E+02 -0.14450157635E+02 -0.10953928372E+02  0.31886049433E+02  0.00000000000E+00 0. -1.
         11    1    3    3    0    0 -0.36397437785E+01 -0.91119147913E+01  0.12048571624E+02  0.15538429920E+02  0.51100000000E-03 0. -1.
        -11    1    3    3    0    0 -0.17798297882E+02 -0.14300022838E+01 -0.35265216764E+01  0.18200567833E+02  0.51100000000E-03 0.  1.
         12    1    3    3    0    0 -0.47902740677E+01  0.24992074710E+02  0.24318784248E+01  0.25562952815E+02  0.00000000000E+00 0. -1.
</event>
<event>
 7    1  0.7457761E-012  0.5930194E+02  0.7816164E-02  0.1266605E+00
        -11   -1    0    0    0    0  0.00000000000E+00  0.00000000000E+00  0.45593999997E+02  0.45594000000E+02  0.51100000000E-03 0.  1.
         11   -1    0    0    0    0 -0.00000000000E+00 -0.00000000000E+00 -0.45593999997E+02  0.45594000000E+02  0.51100000000E-03 0. -1.
    9900012    2    1    2    0    0 -0.15459357554E+02  0.21566968768E+02  0.17680352973E+02  0.59301940992E+02  0.49999994463E+02 0.  0.
         12    1    1    2    0    0  0.15459357554E+02 -0.21566968768E+02 -0.17680352973E+02  0.31886059008E+02  0.00000000000E+00 0. -1.
         11    1    3    3    0    0  0.53962086994E+01  0.69736706840E+01 -0.13840007361E+02  0.16410269808E+02  0.51100000000E-03 0. -1.
        -11    1    3    3    0    0 -0.39583780902E+01 -0.20525988958E+01  0.96418446491E+01  0.10622950994E+02  0.51100000000E-03 0.  1.
         12    1    3    3    0    0 -0.16897188163E+02  0.16645896980E+02  0.21878515685E+02  0.32268720190E+02  0.00000000000E+00 0. -1.
</event>
<event>
 7    1  0.7457761E-012  0.5930196E+02  0.7816164E-02  0.1266605E+00
        -11   -1    0    0    0    0  0.00000000000E+00  0.00000000000E+00  0.45593999997E+02  0.45594000000E+02  0.51100000000E-03 0.  1.
         11   -1    0    0    0    0 -0.00000000000E+00 -0.00000000000E+00 -0.45593999997E+02  0.45594000000E+02  0.51100000000E-03 0. -1.
    9900012    2    1    2    0    0 -0.27616691085E+02  0.89968025900E+01  0.13156585831E+02  0.59301955497E+02  0.50000020916E+02 0.  0.
         12    1    1    2    0    0  0.27616691085E+02 -0.89968025900E+01 -0.13156585831E+02  0.31886044503E+02  0.00000000000E+00 0. -1.
         11    1    3    3    0    0 -0.33477479173E+01  0.65295930465E+01  0.73398731304E+01  0.10378667511E+02  0.51100000000E-03 0. -1.
        -11    1    3    3    0    0  0.92847298276E+01  0.35808856053E+01 -0.78511357189E+01  0.12675538727E+02  0.51100000000E-03 0.  1.
        -12    1    3    3    0    0 -0.33553672996E+02 -0.11136760617E+01  0.13667848419E+02  0.36247749258E+02  0.00000000000E+00 0.  1.
</event>
<event>
 7    1  0.7457761E-012  0.5930193E+02  0.7816164E-02  0.1266605E+00
        -11   -1    0    0    0    0  0.00000000000E+00  0.00000000000E+00  0.45593999997E+02  0.45594000000E+02  0.51100000000E-03 0.  1.
         11   -1    0    0    0    0 -0.00000000000E+00 -0.00000000000E+00 -0.45593999997E+02  0.45594000000E+02  0.51100000000E-03 0. -1.
    9900012    2    1    2    0    0  0.22122788162E+02 -0.19976546719E+00  0.22962220869E+02  0.59301933301E+02  0.49999980437E+02 0.  0.
         12    1    1    2    0    0 -0.22122788162E+02  0.19976546719E+00 -0.22962220869E+02  0.31886066699E+02  0.00000000000E+00 0. -1.
         11    1    3    3    0    0  0.45739595051E+01  0.23354549496E+01 -0.14050946540E+02  0.14960098740E+02  0.51100000000E-03 0. -1.
        -11    1    3    3    0    0  0.13513903937E+02 -0.88008149697E+01  0.30239292419E+02  0.34270902381E+02  0.51100000000E-03 0.  1.
        -12    1    3    3    0    0  0.40349247191E+01  0.62655945529E+01  0.67738749906E+01  0.10070932180E+02  0.00000000000E+00 0.  1.
</event>
<event>
 7    1  0.7457761E-012  0.5930185E+02  0.7816164E-02  0.1266605E+00
        -11   -1    0    0    0    0  0.00000000000E+00  0.00000000000E+00  0.45593999997E+02  0.45594000000E+02  0.51100000000E-03 0.  1.
         11   -1    0    0    0    0 -0.00000000000E+00 -0.00000000000E+00 -0.45593999997E+02  0.45594000000E+02  0.51100000000E-03 0. -1.
    9900012    2    1    2    0    0  0.26850904453E+02  0.79678811057E+00  0.17179074315E+02  0.59301850411E+02  0.49999829266E+02 0.  0.
         12    1    1    2    0    0 -0.26850904453E+02 -0.79678811057E+00 -0.17179074315E+02  0.31886149589E+02  0.00000000000E+00 0. -1.
         11    1    3    3    0    0 -0.71079329618E+01  0.35780250047E+01 -0.35683237973E+01  0.87211185583E+01  0.51100000000E-03 0. -1.
        -11    1    3    3    0    0  0.23316254834E+02  0.60614370068E+01  0.26304653092E+02  0.35669644414E+02  0.51100000000E-03 0.  1.
        -12    1    3    3    0    0  0.10642582581E+02 -0.88426739010E+01 -0.55572549792E+01  0.14911087439E+02  0.00000000000E+00 0.  1.
</event>
<event>
 7    1  0.7457761E-012  0.5930194E+02  0.7816164E-02  0.1266605E+00
        -11   -1    0    0    0    0  0.00000000000E+00  0.00000000000E+00  0.45593999997E+02  0.45594000000E+02  0.51100000000E-03 0. -1.
         11   -1    0    0    0    0 -0.00000000000E+00 -0.00000000000E+00 -0.45593999997E+02  0.45594000000E+02  0.51100000000E-03 0.  1.
    9900012    2    1    2    0    0 -0.46975918524E+01  0.26445626429E+02 -0.17183787473E+02  0.59301935985E+02  0.49999985332E+02 0.  0.
         12    1    1    2    0    0  0.46975918524E+01 -0.26445626429E+02  0.17183787473E+02  0.31886064015E+02  0.00000000000E+00 0. -1.
         11    1    3    3    0    0 -0.91317612795E+01  0.22075147693E+02  0.10652796972E+02  0.26156897624E+02  0.51100000000E-03 0. -1.
        -11    1    3    3    0    0  0.49953275121E+00 -0.64486737794E+01 -0.94432315597E+01  0.11445940286E+02  0.51100000000E-03 0.  1.
         12    1    3    3    0    0  0.39346366759E+01  0.10819152516E+02 -0.18393352885E+02  0.21699098075E+02  0.00000000000E+00 0. -1.
</event>
<event>
 7    1  0.7457761E-012  0.5930193E+02  0.7816164E-02  0.1266605E+00
        -11   -1    0    0    0    0  0.00000000000E+00  0.00000000000E+00  0.45593999997E+02  0.45594000000E+02  0.51100000000E-03 0.  1.
         11   -1    0    0    0    0 -0.00000000000E+00 -0.00000000000E+00 -0.45593999997E+02  0.45594000000E+02  0.51100000000E-03 0. -1.
    9900012    2    1    2    0    0  0.11171424587E+02  0.21062559996E+02  0.21172837656E+02  0.59301933838E+02  0.49999981416E+02 0.  0.
         12    1    1    2    0    0 -0.11171424587E+02 -0.21062559996E+02 -0.21172837656E+02  0.31886066162E+02  0.00000000000E+00 0. -1.
         11    1    3    3    0    0  0.10339614850E+02  0.22314665808E+01 -0.24684477568E+01  0.10861874283E+02  0.51100000000E-03 0. -1.
        -11    1    3    3    0    0 -0.64926100464E+01  0.18923839852E+02  0.31740559917E+02  0.37519712740E+02  0.51100000000E-03 0.  1.
        -12    1    3    3    0    0  0.73244197835E+01 -0.92746436158E-01 -0.80992745046E+01  0.10920346815E+02  0.00000000000E+00 0.  1.
</event>
<event>
 7    1  0.7457761E-012  0.5930195E+02  0.7816164E-02  0.1266605E+00
        -11   -1    0    0    0    0  0.00000000000E+00  0.00000000000E+00  0.45593999997E+02  0.45594000000E+02  0.51100000000E-03 0.  1.
         11   -1    0    0    0    0 -0.00000000000E+00 -0.00000000000E+00 -0.45593999997E+02  0.45594000000E+02  0.51100000000E-03 0. -1.
    9900012    2    1    2    0    0 -0.29299395002E+02 -0.12425259088E+02  0.19694810308E+01  0.59301945581E+02  0.50000002832E+02 0.  0.
         12    1    1    2    0    0  0.29299395002E+02  0.12425259088E+02 -0.19694810308E+01  0.31886054419E+02  0.00000000000E+00 0. -1.
         11    1    3    3    0    0 -0.11662869150E+02  0.40347435002E+01 -0.14815751524E+02  0.19282327800E+02  0.51100000000E-03 0. -1.
        -11    1    3    3    0    0 -0.68413148940E+01  0.44262546849E+01  0.14193424314E+02  0.16366081206E+02  0.51100000000E-03 0.  1.
         12    1    3    3    0    0 -0.10795210958E+02 -0.20886257273E+02  0.25918082404E+01  0.23653536574E+02  0.00000000000E+00 0. -1.
</event>
<event>
 7    1  0.7457761E-012  0.5930192E+02  0.7816164E-02  0.1266605E+00
        -11   -1    0    0    0    0  0.00000000000E+00  0.00000000000E+00  0.45593999997E+02  0.45594000000E+02  0.51100000000E-03 0.  1.
         11   -1    0    0    0    0 -0.00000000000E+00 -0.00000000000E+00 -0.45593999997E+02  0.45594000000E+02  0.51100000000E-03 0. -1.
    9900012    2    1    2    0    0 -0.25156225932E+02 -0.13290337015E+02  0.14396288536E+02  0.59301923341E+02  0.49999962272E+02 0.  0.
         12    1    1    2    0    0  0.25156225932E+02  0.13290337015E+02 -0.14396288536E+02  0.31886076659E+02  0.00000000000E+00 0. -1.
         11    1    3    3    0    0 -0.18148003853E+02  0.22018062384E+01 -0.24706584992E+01  0.18447280240E+02  0.51100000000E-03 0. -1.
        -11    1    3    3    0    0  0.26655735414E+01 -0.23822223731E+02  0.14037829801E+02  0.27778846117E+02  0.51100000000E-03 0.  1.
        -12    1    3    3    0    0 -0.96737956200E+01  0.83300804774E+01  0.28291172338E+01  0.13075796985E+02  0.00000000000E+00 0.  1.
</event>
<event>
 7    1  0.7457761E-012  0.5930195E+02  0.7816164E-02  0.1266605E+00
        -11   -1    0    0    0    0  0.00000000000E+00  0.00000000000E+00  0.45593999997E+02  0.45594000000E+02  0.51100000000E-03 0.  1.
         11   -1    0    0    0    0 -0.00000000000E+00 -0.00000000000E+00 -0.45593999997E+02  0.45594000000E+02  0.51100000000E-03 0. -1.
    9900012    2    1    2    0    0  0.20257317668E+02 -0.22755396052E+02 -0.94102853513E+01  0.59301946011E+02  0.50000003618E+02 0.  0.
         12    1    1    2    0    0 -0.20257317668E+02  0.22755396052E+02  0.94102853513E+01  0.31886053989E+02  0.00000000000E+00 0. -1.
         11    1    3    3    0    0  0.94497675801E+01 -0.18208144823E+02 -0.16705850049E+02  0.26456002558E+02  0.51100000000E-03 0. -1.
        -11    1    3    3    0    0  0.11808917606E+02 -0.63638890814E+01  0.17715604445E+02  0.22221436956E+02  0.51100000000E-03 0.  1.
        -12    1    3    3    0    0 -0.10013675187E+01  0.18166378521E+01 -0.10420039747E+02  0.10624506498E+02  0.00000000000E+00 0.  1.
</event>
<event>
 7    1  0.7457761E-012  0.5930172E+02  0.7816164E-02  0.1266606E+00
        -11   -1    0    0    0    0  0.00000000000E+00  0.00000000000E+00  0.45593999997E+02  0.45594000000E+02  0.51100000000E-03 0.  1.
         11   -1    0    0    0    0 -0.00000000000E+00 -0.00000000000E+00 -0.45593999997E+02  0.45594000000E+02  0.51100000000E-03 0. -1.
    9900012    2    1    2    0    0 -0.90658742264E+01 -0.30557752515E+02 -0.87669934855E+00  0.59301719000E+02  0.49999589603E+02 0.  0.
         12    1    1    2    0    0  0.90658742264E+01  0.30557752515E+02  0.87669934855E+00  0.31886281000E+02  0.00000000000E+00 0. -1.
         11    1    3    3    0    0  0.15483377853E+02 -0.13329343530E+02 -0.15278800576E+02  0.25511725461E+02  0.51100000000E-03 0. -1.
        -11    1    3    3    0    0 -0.35481186933E+01 -0.51191652135E+01  0.40534958998E+01  0.74314082122E+01  0.51100000000E-03 0.  1.
         12    1    3    3    0    0 -0.21001133386E+02 -0.12109243771E+02  0.10348605328E+02  0.26358585327E+02  0.00000000000E+00 0. -1.
</event>
<event>
 7    1  0.7457761E-012  0.5930194E+02  0.7816164E-02  0.1266605E+00
        -11   -1    0    0    0    0  0.00000000000E+00  0.00000000000E+00  0.45593999997E+02  0.45594000000E+02  0.51100000000E-03 0.  1.
         11   -1    0    0    0    0 -0.00000000000E+00 -0.00000000000E+00 -0.45593999997E+02  0.45594000000E+02  0.51100000000E-03 0. -1.
    9900012    2    1    2    0    0 -0.62169222269E+01 -0.28285361916E+01  0.31145943105E+02  0.59301944884E+02  0.50000001561E+02 0.  0.
         12    1    1    2    0    0  0.62169222269E+01  0.28285361916E+01 -0.31145943105E+02  0.31886055116E+02  0.00000000000E+00 0. -1.
         11    1    3    3    0    0  0.71821780471E+01  0.11957920732E+01  0.48569586876E+00  0.72972255632E+01  0.51100000000E-03 0. -1.
        -11    1    3    3    0    0 -0.22676461898E+02  0.30446676109E+01  0.44392581728E+01  0.23306628638E+02  0.51100000000E-03 0.  1.
        -12    1    3    3    0    0  0.92773616238E+01 -0.70689958757E+01  0.26220989063E+02  0.28698090683E+02  0.00000000000E+00 0.  1.
</event>
<event>
 7    1  0.7457761E-012  0.5930192E+02  0.7816164E-02  0.1266605E+00
        -11   -1    0    0    0    0  0.00000000000E+00  0.00000000000E+00  0.45593999997E+02  0.45594000000E+02  0.51100000000E-03 0. -1.
         11   -1    0    0    0    0 -0.00000000000E+00 -0.00000000000E+00 -0.45593999997E+02  0.45594000000E+02  0.51100000000E-03 0.  1.
    9900012    2    1    2    0    0  0.26810034060E+02  0.96886932858E+01  0.14285418387E+02  0.59301923378E+02  0.49999962340E+02 0.  0.
         12    1    1    2    0    0 -0.26810034060E+02 -0.96886932858E+01 -0.14285418387E+02  0.31886076622E+02  0.00000000000E+00 0. -1.
         11    1    3    3    0    0  0.15715157186E+02  0.80803484365E+01 -0.13531433451E+02  0.22256636937E+02  0.51100000000E-03 0. -1.
        -11    1    3    3    0    0  0.17697943852E+02  0.10269893667E+01  0.18629957359E+02  0.25716672320E+02  0.51100000000E-03 0.  1.
         12    1    3    3    0    0 -0.66030669786E+01  0.58135548252E+00  0.91868944789E+01  0.11328614120E+02  0.00000000000E+00 0. -1.
</event>
<event>
 7    1  0.7457761E-012  0.5930197E+02  0.7816164E-02  0.1266605E+00
        -11   -1    0    0    0    0  0.00000000000E+00  0.00000000000E+00  0.45593999997E+02  0.45594000000E+02  0.51100000000E-03 0.  1.
         11   -1    0    0    0    0 -0.00000000000E+00 -0.00000000000E+00 -0.45593999997E+02  0.45594000000E+02  0.51100000000E-03 0. -1.
    9900012    2    1    2    0    0 -0.14517060208E+02  0.21777114792E+02  0.18213485150E+02  0.59301971601E+02  0.50000050288E+02 0.  0.
         12    1    1    2    0    0  0.14517060208E+02 -0.21777114792E+02 -0.18213485150E+02  0.31886028399E+02  0.00000000000E+00 0. -1.
         11    1    3    3    0    0 -0.15482891998E+01  0.22156808126E+02  0.52864962036E+01  0.22831302814E+02  0.51100000000E-03 0. -1.
        -11    1    3    3    0    0  0.53109087636E+00 -0.95324871357E+01  0.17144965978E+02  0.19623970728E+02  0.51100000000E-03 0.  1.
        -12    1    3    3    0    0 -0.13499861885E+02  0.91527938008E+01 -0.42179770311E+01  0.16846698059E+02  0.00000000000E+00 0.  1.
</event>
<event>
 7    1  0.7457761E-012  0.5930195E+02  0.7816164E-02  0.1266605E+00
        -11   -1    0    0    0    0  0.00000000000E+00  0.00000000000E+00  0.45593999997E+02  0.45594000000E+02  0.51100000000E-03 0.  1.
         11   -1    0    0    0    0 -0.00000000000E+00 -0.00000000000E+00 -0.45593999997E+02  0.45594000000E+02  0.51100000000E-03 0. -1.
    9900012    2    1    2    0    0  0.28354511270E+02  0.12119402296E+02  0.81155272364E+01  0.59301952837E+02  0.50000016065E+02 0.  0.
         12    1    1    2    0    0 -0.28354511270E+02 -0.12119402296E+02 -0.81155272364E+01  0.31886047163E+02  0.00000000000E+00 0. -1.
         11    1    3    3    0    0 -0.33319456554E+01  0.12548710542E+02  0.52165120224E+01  0.13992283447E+02  0.51100000000E-03 0. -1.
        -11    1    3    3    0    0  0.88269483189E+01 -0.13202744366E+02 -0.69456418150E+01  0.17334053649E+02  0.51100000000E-03 0.  1.
        -12    1    3    3    0    0  0.22859508607E+02  0.12773436120E+02  0.98446570289E+01  0.27975615741E+02  0.00000000000E+00 0.  1.
</event>
<event>
 7    1  0.7457761E-012  0.5930191E+02  0.7816164E-02  0.1266605E+00
        -11   -1    0    0    0    0  0.00000000000E+00  0.00000000000E+00  0.45593999997E+02  0.45594000000E+02  0.51100000000E-03 0. -1.
         11   -1    0    0    0    0 -0.00000000000E+00 -0.00000000000E+00 -0.45593999997E+02  0.45594000000E+02  0.51100000000E-03 0.  1.
    9900012    2    1    2    0    0  0.29024934387E+02  0.55654549573E+01 -0.11970853653E+02  0.59301914598E+02  0.49999946327E+02 0.  0.
         12    1    1    2    0    0 -0.29024934387E+02 -0.55654549573E+01  0.11970853653E+02  0.31886085402E+02  0.00000000000E+00 0. -1.
         11    1    3    3    0    0  0.29760735363E+02  0.66459067431E+01  0.18886045794E+01  0.30552189337E+02  0.51100000000E-03 0. -1.
        -11    1    3    3    0    0  0.44056778247E+01 -0.10902380628E+02 -0.13150129113E+02  0.17640799200E+02  0.51100000000E-03 0.  1.
         12    1    3    3    0    0 -0.51414787998E+01  0.98219288426E+01 -0.70932911999E+00  0.11108926061E+02  0.00000000000E+00 0. -1.
</event>
<event>
 7    1  0.7457761E-012  0.5930196E+02  0.7816164E-02  0.1266605E+00
        -11   -1    0    0    0    0  0.00000000000E+00  0.00000000000E+00  0.45593999997E+02  0.45594000000E+02  0.51100000000E-03 0.  1.
         11   -1    0    0    0    0 -0.00000000000E+00 -0.00000000000E+00 -0.45593999997E+02  0.45594000000E+02  0.51100000000E-03 0. -1.
    9900012    2    1    2    0    0 -0.26338310871E+02 -0.90422802862E+01  0.15532229594E+02  0.59301959034E+02  0.50000027368E+02 0.  0.
         12    1    1    2    0    0  0.26338310871E+02  0.90422802862E+01 -0.15532229594E+02  0.31886040966E+02  0.00000000000E+00 0. -1.
         11    1    3    3    0    0 -0.80647815604E+01 -0.22395020839E+01 -0.15250054685E+02  0.17395983426E+02  0.51100000000E-03 0. -1.
        -11    1    3    3    0    0  0.16644766772E+01 -0.82747347248E+01  0.93915332984E+01  0.12627058855E+02  0.51100000000E-03 0.  1.
         12    1    3    3    0    0 -0.19938005988E+02  0.14719565225E+01  0.21390750980E+02  0.29278916754E+02  0.00000000000E+00 0. -1.
</event>
<event>
 7    1  0.7457761E-012  0.5930197E+02  0.7816164E-02  0.1266605E+00
        -11   -1    0    0    0    0  0.00000000000E+00  0.00000000000E+00  0.45593999997E+02  0.45594000000E+02  0.51100000000E-03 0. -1.
         11   -1    0    0    0    0 -0.00000000000E+00 -0.00000000000E+00 -0.45593999997E+02  0.45594000000E+02  0.51100000000E-03 0.  1.
    9900012    2    1    2    0    0 -0.21831322614E+02 -0.10650294402E+02 -0.20656314535E+02  0.59301972526E+02  0.50000051974E+02 0.  0.
         12    1    1    2    0    0  0.21831322614E+02  0.10650294402E+02  0.20656314535E+02  0.31886027474E+02  0.00000000000E+00 0. -1.
         11    1    3    3    0    0 -0.27318188228E+02 -0.15238983911E+02 -0.32449603917E+02  0.45072018297E+02  0.51100000000E-03 0.  1.
        -11    1    3    3    0    0  0.26843939576E+01  0.29390293476E+01  0.93512749641E+01  0.10163179037E+02  0.51100000000E-03 0. -1.
        -12    1    3    3    0    0  0.28024716572E+01  0.16496601620E+01  0.24420144180E+01  0.40667751914E+01  0.00000000000E+00 0.  1.
</event>
<event>
 7    1  0.7457761E-012  0.5930193E+02  0.7816164E-02  0.1266605E+00
        -11   -1    0    0    0    0  0.00000000000E+00  0.00000000000E+00  0.45593999997E+02  0.45594000000E+02  0.51100000000E-03 0.  1.
         11   -1    0    0    0    0 -0.00000000000E+00 -0.00000000000E+00 -0.45593999997E+02  0.45594000000E+02  0.51100000000E-03 0. -1.
    9900012    2    1    2    0    0  0.25534906272E+02 -0.53863160979E+01  0.18321498637E+02  0.59301934834E+02  0.49999983233E+02 0.  0.
         12    1    1    2    0    0 -0.25534906272E+02  0.53863160979E+01 -0.18321498637E+02  0.31886065166E+02  0.00000000000E+00 0. -1.
         11    1    3    3    0    0 -0.12800119011E+01  0.14357201759E+02 -0.30685471837E+01  0.14737152197E+02  0.51100000000E-03 0. -1.
        -11    1    3    3    0    0  0.22380313685E+02 -0.16872689689E+02  0.25483987836E+02  0.37881390342E+02  0.51100000000E-03 0.  1.
        -12    1    3    3    0    0  0.44346044889E+01 -0.28708281679E+01 -0.40939420149E+01  0.66833922947E+01  0.00000000000E+00 0.  1.
</event>
<event>
 7    1  0.7457761E-012  0.5930195E+02  0.7816164E-02  0.1266605E+00
        -11   -1    0    0    0    0  0.00000000000E+00  0.00000000000E+00  0.45593999997E+02  0.45594000000E+02  0.51100000000E-03 0.  1.
         11   -1    0    0    0    0 -0.00000000000E+00 -0.00000000000E+00 -0.45593999997E+02  0.45594000000E+02  0.51100000000E-03 0. -1.
    9900012    2    1    2    0    0 -0.28953963757E+02  0.80734129361E+01  0.10639935579E+02  0.59301949087E+02  0.50000009228E+02 0.  0.
         12    1    1    2    0    0  0.28953963757E+02 -0.80734129361E+01 -0.10639935579E+02  0.31886050913E+02  0.00000000000E+00 0. -1.
         11    1    3    3    0    0  0.17879101322E+01  0.39457493001E+01  0.38037543064E+01  0.57649030576E+01  0.51100000000E-03 0. -1.
        -11    1    3    3    0    0 -0.23248492153E+01 -0.16373208121E+02  0.82238924003E+01  0.18469414569E+02  0.51100000000E-03 0.  1.
        -12    1    3    3    0    0 -0.28417024674E+02  0.20500871757E+02 -0.13877111282E+01  0.35067631461E+02  0.00000000000E+00 0.  1.
</event>
<event>
 7    1  0.7457761E-012  0.5930201E+02  0.7816164E-02  0.1266605E+00
        -11   -1    0    0    0    0  0.00000000000E+00  0.00000000000E+00  0.45593999997E+02  0.45594000000E+02  0.51100000000E-03 0. -1.
         11   -1    0    0    0    0 -0.00000000000E+00 -0.00000000000E+00 -0.45593999997E+02  0.45594000000E+02  0.51100000000E-03 0.  1.
    9900012    2    1    2    0    0 -0.21628655954E+02  0.81701848619E+01 -0.21958276491E+02  0.59302006437E+02  0.50000113819E+02 0.  0.
         12    1    1    2    0    0  0.21628655954E+02 -0.81701848619E+01  0.21958276491E+02  0.31885993563E+02  0.00000000000E+00 0. -1.
         11    1    3    3    0    0 -0.15930182198E+02 -0.17315114627E+02 -0.62597726303E+01  0.24346840720E+02  0.51100000000E-03 0. -1.
        -11    1    3    3    0    0 -0.51239115326E+01  0.26378025474E+02 -0.92481116834E+01  0.28417991964E+02  0.51100000000E-03 0.  1.
        -12    1    3    3    0    0 -0.57456222393E+00 -0.89272598482E+00 -0.64503921775E+01  0.65371737530E+01  0.00000000000E+00 0.  1.
</event>
<event>
 7    1  0.7457761E-012  0.5930195E+02  0.7816164E-02  0.1266605E+00
        -11   -1    0    0    0    0  0.00000000000E+00  0.00000000000E+00  0.45593999997E+02  0.45594000000E+02  0.51100000000E-03 0.  1.
         11   -1    0    0    0    0 -0.00000000000E+00 -0.00000000000E+00 -0.45593999997E+02  0.45594000000E+02  0.51100000000E-03 0. -1.
    9900012    2    1    2    0    0 -0.10624730220E+02 -0.39173219946E+01  0.29807546744E+02  0.59301950594E+02  0.50000011975E+02 0.  0.
         12    1    1    2    0    0  0.10624730220E+02  0.39173219946E+01 -0.29807546744E+02  0.31886049406E+02  0.00000000000E+00 0. -1.
         11    1    3    3    0    0 -0.88964908756E+01  0.28107353219E+01  0.71099238172E+01  0.11730251485E+02  0.51100000000E-03 0. -1.
        -11    1    3    3    0    0  0.74064385710E+01  0.11184035071E+02 -0.41391368960E+01  0.14038177491E+02  0.51100000000E-03 0.  1.
        -12    1    3    3    0    0 -0.91346779153E+01 -0.17912092387E+02  0.26836759823E+02  0.33533521618E+02  0.00000000000E+00 0.  1.
</event>
<event>
 7    1  0.7457761E-012  0.5930194E+02  0.7816164E-02  0.1266605E+00
        -11   -1    0    0    0    0  0.00000000000E+00  0.00000000000E+00  0.45593999997E+02  0.45594000000E+02  0.51100000000E-03 0.  1.
         11   -1    0    0    0    0 -0.00000000000E+00 -0.00000000000E+00 -0.45593999997E+02  0.45594000000E+02  0.51100000000E-03 0. -1.
    9900012    2    1    2    0    0  0.31380358832E+02  0.13006449266E+01  0.55047279176E+01  0.59301943061E+02  0.49999998238E+02 0.  0.
         12    1    1    2    0    0 -0.31380358832E+02 -0.13006449266E+01 -0.55047279176E+01  0.31886056939E+02  0.00000000000E+00 0. -1.
         11    1    3    3    0    0  0.18562411335E+02  0.99845203739E+01  0.82183274670E+00  0.21093344234E+02  0.51100000000E-03 0. -1.
        -11    1    3    3    0    0  0.12513539420E+02 -0.14710405281E+02 -0.10420257008E+02  0.21944622319E+02  0.51100000000E-03 0.  1.
        -12    1    3    3    0    0  0.30440807716E+00  0.60265298342E+01  0.15103152179E+02  0.16263976508E+02  0.00000000000E+00 0.  1.
</event>
<event>
 7    1  0.7457761E-012  0.5930199E+02  0.7816164E-02  0.1266605E+00
        -11   -1    0    0    0    0  0.00000000000E+00  0.00000000000E+00  0.45593999997E+02  0.45594000000E+02  0.51100000000E-03 0. -1.
         11   -1    0    0    0    0 -0.00000000000E+00 -0.00000000000E+00 -0.45593999997E+02  0.45594000000E+02  0.51100000000E-03 0.  1.
    9900012    2    1    2    0    0  0.29787451792E+02  0.12477873703E+01 -0.11307888834E+02  0.59301990412E+02  0.50000084594E+02 0.  0.
         12    1    1    2    0    0 -0.29787451792E+02 -0.12477873703E+01  0.11307888834E+02  0.31886009588E+02  0.00000000000E+00 0. -1.
         11    1    3    3    0    0  0.27245096977E+02  0.14063840826E+02  0.32768871391E+01  0.30835449042E+02  0.51100000000E-03 0. -1.
        -11    1    3    3    0    0 -0.34293413874E+01  0.33070589831E+01 -0.93500549702E+01  0.10493833888E+02  0.51100000000E-03 0.  1.
         12    1    3    3    0    0  0.59716962025E+01 -0.16123112439E+02 -0.52347210025E+01  0.17972707482E+02  0.00000000000E+00 0. -1.
</event>
<event>
 7    1  0.7457761E-012  0.5930176E+02  0.7816164E-02  0.1266605E+00
        -11   -1    0    0    0    0  0.00000000000E+00  0.00000000000E+00  0.45593999997E+02  0.45594000000E+02  0.51100000000E-03 0. -1.
         11   -1    0    0    0    0 -0.00000000000E+00 -0.00000000000E+00 -0.45593999997E+02  0.45594000000E+02  0.51100000000E-03 0.  1.
    9900012    2    1    2    0    0 -0.19846949261E+02  0.24854163010E+02  0.22587065937E+01  0.59301755797E+02  0.49999656711E+02 0.  0.
         12    1    1    2    0    0  0.19846949261E+02 -0.24854163010E+02 -0.22587065937E+01  0.31886244203E+02  0.00000000000E+00 0. -1.
         11    1    3    3    0    0 -0.17337075932E+02  0.33382119609E+01  0.16063355128E+02  0.23869420588E+02  0.51100000000E-03 0. -1.
        -11    1    3    3    0    0  0.36344103142E+01  0.24946810438E+02 -0.84468587721E+01  0.26587623300E+02  0.51100000000E-03 0.  1.
        -12    1    3    3    0    0 -0.61442836433E+01 -0.34308593885E+01 -0.53577897618E+01  0.88447119096E+01  0.00000000000E+00 0.  1.
</event>
<event>
 7    1  0.7457761E-012  0.5930196E+02  0.7816164E-02  0.1266605E+00
        -11   -1    0    0    0    0  0.00000000000E+00  0.00000000000E+00  0.45593999997E+02  0.45594000000E+02  0.51100000000E-03 0. -1.
         11   -1    0    0    0    0 -0.00000000000E+00 -0.00000000000E+00 -0.45593999997E+02  0.45594000000E+02  0.51100000000E-03 0.  1.
    9900012    2    1    2    0    0  0.25281612256E+02 -0.13507160414E+02 -0.13968396662E+02  0.59301962208E+02  0.50000033157E+02 0.  0.
         12    1    1    2    0    0 -0.25281612256E+02  0.13507160414E+02  0.13968396662E+02  0.31886037792E+02  0.00000000000E+00 0. -1.
         11    1    3    3    0    0  0.67877663603E+01 -0.11695748734E+02 -0.26246659481E+02  0.29525437250E+02  0.51100000000E-03 0. -1.
        -11    1    3    3    0    0 -0.38101389952E+01  0.14195006257E+01 -0.93890571221E-01  0.40670575223E+01  0.51100000000E-03 0.  1.
         12    1    3    3    0    0  0.22303984891E+02 -0.32309123058E+01  0.12372153390E+02  0.25709467436E+02  0.00000000000E+00 0. -1.
</event>
<event>
 7    1  0.7457761E-012  0.5930195E+02  0.7816164E-02  0.1266605E+00
        -11   -1    0    0    0    0  0.00000000000E+00  0.00000000000E+00  0.45593999997E+02  0.45594000000E+02  0.51100000000E-03 0.  1.
         11   -1    0    0    0    0 -0.00000000000E+00 -0.00000000000E+00 -0.45593999997E+02  0.45594000000E+02  0.51100000000E-03 0. -1.
    9900012    2    1    2    0    0  0.19830586735E+02 -0.23714928554E+02 -0.78147289983E+01  0.59301952959E+02  0.50000016289E+02 0.  0.
         12    1    1    2    0    0 -0.19830586735E+02  0.23714928554E+02  0.78147289983E+01  0.31886047041E+02  0.00000000000E+00 0. -1.
         11    1    3    3    0    0  0.64461813537E+00 -0.35330276765E+02 -0.73796458872E+01  0.36098520226E+02  0.51100000000E-03 0. -1.
        -11    1    3    3    0    0  0.92038965908E+01  0.44000697053E+01  0.25805249473E+01  0.10522900509E+02  0.51100000000E-03 0.  1.
         12    1    3    3    0    0  0.99820720088E+01  0.72152785061E+01 -0.30156080584E+01  0.12680532224E+02  0.00000000000E+00 0. -1.
</event>
<event>
 7    1  0.7457761E-012  0.5930196E+02  0.7816164E-02  0.1266605E+00
        -11   -1    0    0    0    0  0.00000000000E+00  0.00000000000E+00  0.45593999997E+02  0.45594000000E+02  0.51100000000E-03 0. -1.
         11   -1    0    0    0    0 -0.00000000000E+00 -0.00000000000E+00 -0.45593999997E+02  0.45594000000E+02  0.51100000000E-03 0.  1.
    9900012    2    1    2    0    0  0.23578315668E+02  0.13621960976E+02 -0.16589905812E+02  0.59301956573E+02  0.50000022879E+02 0.  0.
         12    1    1    2    0    0 -0.23578315668E+02 -0.13621960976E+02  0.16589905812E+02  0.31886043427E+02  0.00000000000E+00 0. -1.
         11    1    3    3    0    0  0.29335585092E+02  0.21796247458E+02 -0.10968414666E+02  0.38157031809E+02  0.51100000000E-03 0.  1.
        -11    1    3    3    0    0 -0.95635983859E+01 -0.11751421474E+02 -0.44592461585E+01  0.15793770839E+02  0.51100000000E-03 0. -1.
         12    1    3    3    0    0  0.38063289623E+01  0.35771349911E+01 -0.11622449880E+01  0.53511539247E+01  0.00000000000E+00 0. -1.
</event>
<event>
 7    1  0.7457761E-012  0.5930193E+02  0.7816164E-02  0.1266605E+00
        -11   -1    0    0    0    0  0.00000000000E+00  0.00000000000E+00  0.45593999997E+02  0.45594000000E+02  0.51100000000E-03 0.  1.
         11   -1    0    0    0    0 -0.00000000000E+00 -0.00000000000E+00 -0.45593999997E+02  0.45594000000E+02  0.51100000000E-03 0. -1.
    9900012    2    1    2    0    0 -0.32344601562E+01  0.25654526475E+02  0.18657571931E+02  0.59301930134E+02  0.49999974661E+02 0.  0.
         12    1    1    2    0    0  0.32344601562E+01 -0.25654526475E+02 -0.18657571931E+02  0.31886069866E+02  0.00000000000E+00 0. -1.
         11    1    3    3    0    0 -0.12327719071E+02  0.20966374951E+01 -0.23922001006E+01  0.12731502969E+02  0.51100000000E-03 0. -1.
        -11    1    3    3    0    0  0.30470024006E+01  0.10654260406E+01  0.22974442616E+02  0.23200094182E+02  0.51100000000E-03 0.  1.
        -12    1    3    3    0    0  0.60462565138E+01  0.22492462939E+02 -0.19246705843E+01  0.23370332983E+02  0.00000000000E+00 0.  1.
</event>
<event>
 7    1  0.7457761E-012  0.5930194E+02  0.7816164E-02  0.1266605E+00
        -11   -1    0    0    0    0  0.00000000000E+00  0.00000000000E+00  0.45593999997E+02  0.45594000000E+02  0.51100000000E-03 0.  1.
         11   -1    0    0    0    0 -0.00000000000E+00 -0.00000000000E+00 -0.45593999997E+02  0.45594000000E+02  0.51100000000E-03 0. -1.
    9900012    2    1    2    0    0 -0.13723315816E+02 -0.26343194701E+02 -0.11594280970E+02  0.59301942620E+02  0.49999997432E+02 0.  0.
         12    1    1    2    0    0  0.13723315816E+02  0.26343194701E+02  0.11594280970E+02  0.31886057380E+02  0.00000000000E+00 0. -1.
         11    1    3    3    0    0 -0.23992618327E+02 -0.19873556997E+02 -0.13716417842E+02  0.34040330794E+02  0.51100000000E-03 0. -1.
        -11    1    3    3    0    0  0.13032870064E+02 -0.11469582323E+02 -0.29645315708E+01  0.17612366918E+02  0.51100000000E-03 0.  1.
        -12    1    3    3    0    0 -0.27635675526E+01  0.49999446177E+01  0.50866684435E+01  0.76492449073E+01  0.00000000000E+00 0.  1.
</event>
<event>
 7    1  0.7457761E-012  0.5930192E+02  0.7816164E-02  0.1266605E+00
        -11   -1    0    0    0    0  0.00000000000E+00  0.00000000000E+00  0.45593999997E+02  0.45594000000E+02  0.51100000000E-03 0. -1.
         11   -1    0    0    0    0 -0.00000000000E+00 -0.00000000000E+00 -0.45593999997E+02  0.45594000000E+02  0.51100000000E-03 0.  1.
    9900012    2    1    2    0    0 -0.47686232910E+01 -0.15852038896E+02 -0.27252429438E+02  0.59301924426E+02  0.49999964251E+02 0.  0.
         12    1    1    2    0    0  0.47686232910E+01  0.15852038896E+02  0.27252429438E+02  0.31886075574E+02  0.00000000000E+00 0. -1.
         11    1    3    3    0    0 -0.24463863231E+02 -0.83950807335E+01 -0.12361177631E+02  0.28666298983E+02  0.51100000000E-03 0. -1.
        -11    1    3    3    0    0  0.87994638805E+01  0.13516115795E+01 -0.14006915068E+02  0.16596719207E+02  0.51100000000E-03 0.  1.
         12    1    3    3    0    0  0.10895776059E+02 -0.88085697420E+01 -0.88433673797E+00  0.14038906236E+02  0.00000000000E+00 0. -1.
</event>
<event>
 7    1  0.7457761E-012  0.5930184E+02  0.7816164E-02  0.1266605E+00
        -11   -1    0    0    0    0  0.00000000000E+00  0.00000000000E+00  0.45593999997E+02  0.45594000000E+02  0.51100000000E-03 0.  1.
         11   -1    0    0    0    0 -0.00000000000E+00 -0.00000000000E+00 -0.45593999997E+02  0.45594000000E+02  0.51100000000E-03 0. -1.
    9900012    2    1    2    0    0  0.21907670242E+02  0.20957691578E+02  0.98770623141E+01  0.59301839810E+02  0.49999809932E+02 0.  0.
         12    1    1    2    0    0 -0.21907670242E+02 -0.20957691578E+02 -0.98770623141E+01  0.31886160190E+02  0.00000000000E+00 0. -1.
         11    1    3    3    0    0 -0.14327172095E+02  0.60967144865E+01  0.72090579184E+01  0.17158330458E+02  0.51100000000E-03 0. -1.
        -11    1    3    3    0    0  0.19827399361E+02  0.15804668874E+02 -0.70871339318E+00  0.25365638146E+02  0.51100000000E-03 0.  1.
         12    1    3    3    0    0  0.16407442976E+02 -0.94369178341E+00  0.33767177889E+01  0.16777871206E+02  0.00000000000E+00 0. -1.
</event>
<event>
 7    1  0.7457761E-012  0.5930183E+02  0.7816164E-02  0.1266605E+00
        -11   -1    0    0    0    0  0.00000000000E+00  0.00000000000E+00  0.45593999997E+02  0.45594000000E+02  0.51100000000E-03 0.  1.
         11   -1    0    0    0    0 -0.00000000000E+00 -0.00000000000E+00 -0.45593999997E+02  0.45594000000E+02  0.51100000000E-03 0. -1.
    9900012    2    1    2    0    0  0.51429444855E+01  0.27177803660E+02  0.15863313991E+02  0.59301833398E+02  0.49999798238E+02 0.  0.
         12    1    1    2    0    0 -0.51429444855E+01 -0.27177803660E+02 -0.15863313991E+02  0.31886166602E+02  0.00000000000E+00 0. -1.
         11    1    3    3    0    0  0.73761488778E+01  0.16177862124E+02 -0.11167270190E+02  0.20996159623E+02  0.51100000000E-03 0. -1.
        -11    1    3    3    0    0 -0.24349484562E+01  0.70121804384E+01  0.31470708334E+02  0.32334271784E+02  0.51100000000E-03 0.  1.
        -12    1    3    3    0    0  0.20174406395E+00  0.39877610982E+01 -0.44401241530E+01  0.59714019909E+01  0.00000000000E+00 0.  1.
</event>
<event>
 7    1  0.7457761E-012  0.5930204E+02  0.7816164E-02  0.1266604E+00
        -11   -1    0    0    0    0  0.00000000000E+00  0.00000000000E+00  0.45593999997E+02  0.45594000000E+02  0.51100000000E-03 0. -1.
         11   -1    0    0    0    0 -0.00000000000E+00 -0.00000000000E+00 -0.45593999997E+02  0.45594000000E+02  0.51100000000E-03 0.  1.
    9900012    2    1    2    0    0 -0.12241560120E+02 -0.29442167680E+02  0.13301203389E+00  0.59302035626E+02  0.50000167053E+02 0.  0.
         12    1    1    2    0    0  0.12241560120E+02  0.29442167680E+02 -0.13301203389E+00  0.31885964374E+02  0.00000000000E+00 0. -1.
         11    1    3    3    0    0 -0.27274885338E+02 -0.18783914350E+02  0.89517103747E+01  0.34305800201E+02  0.51100000000E-03 0.  1.
        -11    1    3    3    0    0  0.16565491103E+02 -0.10929845726E+02 -0.44229663677E+01  0.20333215555E+02  0.51100000000E-03 0. -1.
        -12    1    3    3    0    0 -0.15321658851E+01  0.27159239591E+00 -0.43957319732E+01  0.46630198701E+01  0.00000000000E+00 0.  1.
</event>
<event>
 7    1  0.7457761E-012  0.5930195E+02  0.7816164E-02  0.1266605E+00
        -11   -1    0    0    0    0  0.00000000000E+00  0.00000000000E+00  0.45593999997E+02  0.45594000000E+02  0.51100000000E-03 0.  1.
         11   -1    0    0    0    0 -0.00000000000E+00 -0.00000000000E+00 -0.45593999997E+02  0.45594000000E+02  0.51100000000E-03 0. -1.
    9900012    2    1    2    0    0  0.28733080737E+02  0.89149645443E+01  0.10566619931E+02  0.59301953236E+02  0.50000016794E+02 0.  0.
         12    1    1    2    0    0 -0.28733080737E+02 -0.89149645443E+01 -0.10566619931E+02  0.31886046764E+02  0.00000000000E+00 0. -1.
         11    1    3    3    0    0 -0.60940607492E+01 -0.10080917920E+02 -0.64028111707E+01  0.13407403689E+02  0.51100000000E-03 0. -1.
        -11    1    3    3    0    0  0.23944940163E+02  0.58483000110E+01  0.14641824858E+02  0.28669597274E+02  0.51100000000E-03 0.  1.
         12    1    3    3    0    0  0.10882201324E+02  0.13147582453E+02  0.23276062433E+01  0.17224952274E+02  0.00000000000E+00 0. -1.
</event>
<event>
 7    1  0.7457761E-012  0.5930198E+02  0.7816164E-02  0.1266605E+00
        -11   -1    0    0    0    0  0.00000000000E+00  0.00000000000E+00  0.45593999997E+02  0.45594000000E+02  0.51100000000E-03 0. -1.
         11   -1    0    0    0    0 -0.00000000000E+00 -0.00000000000E+00 -0.45593999997E+02  0.45594000000E+02  0.51100000000E-03 0.  1.
    9900012    2    1    2    0    0 -0.13216883474E+02 -0.21384028141E+02 -0.19615194258E+02  0.59301976195E+02  0.50000058665E+02 0.  0.
         12    1    1    2    0    0  0.13216883474E+02  0.21384028141E+02  0.19615194258E+02  0.31886023805E+02  0.00000000000E+00 0. -1.
         11    1    3    3    0    0 -0.96402916681E+01 -0.14232680597E+01  0.39776902211E+01  0.10525347271E+02  0.51100000000E-03 0. -1.
        -11    1    3    3    0    0  0.12757710108E+02 -0.73684187226E+01 -0.23984810242E+02  0.28148248335E+02  0.51100000000E-03 0.  1.
        -12    1    3    3    0    0 -0.16334301915E+02 -0.12592341359E+02  0.39192576300E+00  0.20628380589E+02  0.00000000000E+00 0.  1.
</event>
<event>
 7    1  0.7457761E-012  0.5930194E+02  0.7816164E-02  0.1266605E+00
        -11   -1    0    0    0    0  0.00000000000E+00  0.00000000000E+00  0.45593999997E+02  0.45594000000E+02  0.51100000000E-03 0.  1.
         11   -1    0    0    0    0 -0.00000000000E+00 -0.00000000000E+00 -0.45593999997E+02  0.45594000000E+02  0.51100000000E-03 0. -1.
    9900012    2    1    2    0    0  0.21090379254E+02 -0.12463356494E+01 -0.23882282799E+02  0.59301939075E+02  0.49999990968E+02 0.  0.
         12    1    1    2    0    0 -0.21090379254E+02  0.12463356494E+01  0.23882282799E+02  0.31886060925E+02  0.00000000000E+00 0. -1.
         11    1    3    3    0    0  0.29444223473E+02  0.11038378744E+02 -0.13119830934E+02  0.34072541220E+02  0.51100000000E-03 0. -1.
        -11    1    3    3    0    0  0.11485128650E+01 -0.13091497393E+02 -0.76056398240E+01  0.15183943598E+02  0.51100000000E-03 0.  1.
         12    1    3    3    0    0 -0.95023570840E+01  0.80678300030E+00 -0.31568120414E+01  0.10045454257E+02  0.00000000000E+00 0. -1.
</event>
<event>
 7    1  0.7457761E-012  0.5930192E+02  0.7816164E-02  0.1266605E+00
        -11   -1    0    0    0    0  0.00000000000E+00  0.00000000000E+00  0.45593999997E+02  0.45594000000E+02  0.51100000000E-03 0.  1.
         11   -1    0    0    0    0 -0.00000000000E+00 -0.00000000000E+00 -0.45593999997E+02  0.45594000000E+02  0.51100000000E-03 0. -1.
    9900012    2    1    2    0    0  0.29324280135E+02 -0.94853857995E+01  0.81753420271E+01  0.59301918923E+02  0.49999954215E+02 0.  0.
         12    1    1    2    0    0 -0.29324280135E+02  0.94853857995E+01 -0.81753420271E+01  0.31886081077E+02  0.00000000000E+00 0. -1.
         11    1    3    3    0    0 -0.13261257961E+01  0.23661742755E+01 -0.39120839949E+00  0.27405172143E+01  0.51100000000E-03 0. -1.
        -11    1    3    3    0    0  0.28324193680E+02 -0.87375237821E+01 -0.14620425172E+02  0.33050886553E+02  0.51100000000E-03 0.  1.
        -12    1    3    3    0    0  0.23262122509E+01 -0.31140362929E+01  0.23186975598E+02  0.23510515155E+02  0.00000000000E+00 0.  1.
</event>
<event>
 7    1  0.7457761E-012  0.5930198E+02  0.7816164E-02  0.1266605E+00
        -11   -1    0    0    0    0  0.00000000000E+00  0.00000000000E+00  0.45593999997E+02  0.45594000000E+02  0.51100000000E-03 0.  1.
         11   -1    0    0    0    0 -0.00000000000E+00 -0.00000000000E+00 -0.45593999997E+02  0.45594000000E+02  0.51100000000E-03 0. -1.
    9900012    2    1    2    0    0  0.29877359071E+02  0.10716950899E+02  0.30346200028E+01  0.59301975786E+02  0.50000057919E+02 0.  0.
         12    1    1    2    0    0 -0.29877359071E+02 -0.10716950899E+02 -0.30346200028E+01  0.31886024214E+02  0.00000000000E+00 0. -1.
         11    1    3    3    0    0  0.28733883567E+02  0.19921201456E+02 -0.75603224205E+01  0.35772179241E+02  0.51100000000E-03 0. -1.
        -11    1    3    3    0    0  0.90424619542E+01 -0.61135513883E+01  0.10353122548E+02  0.15044227316E+02  0.51100000000E-03 0.  1.
         12    1    3    3    0    0 -0.78989864503E+01 -0.30906991687E+01  0.24181987553E+00  0.84855692293E+01  0.00000000000E+00 0. -1.
</event>
<event>
 7    1  0.7457761E-012  0.5930194E+02  0.7816164E-02  0.1266605E+00
        -11   -1    0    0    0    0  0.00000000000E+00  0.00000000000E+00  0.45593999997E+02  0.45594000000E+02  0.51100000000E-03 0. -1.
         11   -1    0    0    0    0 -0.00000000000E+00 -0.00000000000E+00 -0.45593999997E+02  0.45594000000E+02  0.51100000000E-03 0.  1.
    9900012    2    1    2    0    0  0.21205875226E+02 -0.34157832505E+01 -0.23566158222E+02  0.59301944542E+02  0.50000000939E+02 0.  0.
         12    1    1    2    0    0 -0.21205875226E+02  0.34157832505E+01  0.23566158222E+02  0.31886055458E+02  0.00000000000E+00 0. -1.
         11    1    3    3    0    0  0.21911269712E+01  0.46882239614E+01  0.45441488680E+01  0.68869275088E+01  0.51100000000E-03 0. -1.
        -11    1    3    3    0    0  0.10301809042E+02 -0.18147580380E+02 -0.32317356680E+02  0.38469123804E+02  0.51100000000E-03 0.  1.
        -12    1    3    3    0    0  0.87129392127E+01  0.10043573169E+02  0.42070495902E+01  0.13945893230E+02  0.00000000000E+00 0.  1.
</event>
<event>
 7    1  0.7457761E-012  0.5930192E+02  0.7816164E-02  0.1266605E+00
        -11   -1    0    0    0    0  0.00000000000E+00  0.00000000000E+00  0.45593999997E+02  0.45594000000E+02  0.51100000000E-03 0.  1.
         11   -1    0    0    0    0 -0.00000000000E+00 -0.00000000000E+00 -0.45593999997E+02  0.45594000000E+02  0.51100000000E-03 0. -1.
    9900012    2    1    2    0    0 -0.31376895221E+01  0.14909438741E+02  0.28010456003E+02  0.59301919892E+02  0.49999955983E+02 0.  0.
         12    1    1    2    0    0  0.31376895221E+01 -0.14909438741E+02 -0.28010456003E+02  0.31886080108E+02  0.00000000000E+00 0. -1.
         11    1    3    3    0    0  0.14698705374E+02 -0.46230256176E+01  0.35095791453E+01  0.15803210167E+02  0.51100000000E-03 0. -1.
        -11    1    3    3    0    0 -0.96119494567E+01  0.24438732513E+02  0.19388683810E+02  0.32642951449E+02  0.51100000000E-03 0.  1.
        -12    1    3    3    0    0 -0.82244454395E+01 -0.49062681539E+01  0.51121930486E+01  0.10855758276E+02  0.00000000000E+00 0.  1.
</event>
<event>
 7    1  0.7457761E-012  0.5930197E+02  0.7816164E-02  0.1266605E+00
        -11   -1    0    0    0    0  0.00000000000E+00  0.00000000000E+00  0.45593999997E+02  0.45594000000E+02  0.51100000000E-03 0. -1.
         11   -1    0    0    0    0 -0.00000000000E+00 -0.00000000000E+00 -0.45593999997E+02  0.45594000000E+02  0.51100000000E-03 0.  1.
    9900012    2    1    2    0    0 -0.19706867979E+02  0.50118131084E+00 -0.25062065462E+02  0.59301969305E+02  0.50000046100E+02 0.  0.
         12    1    1    2    0    0  0.19706867979E+02 -0.50118131084E+00  0.25062065462E+02  0.31886030695E+02  0.00000000000E+00 0. -1.
         11    1    3    3    0    0  0.97379638657E+01  0.12820187799E+02 -0.28104745710E+00  0.16101681384E+02  0.51100000000E-03 0. -1.
        -11    1    3    3    0    0 -0.18137530590E+02 -0.14138413058E+02 -0.11660302176E+02  0.25784246873E+02  0.51100000000E-03 0.  1.
        -12    1    3    3    0    0 -0.11307301254E+02  0.18194065699E+01 -0.13120715829E+02  0.17416041048E+02  0.00000000000E+00 0.  1.
</event>
<event>
 7    1  0.7457761E-012  0.5930190E+02  0.7816164E-02  0.1266605E+00
        -11   -1    0    0    0    0  0.00000000000E+00  0.00000000000E+00  0.45593999997E+02  0.45594000000E+02  0.51100000000E-03 0.  1.
         11   -1    0    0    0    0 -0.00000000000E+00 -0.00000000000E+00 -0.45593999997E+02  0.45594000000E+02  0.51100000000E-03 0. -1.
    9900012    2    1    2    0    0  0.23103046238E+02 -0.20286901308E+02  0.84506777131E+01  0.59301904849E+02  0.49999928547E+02 0.  0.
         12    1    1    2    0    0 -0.23103046238E+02  0.20286901308E+02 -0.84506777131E+01  0.31886095151E+02  0.00000000000E+00 0. -1.
         11    1    3    3    0    0 -0.10452665219E+02 -0.16510544541E+02 -0.78209581630E+01  0.21048127662E+02  0.51100000000E-03 0. -1.
        -11    1    3    3    0    0  0.10635411007E+02 -0.30594886465E+01  0.20059970437E+01  0.11247064616E+02  0.51100000000E-03 0.  1.
         12    1    3    3    0    0  0.22920300450E+02 -0.71686812097E+00  0.14265638832E+02  0.27006712571E+02  0.00000000000E+00 0. -1.
</event>
<event>
 7    1  0.7457761E-012  0.5930189E+02  0.7816164E-02  0.1266605E+00
        -11   -1    0    0    0    0  0.00000000000E+00  0.00000000000E+00  0.45593999997E+02  0.45594000000E+02  0.51100000000E-03 0. -1.
         11   -1    0    0    0    0 -0.00000000000E+00 -0.00000000000E+00 -0.45593999997E+02  0.45594000000E+02  0.51100000000E-03 0.  1.
    9900012    2    1    2    0    0 -0.62545209391E+01  0.82600797124E+01 -0.30155860301E+02  0.59301892374E+02  0.49999905795E+02 0.  0.
         12    1    1    2    0    0  0.62545209391E+01 -0.82600797124E+01  0.30155860301E+02  0.31886107626E+02  0.00000000000E+00 0. -1.
         11    1    3    3    0    0 -0.77706536276E+01  0.12111504611E+02 -0.12599873190E+02  0.19126641274E+02  0.51100000000E-03 0. -1.
        -11    1    3    3    0    0 -0.15047702866E+01 -0.19531505016E+02 -0.13205629897E+02  0.23624831916E+02  0.51100000000E-03 0.  1.
        -12    1    3    3    0    0  0.30209029751E+01  0.15680080118E+02 -0.43503572145E+01  0.16550419184E+02  0.00000000000E+00 0.  1.
</event>
<event>
 7    1  0.7457761E-012  0.5930189E+02  0.7816164E-02  0.1266605E+00
        -11   -1    0    0    0    0  0.00000000000E+00  0.00000000000E+00  0.45593999997E+02  0.45594000000E+02  0.51100000000E-03 0. -1.
         11   -1    0    0    0    0 -0.00000000000E+00 -0.00000000000E+00 -0.45593999997E+02  0.45594000000E+02  0.51100000000E-03 0.  1.
    9900012    2    1    2    0    0 -0.11892243799E+02 -0.13883657105E+02 -0.26125522492E+02  0.59301885112E+02  0.49999892552E+02 0.  0.
         12    1    1    2    0    0  0.11892243799E+02  0.13883657105E+02  0.26125522492E+02  0.31886114888E+02  0.00000000000E+00 0. -1.
         11    1    3    3    0    0 -0.76835848500E+01  0.70013275556E+01 -0.17822549731E+02  0.20632482712E+02  0.51100000000E-03 0. -1.
        -11    1    3    3    0    0  0.81990857069E+01 -0.11405708949E+02  0.79423340051E+01  0.16136786321E+02  0.51100000000E-03 0.  1.
        -12    1    3    3    0    0 -0.12407744656E+02 -0.94792757116E+01 -0.16245306766E+02  0.22532616080E+02  0.00000000000E+00 0.  1.
</event>
<event>
 7    1  0.7457761E-012  0.5930195E+02  0.7816164E-02  0.1266605E+00
        -11   -1    0    0    0    0  0.00000000000E+00  0.00000000000E+00  0.45593999997E+02  0.45594000000E+02  0.51100000000E-03 0.  1.
         11   -1    0    0    0    0 -0.00000000000E+00 -0.00000000000E+00 -0.45593999997E+02  0.45594000000E+02  0.51100000000E-03 0. -1.
    9900012    2    1    2    0    0  0.25290678887E+02  0.18730273483E+02  0.51262821661E+01  0.59301947372E+02  0.50000006100E+02 0.  0.
         12    1    1    2    0    0 -0.25290678887E+02 -0.18730273483E+02 -0.51262821661E+01  0.31886052628E+02  0.00000000000E+00 0. -1.
         11    1    3    3    0    0  0.19953336142E+01 -0.36673043397E+01  0.14899973444E+02  0.15473838768E+02  0.51100000000E-03 0. -1.
        -11    1    3    3    0    0  0.29475425849E+02  0.17502938803E+02 -0.10648105857E+02  0.35896180219E+02  0.51100000000E-03 0.  1.
        -12    1    3    3    0    0 -0.61800805756E+01  0.48946390192E+01  0.87441457923E+00  0.79319283851E+01  0.00000000000E+00 0.  1.
</event>
<event>
 7    1  0.7457761E-012  0.5930206E+02  0.7816164E-02  0.1266604E+00
        -11   -1    0    0    0    0  0.00000000000E+00  0.00000000000E+00  0.45593999997E+02  0.45594000000E+02  0.51100000000E-03 0.  1.
         11   -1    0    0    0    0 -0.00000000000E+00 -0.00000000000E+00 -0.45593999997E+02  0.45594000000E+02  0.51100000000E-03 0. -1.
    9900012    2    1    2    0    0 -0.23760923980E+02  0.15293340972E+01  0.21208313057E+02  0.59302064011E+02  0.50000218820E+02 0.  0.
         12    1    1    2    0    0  0.23760923980E+02 -0.15293340972E+01 -0.21208313057E+02  0.31885935989E+02  0.00000000000E+00 0. -1.
         11    1    3    3    0    0 -0.19134597210E+02 -0.66452166872E+01  0.68674711222E+01  0.21388171383E+02  0.51100000000E-03 0. -1.
        -11    1    3    3    0    0 -0.11038893382E+01  0.94468146627E+01  0.24929608520E+02  0.26682321116E+02  0.51100000000E-03 0.  1.
         12    1    3    3    0    0 -0.35224374321E+01 -0.12722638783E+01 -0.10588766585E+02  0.11231571512E+02  0.00000000000E+00 0. -1.
</event>
<event>
 7    1  0.7457761E-012  0.5930195E+02  0.7816164E-02  0.1266605E+00
        -11   -1    0    0    0    0  0.00000000000E+00  0.00000000000E+00  0.45593999997E+02  0.45594000000E+02  0.51100000000E-03 0. -1.
         11   -1    0    0    0    0 -0.00000000000E+00 -0.00000000000E+00 -0.45593999997E+02  0.45594000000E+02  0.51100000000E-03 0.  1.
    9900012    2    1    2    0    0  0.20570932317E+02  0.22961696417E+02 -0.81435431952E+01  0.59301952040E+02  0.50000014613E+02 0.  0.
         12    1    1    2    0    0 -0.20570932317E+02 -0.22961696417E+02  0.81435431952E+01  0.31886047960E+02  0.00000000000E+00 0. -1.
         11    1    3    3    0    0  0.15020255536E+02  0.34872970722E+02 -0.13676988033E+02  0.40358297354E+02  0.51100000000E-03 0.  1.
        -11    1    3    3    0    0  0.87116303605E+01 -0.11864756721E+02  0.33336959453E+01  0.15092331977E+02  0.51100000000E-03 0. -1.
        -12    1    3    3    0    0 -0.31609535798E+01 -0.46517584527E-01  0.21997488929E+01  0.38513227093E+01  0.00000000000E+00 0.  1.
</event>
<event>
 7    1  0.7457761E-012  0.5930194E+02  0.7816164E-02  0.1266605E+00
        -11   -1    0    0    0    0  0.00000000000E+00  0.00000000000E+00  0.45593999997E+02  0.45594000000E+02  0.51100000000E-03 0.  1.
         11   -1    0    0    0    0 -0.00000000000E+00 -0.00000000000E+00 -0.45593999997E+02  0.45594000000E+02  0.51100000000E-03 0. -1.
    9900012    2    1    2    0    0 -0.21516908715E+01  0.21955160722E+02  0.23023068134E+02  0.59301944705E+02  0.50000001235E+02 0.  0.
         12    1    1    2    0    0  0.21516908715E+01 -0.21955160722E+02 -0.23023068134E+02  0.31886055295E+02  0.00000000000E+00 0. -1.
         11    1    3    3    0    0  0.12169481440E+02  0.58044050353E-01  0.21193401930E+02  0.24438902047E+02  0.51100000000E-03 0. -1.
        -11    1    3    3    0    0 -0.20276131659E+02  0.12931872273E+02  0.10447256713E+01  0.24071690583E+02  0.51100000000E-03 0.  1.
        -12    1    3    3    0    0  0.59549593474E+01  0.89652443987E+01  0.78494053317E+00  0.10791352075E+02  0.00000000000E+00 0.  1.
</event>
<event>
 7    1  0.7457761E-012  0.5930193E+02  0.7816164E-02  0.1266605E+00
        -11   -1    0    0    0    0  0.00000000000E+00  0.00000000000E+00  0.45593999997E+02  0.45594000000E+02  0.51100000000E-03 0. -1.
         11   -1    0    0    0    0 -0.00000000000E+00 -0.00000000000E+00 -0.45593999997E+02  0.45594000000E+02  0.51100000000E-03 0.  1.
    9900012    2    1    2    0    0 -0.16195052899E+02 -0.13510495371E+02 -0.23914600637E+02  0.59301931770E+02  0.49999977645E+02 0.  0.
         12    1    1    2    0    0  0.16195052899E+02  0.13510495371E+02  0.23914600637E+02  0.31886068230E+02  0.00000000000E+00 0. -1.
         11    1    3    3    0    0 -0.15861133929E+02  0.10641005786E+02 -0.53734050503E+01  0.19841372325E+02  0.51100000000E-03 0. -1.
        -11    1    3    3    0    0 -0.57972115535E+00 -0.13751763177E+02 -0.24034445000E+02  0.27696599318E+02  0.51100000000E-03 0.  1.
        -12    1    3    3    0    0  0.24580218590E+00 -0.10399737979E+02  0.54932494128E+01  0.11763960127E+02  0.00000000000E+00 0.  1.
</event>
<event>
 7    1  0.7457761E-012  0.5930193E+02  0.7816164E-02  0.1266605E+00
        -11   -1    0    0    0    0  0.00000000000E+00  0.00000000000E+00  0.45593999997E+02  0.45594000000E+02  0.51100000000E-03 0. -1.
         11   -1    0    0    0    0 -0.00000000000E+00 -0.00000000000E+00 -0.45593999997E+02  0.45594000000E+02  0.51100000000E-03 0.  1.
    9900012    2    1    2    0    0  0.14940531700E+02  0.14897469381E+02  0.23907477419E+02  0.59301928464E+02  0.49999971616E+02 0.  0.
         12    1    1    2    0    0 -0.14940531700E+02 -0.14897469381E+02 -0.23907477419E+02  0.31886071536E+02  0.00000000000E+00 0. -1.
         11    1    3    3    0    0 -0.14746593088E+02 -0.64587722033E+01  0.86610744811E+01  0.18280917852E+02  0.51100000000E-03 0. -1.
        -11    1    3    3    0    0  0.74118452353E+01  0.91915661638E+01  0.84135440705E+00  0.11837576434E+02  0.51100000000E-03 0.  1.
         12    1    3    3    0    0  0.22275279553E+02  0.12164675421E+02  0.14405048531E+02  0.29183434178E+02  0.00000000000E+00 0. -1.
</event>
<event>
 7    1  0.7457761E-012  0.5930194E+02  0.7816164E-02  0.1266605E+00
        -11   -1    0    0    0    0  0.00000000000E+00  0.00000000000E+00  0.45593999997E+02  0.45594000000E+02  0.51100000000E-03 0. -1.
         11   -1    0    0    0    0 -0.00000000000E+00 -0.00000000000E+00 -0.45593999997E+02  0.45594000000E+02  0.51100000000E-03 0.  1.
    9900012    2    1    2    0    0 -0.18804230417E+02  0.96825282827E+01 -0.23861480508E+02  0.59301942113E+02  0.49999996509E+02 0.  0.
         12    1    1    2    0    0  0.18804230417E+02 -0.96825282827E+01  0.23861480508E+02  0.31886057887E+02  0.00000000000E+00 0. -1.
         11    1    3    3    0    0 -0.60319658824E+01  0.18675693915E+01  0.31753779799E+01  0.70679171907E+01  0.51100000000E-03 0. -1.
        -11    1    3    3    0    0 -0.45248201609E+01  0.18290928244E+02 -0.32706414159E+02  0.37745749177E+02  0.51100000000E-03 0.  1.
        -12    1    3    3    0    0 -0.82474443739E+01 -0.10475969353E+02  0.56695556710E+01  0.14488275746E+02  0.00000000000E+00 0.  1.
</event>
<event>
 7    1  0.7457761E-012  0.5930197E+02  0.7816164E-02  0.1266605E+00
        -11   -1    0    0    0    0  0.00000000000E+00  0.00000000000E+00  0.45593999997E+02  0.45594000000E+02  0.51100000000E-03 0. -1.
         11   -1    0    0    0    0 -0.00000000000E+00 -0.00000000000E+00 -0.45593999997E+02  0.45594000000E+02  0.51100000000E-03 0.  1.
    9900012    2    1    2    0    0 -0.16390753916E+02  0.27080492707E+01 -0.27216334023E+02  0.59301965715E+02  0.50000039553E+02 0.  0.
         12    1    1    2    0    0  0.16390753916E+02 -0.27080492707E+01  0.27216334023E+02  0.31886034285E+02  0.00000000000E+00 0. -1.
         11    1    3    3    0    0  0.13542467351E+02  0.19818069430E+01 -0.38277850895E+01  0.14211893599E+02  0.51100000000E-03 0. -1.
        -11    1    3    3    0    0 -0.29420037739E+02 -0.41926796809E+01 -0.26010359072E+02  0.39492479825E+02  0.51100000000E-03 0.  1.
         12    1    3    3    0    0 -0.51318352784E+00  0.49189220085E+01  0.26218101385E+01  0.55975922914E+01  0.00000000000E+00 0. -1.
</event>
<event>
 7    1  0.7457761E-012  0.5930202E+02  0.7816164E-02  0.1266604E+00
        -11   -1    0    0    0    0  0.00000000000E+00  0.00000000000E+00  0.45593999997E+02  0.45594000000E+02  0.51100000000E-03 0.  1.
         11   -1    0    0    0    0 -0.00000000000E+00 -0.00000000000E+00 -0.45593999997E+02  0.45594000000E+02  0.51100000000E-03 0. -1.
    9900012    2    1    2    0    0  0.16655838814E+02 -0.26140046344E+02 -0.74830975376E+01  0.59302019723E+02  0.50000138050E+02 0.  0.
         12    1    1    2    0    0 -0.16655838814E+02  0.26140046344E+02  0.74830975376E+01  0.31885980277E+02  0.00000000000E+00 0. -1.
         11    1    3    3    0    0  0.63880146894E+01  0.56906846535E+00 -0.10460802718E+02  0.12270247119E+02  0.51100000000E-03 0. -1.
        -11    1    3    3    0    0 -0.10741960609E+02 -0.40216210903E+01  0.10119872816E+02  0.15296240714E+02  0.51100000000E-03 0.  1.
        -12    1    3    3    0    0  0.21009784733E+02 -0.22687493719E+02 -0.71421676361E+01  0.31735531890E+02  0.00000000000E+00 0.  1.
</event>
<event>
 7    1  0.7457761E-012  0.5930195E+02  0.7816164E-02  0.1266605E+00
        -11   -1    0    0    0    0  0.00000000000E+00  0.00000000000E+00  0.45593999997E+02  0.45594000000E+02  0.51100000000E-03 0. -1.
         11   -1    0    0    0    0 -0.00000000000E+00 -0.00000000000E+00 -0.45593999997E+02  0.45594000000E+02  0.51100000000E-03 0.  1.
    9900012    2    1    2    0    0 -0.68813339402E+01  0.20379433280E+01 -0.31067892072E+02  0.59301954658E+02  0.50000019386E+02 0.  0.
         12    1    1    2    0    0  0.68813339402E+01 -0.20379433280E+01  0.31067892072E+02  0.31886045342E+02  0.00000000000E+00 0. -1.
         11    1    3    3    0    0  0.50011049078E+01 -0.13229281277E+02  0.70777948814E+01  0.15815186185E+02  0.51100000000E-03 0. -1.
        -11    1    3    3    0    0 -0.14177547019E+01  0.30113443702E+01 -0.14462013046E+02  0.14840082376E+02  0.51100000000E-03 0.  1.
         12    1    3    3    0    0 -0.10464684146E+02  0.12255880235E+02 -0.23683673907E+02  0.28646686097E+02  0.00000000000E+00 0. -1.
</event>
<event>
 7    1  0.7457761E-012  0.5930192E+02  0.7816164E-02  0.1266605E+00
        -11   -1    0    0    0    0  0.00000000000E+00  0.00000000000E+00  0.45593999997E+02  0.45594000000E+02  0.51100000000E-03 0.  1.
         11   -1    0    0    0    0 -0.00000000000E+00 -0.00000000000E+00 -0.45593999997E+02  0.45594000000E+02  0.51100000000E-03 0. -1.
    9900012    2    1    2    0    0 -0.16991790306E+02  0.26779896774E+02  0.32921977897E+01  0.59301915648E+02  0.49999948242E+02 0.  0.
         12    1    1    2    0    0  0.16991790306E+02 -0.26779896774E+02 -0.32921977897E+01  0.31886084352E+02  0.00000000000E+00 0. -1.
         11    1    3    3    0    0 -0.30082246857E+02  0.24134035492E+02  0.40919785713E+01  0.38783212013E+02  0.51100000000E-03 0. -1.
        -11    1    3    3    0    0  0.11760910597E+02 -0.49051670721E+01  0.44773038946E+00  0.12750691936E+02  0.51100000000E-03 0.  1.
        -12    1    3    3    0    0  0.13295459546E+01  0.75510283535E+01 -0.12475111710E+01  0.77680116994E+01  0.00000000000E+00 0.  1.
</event>
<event>
 7    1  0.7457761E-012  0.5930195E+02  0.7816164E-02  0.1266605E+00
        -11   -1    0    0    0    0  0.00000000000E+00  0.00000000000E+00  0.45593999997E+02  0.45594000000E+02  0.51100000000E-03 0. -1.
         11   -1    0    0    0    0 -0.00000000000E+00 -0.00000000000E+00 -0.45593999997E+02  0.45594000000E+02  0.51100000000E-03 0.  1.
    9900012    2    1    2    0    0 -0.12805413469E+02  0.21836042498E+02 -0.19388878346E+02  0.59301953371E+02  0.50000017041E+02 0.  0.
         12    1    1    2    0    0  0.12805413469E+02 -0.21836042498E+02  0.19388878346E+02  0.31886046629E+02  0.00000000000E+00 0. -1.
         11    1    3    3    0    0  0.73946973983E+00 -0.34197185874E+01  0.28162331919E+01  0.44913762217E+01  0.51100000000E-03 0. -1.
        -11    1    3    3    0    0 -0.60402566703E+01  0.33450399703E+02 -0.50403186825E+01  0.34363043427E+02  0.51100000000E-03 0.  1.
        -12    1    3    3    0    0 -0.75046265388E+01 -0.81946386176E+01 -0.17164792855E+02  0.20447533722E+02  0.00000000000E+00 0.  1.
</event>
<event>
 7    1  0.7457761E-012  0.5930195E+02  0.7816164E-02  0.1266605E+00
        -11   -1    0    0    0    0  0.00000000000E+00  0.00000000000E+00  0.45593999997E+02  0.45594000000E+02  0.51100000000E-03 0. -1.
         11   -1    0    0    0    0 -0.00000000000E+00 -0.00000000000E+00 -0.45593999997E+02  0.45594000000E+02  0.51100000000E-03 0.  1.
    9900012    2    1    2    0    0  0.22594232449E+01  0.28311246502E+02 -0.14494438335E+02  0.59301946394E+02  0.50000004316E+02 0.  0.
         12    1    1    2    0    0 -0.22594232449E+01 -0.28311246502E+02  0.14494438335E+02  0.31886053606E+02  0.00000000000E+00 0. -1.
         11    1    3    3    0    0 -0.10787904447E+02  0.28578160690E+02 -0.21203986011E+02  0.37184663153E+02  0.51100000000E-03 0. -1.
        -11    1    3    3    0    0  0.77455269544E+01 -0.75090942301E+01  0.74515095793E+01  0.13111242475E+02  0.51100000000E-03 0.  1.
         12    1    3    3    0    0  0.53018007373E+01  0.72421800423E+01 -0.74196190296E+00  0.90060407666E+01  0.00000000000E+00 0. -1.
</event>
<event>
 7    1  0.7457761E-012  0.5930198E+02  0.7816164E-02  0.1266605E+00
        -11   -1    0    0    0    0  0.00000000000E+00  0.00000000000E+00  0.45593999997E+02  0.45594000000E+02  0.51100000000E-03 0. -1.
         11   -1    0    0    0    0 -0.00000000000E+00 -0.00000000000E+00 -0.45593999997E+02  0.45594000000E+02  0.51100000000E-03 0.  1.
    9900012    2    1    2    0    0 -0.14095612483E+02  0.65970942473E+01 -0.27830026380E+02  0.59301979362E+02  0.50000064441E+02 0.  0.
         12    1    1    2    0    0  0.14095612483E+02 -0.65970942473E+01  0.27830026380E+02  0.31886020638E+02  0.00000000000E+00 0. -1.
         11    1    3    3    0    0 -0.90342897747E+01 -0.87348940160E+01  0.72710999451E+00  0.12587511843E+02  0.51100000000E-03 0. -1.
        -11    1    3    3    0    0  0.64785606496E+00 -0.57235575654E+00 -0.29761067051E+02  0.29773619546E+02  0.51100000000E-03 0.  1.
         12    1    3    3    0    0 -0.57091787736E+01  0.15904344020E+02  0.12039306756E+01  0.16940847973E+02  0.00000000000E+00 0. -1.
</event>
<event>
 7    1  0.7457761E-012  0.5930194E+02  0.7816164E-02  0.1266605E+00
        -11   -1    0    0    0    0  0.00000000000E+00  0.00000000000E+00  0.45593999997E+02  0.45594000000E+02  0.51100000000E-03 0. -1.
         11   -1    0    0    0    0 -0.00000000000E+00 -0.00000000000E+00 -0.45593999997E+02  0.45594000000E+02  0.51100000000E-03 0.  1.
    9900012    2    1    2    0    0  0.39991592450E+00 -0.21812105788E+02 -0.23254952041E+02  0.59301942136E+02  0.49999996551E+02 0.  0.
         12    1    1    2    0    0 -0.39991592450E+00  0.21812105788E+02  0.23254952041E+02  0.31886057864E+02  0.00000000000E+00 0. -1.
         11    1    3    3    0    0  0.88195647388E+01  0.13295126555E+02 -0.93225497569E+01  0.18478502280E+02  0.51100000000E-03 0. -1.
        -11    1    3    3    0    0  0.16823395337E+01 -0.15739128452E+02 -0.20628714541E+01  0.15962639808E+02  0.51100000000E-03 0.  1.
         12    1    3    3    0    0 -0.10101988348E+02 -0.19368103891E+02 -0.11869530830E+02  0.24860800048E+02  0.00000000000E+00 0. -1.
</event>
<event>
 7    1  0.7457761E-012  0.5930196E+02  0.7816164E-02  0.1266605E+00
        -11   -1    0    0    0    0  0.00000000000E+00  0.00000000000E+00  0.45593999997E+02  0.45594000000E+02  0.51100000000E-03 0. -1.
         11   -1    0    0    0    0 -0.00000000000E+00 -0.00000000000E+00 -0.45593999997E+02  0.45594000000E+02  0.51100000000E-03 0.  1.
    9900012    2    1    2    0    0  0.20728043221E+02  0.24085294075E+02 -0.26393745556E+01  0.59301961291E+02  0.50000031485E+02 0.  0.
         12    1    1    2    0    0 -0.20728043221E+02 -0.24085294075E+02  0.26393745556E+01  0.31886038709E+02  0.00000000000E+00 0. -1.
         11    1    3    3    0    0  0.26591602363E+02 -0.39757562811E+00  0.39013682966E+01  0.26879212367E+02  0.51100000000E-03 0.  1.
        -11    1    3    3    0    0 -0.11037592064E+02  0.21785373240E+02 -0.11030867375E+01  0.24446834691E+02  0.51100000000E-03 0. -1.
         12    1    3    3    0    0  0.51740329215E+01  0.26974964632E+01 -0.54376561147E+01  0.79759142337E+01  0.00000000000E+00 0. -1.
</event>
<event>
 7    1  0.7457761E-012  0.5930197E+02  0.7816164E-02  0.1266605E+00
        -11   -1    0    0    0    0  0.00000000000E+00  0.00000000000E+00  0.45593999997E+02  0.45594000000E+02  0.51100000000E-03 0. -1.
         11   -1    0    0    0    0 -0.00000000000E+00 -0.00000000000E+00 -0.45593999997E+02  0.45594000000E+02  0.51100000000E-03 0.  1.
    9900012    2    1    2    0    0 -0.30051394944E+02  0.15827333435E+01 -0.10541698483E+02  0.59301971871E+02  0.50000050780E+02 0.  0.
         12    1    1    2    0    0  0.30051394944E+02 -0.15827333435E+01  0.10541698483E+02  0.31886028129E+02  0.00000000000E+00 0. -1.
         11    1    3    3    0    0 -0.11042577647E+02  0.16873513932E+02  0.34766275577E+01  0.20463160385E+02  0.51100000000E-03 0.  1.
        -11    1    3    3    0    0 -0.50111002817E+01 -0.14503331988E+02 -0.18578449957E+02  0.24095986551E+02  0.51100000000E-03 0. -1.
         12    1    3    3    0    0 -0.13997717016E+02 -0.78744860098E+00  0.45601239162E+01  0.14742824936E+02  0.00000000000E+00 0. -1.
</event>
<event>
 7    1  0.7457761E-012  0.5930193E+02  0.7816164E-02  0.1266605E+00
        -11   -1    0    0    0    0  0.00000000000E+00  0.00000000000E+00  0.45593999997E+02  0.45594000000E+02  0.51100000000E-03 0. -1.
         11   -1    0    0    0    0 -0.00000000000E+00 -0.00000000000E+00 -0.45593999997E+02  0.45594000000E+02  0.51100000000E-03 0.  1.
    9900012    2    1    2    0    0  0.20323916132E+02  0.23151508885E+02 -0.82260463801E+01  0.59301925145E+02  0.49999965563E+02 0.  0.
         12    1    1    2    0    0 -0.20323916132E+02 -0.23151508885E+02  0.82260463801E+01  0.31886074855E+02  0.00000000000E+00 0. -1.
         11    1    3    3    0    0 -0.18343786350E+01  0.26476531801E+00  0.11297411660E+02  0.11448430291E+02  0.51100000000E-03 0. -1.
        -11    1    3    3    0    0  0.24666280224E+02  0.97952802937E+01 -0.31287224674E+01  0.26723805879E+02  0.51100000000E-03 0.  1.
        -12    1    3    3    0    0 -0.25079854563E+01  0.13091463273E+02 -0.16394735573E+02  0.21129688975E+02  0.00000000000E+00 0.  1.
</event>
<event>
 7    1  0.7457761E-012  0.5930195E+02  0.7816164E-02  0.1266605E+00
        -11   -1    0    0    0    0  0.00000000000E+00  0.00000000000E+00  0.45593999997E+02  0.45594000000E+02  0.51100000000E-03 0. -1.
         11   -1    0    0    0    0 -0.00000000000E+00 -0.00000000000E+00 -0.45593999997E+02  0.45594000000E+02  0.51100000000E-03 0.  1.
    9900012    2    1    2    0    0  0.12359501034E+02  0.28958069338E+02 -0.50391453516E+01  0.59301952401E+02  0.50000015271E+02 0.  0.
         12    1    1    2    0    0 -0.12359501034E+02 -0.28958069338E+02  0.50391453516E+01  0.31886047599E+02  0.00000000000E+00 0. -1.
         11    1    3    3    0    0  0.27248448928E+02  0.28783921836E+02 -0.85144795228E+01  0.40539961607E+02  0.51100000000E-03 0. -1.
        -11    1    3    3    0    0 -0.44066348965E+01  0.51913004138E+01  0.10389704188E+01  0.68882139114E+01  0.51100000000E-03 0.  1.
         12    1    3    3    0    0 -0.10482312998E+02 -0.50171529116E+01  0.24363637524E+01  0.11873776883E+02  0.00000000000E+00 0. -1.
</event>
<event>
 7    1  0.7457761E-012  0.5930196E+02  0.7816164E-02  0.1266605E+00
        -11   -1    0    0    0    0  0.00000000000E+00  0.00000000000E+00  0.45593999997E+02  0.45594000000E+02  0.51100000000E-03 0.  1.
         11   -1    0    0    0    0 -0.00000000000E+00 -0.00000000000E+00 -0.45593999997E+02  0.45594000000E+02  0.51100000000E-03 0. -1.
    9900012    2    1    2    0    0 -0.25744301989E+02 -0.18753679981E+02  0.15000188442E+01  0.59301958316E+02  0.50000026059E+02 0.  0.
         12    1    1    2    0    0  0.25744301989E+02  0.18753679981E+02 -0.15000188442E+01  0.31886041684E+02  0.00000000000E+00 0. -1.
         11    1    3    3    0    0 -0.64667653647E+01  0.16754691241E+01  0.18329582965E+02  0.19508968784E+02  0.51100000000E-03 0. -1.
        -11    1    3    3    0    0 -0.15600080231E+02 -0.33310556625E+00 -0.65470279013E+01  0.16921496303E+02  0.51100000000E-03 0.  1.
         12    1    3    3    0    0 -0.36774563930E+01 -0.20096043539E+02 -0.10282536220E+02  0.22871493230E+02  0.00000000000E+00 0. -1.
</event>
<event>
 7    1  0.7457761E-012  0.5930194E+02  0.7816164E-02  0.1266605E+00
        -11   -1    0    0    0    0  0.00000000000E+00  0.00000000000E+00  0.45593999997E+02  0.45594000000E+02  0.51100000000E-03 0.  1.
         11   -1    0    0    0    0 -0.00000000000E+00 -0.00000000000E+00 -0.45593999997E+02  0.45594000000E+02  0.51100000000E-03 0. -1.
    9900012    2    1    2    0    0  0.42083607513E+01 -0.42089610854E+01  0.31325634680E+02  0.59301936559E+02  0.49999986379E+02 0.  0.
         12    1    1    2    0    0 -0.42083607513E+01  0.42089610854E+01 -0.31325634680E+02  0.31886063441E+02  0.00000000000E+00 0. -1.
         11    1    3    3    0    0  0.13720550099E+02 -0.10124254873E+01 -0.25812068513E+01  0.13997897322E+02  0.51100000000E-03 0. -1.
        -11    1    3    3    0    0 -0.15368338697E+02  0.70821973300E+01  0.13219855372E+02  0.21473423799E+02  0.51100000000E-03 0.  1.
         12    1    3    3    0    0  0.58561493495E+01 -0.10278732928E+02  0.20686986159E+02  0.23830615438E+02  0.00000000000E+00 0. -1.
</event>
<event>
 7    1  0.7457761E-012  0.5930205E+02  0.7816164E-02  0.1266604E+00
        -11   -1    0    0    0    0  0.00000000000E+00  0.00000000000E+00  0.45593999997E+02  0.45594000000E+02  0.51100000000E-03 0.  1.
         11   -1    0    0    0    0 -0.00000000000E+00 -0.00000000000E+00 -0.45593999997E+02  0.45594000000E+02  0.51100000000E-03 0. -1.
    9900012    2    1    2    0    0  0.24440646795E+02  0.16004339298E+02  0.12776128101E+02  0.59302054171E+02  0.50000200875E+02 0.  0.
         12    1    1    2    0    0 -0.24440646795E+02 -0.16004339298E+02 -0.12776128101E+02  0.31885945829E+02  0.00000000000E+00 0. -1.
         11    1    3    3    0    0  0.71486613940E+01 -0.20705555826E+01 -0.90841329355E+01  0.11743595344E+02  0.51100000000E-03 0. -1.
        -11    1    3    3    0    0  0.17675646361E+02  0.27123611956E+02  0.12996456602E+02  0.34885909538E+02  0.51100000000E-03 0.  1.
        -12    1    3    3    0    0 -0.38366096032E+00 -0.90487170753E+01  0.88638044345E+01  0.12672549289E+02  0.00000000000E+00 0.  1.
</event>
<event>
 7    1  0.7457761E-012  0.5930196E+02  0.7816164E-02  0.1266605E+00
        -11   -1    0    0    0    0  0.00000000000E+00  0.00000000000E+00  0.45593999997E+02  0.45594000000E+02  0.51100000000E-03 0.  1.
         11   -1    0    0    0    0 -0.00000000000E+00 -0.00000000000E+00 -0.45593999997E+02  0.45594000000E+02  0.51100000000E-03 0. -1.
    9900012    2    1    2    0    0  0.31513713274E+02  0.43445053247E+01  0.21750260492E+01  0.59301959338E+02  0.50000027922E+02 0.  0.
         12    1    1    2    0    0 -0.31513713274E+02 -0.43445053247E+01 -0.21750260492E+01  0.31886040662E+02  0.00000000000E+00 0. -1.
         11    1    3    3    0    0  0.27710009305E+02  0.12037822049E+02 -0.75115212741E+01  0.31131603356E+02  0.51100000000E-03 0. -1.
        -11    1    3    3    0    0 -0.84115819921E+01  0.39510808063E+01  0.15008313976E+01  0.94137264828E+01  0.51100000000E-03 0.  1.
         12    1    3    3    0    0  0.12215285961E+02 -0.11644397531E+02  0.81857159256E+01  0.18756629499E+02  0.00000000000E+00 0. -1.
</event>
<event>
 7    1  0.7457761E-012  0.5930193E+02  0.7816164E-02  0.1266605E+00
        -11   -1    0    0    0    0  0.00000000000E+00  0.00000000000E+00  0.45593999997E+02  0.45594000000E+02  0.51100000000E-03 0.  1.
         11   -1    0    0    0    0 -0.00000000000E+00 -0.00000000000E+00 -0.45593999997E+02  0.45594000000E+02  0.51100000000E-03 0. -1.
    9900012    2    1    2    0    0  0.27179319992E+01 -0.23526572904E+02  0.21350280541E+02  0.59301933040E+02  0.49999979961E+02 0.  0.
         12    1    1    2    0    0 -0.27179319992E+01  0.23526572904E+02 -0.21350280541E+02  0.31886066960E+02  0.00000000000E+00 0. -1.
         11    1    3    3    0    0 -0.20160382369E+01 -0.17351305819E+02  0.31071970238E+02  0.35645470379E+02  0.51100000000E-03 0. -1.
        -11    1    3    3    0    0  0.87865662190E+01  0.23092201068E+01  0.12905469582E+01  0.91761514337E+01  0.51100000000E-03 0.  1.
         12    1    3    3    0    0 -0.40525959828E+01 -0.84844871918E+01 -0.11012236654E+02  0.14480311227E+02  0.00000000000E+00 0. -1.
</event>
<event>
 7    1  0.7457761E-012  0.5930192E+02  0.7816164E-02  0.1266605E+00
        -11   -1    0    0    0    0  0.00000000000E+00  0.00000000000E+00  0.45593999997E+02  0.45594000000E+02  0.51100000000E-03 0.  1.
         11   -1    0    0    0    0 -0.00000000000E+00 -0.00000000000E+00 -0.45593999997E+02  0.45594000000E+02  0.51100000000E-03 0. -1.
    9900012    2    1    2    0    0  0.28489689192E+02  0.12748761996E+02  0.65214291319E+01  0.59301915878E+02  0.49999948662E+02 0.  0.
         12    1    1    2    0    0 -0.28489689192E+02 -0.12748761996E+02 -0.65214291319E+01  0.31886084122E+02  0.00000000000E+00 0. -1.
         11    1    3    3    0    0  0.89132054934E+01 -0.80941898088E+01 -0.10561260270E+02  0.16015659824E+02  0.51100000000E-03 0. -1.
        -11    1    3    3    0    0  0.18473245332E+02  0.61792550020E+01  0.20405439998E+02  0.28210387577E+02  0.51100000000E-03 0.  1.
         12    1    3    3    0    0  0.11032383664E+01  0.14663696803E+02 -0.33227505962E+01  0.15075868477E+02  0.00000000000E+00 0. -1.
</event>
<event>
 7    1  0.7457761E-012  0.5930188E+02  0.7816164E-02  0.1266605E+00
        -11   -1    0    0    0    0  0.00000000000E+00  0.00000000000E+00  0.45593999997E+02  0.45594000000E+02  0.51100000000E-03 0.  1.
         11   -1    0    0    0    0 -0.00000000000E+00 -0.00000000000E+00 -0.45593999997E+02  0.45594000000E+02  0.51100000000E-03 0. -1.
    9900012    2    1    2    0    0 -0.20212693923E+02  0.17457188349E+02  0.17418900945E+02  0.59301881847E+02  0.49999886598E+02 0.  0.
         12    1    1    2    0    0  0.20212693923E+02 -0.17457188349E+02 -0.17418900945E+02  0.31886118153E+02  0.00000000000E+00 0. -1.
         11    1    3    3    0    0 -0.23195843640E+02 -0.74880709247E+01  0.69937849561E+01  0.25358063739E+02  0.51100000000E-03 0. -1.
        -11    1    3    3    0    0 -0.16966691498E+01  0.16264687694E+02  0.15777463326E+02  0.22723272239E+02  0.51100000000E-03 0.  1.
         12    1    3    3    0    0  0.46798188664E+01  0.86805715805E+01 -0.53523473370E+01  0.11220545869E+02  0.00000000000E+00 0. -1.
</event>
<event>
 7    1  0.7457761E-012  0.5930194E+02  0.7816164E-02  0.1266605E+00
        -11   -1    0    0    0    0  0.00000000000E+00  0.00000000000E+00  0.45593999997E+02  0.45594000000E+02  0.51100000000E-03 0.  1.
         11   -1    0    0    0    0 -0.00000000000E+00 -0.00000000000E+00 -0.45593999997E+02  0.45594000000E+02  0.51100000000E-03 0. -1.
    9900012    2    1    2    0    0 -0.30506846079E+01 -0.16184419874E+02  0.27303455167E+02  0.59301940550E+02  0.49999993657E+02 0.  0.
         12    1    1    2    0    0  0.30506846079E+01  0.16184419874E+02 -0.27303455167E+02  0.31886059450E+02  0.00000000000E+00 0. -1.
         11    1    3    3    0    0 -0.30192889973E+01 -0.17870916240E+02  0.11191533931E+02  0.21301084134E+02  0.51100000000E-03 0. -1.
        -11    1    3    3    0    0 -0.10127127576E+02  0.57903798269E+01 -0.61698589721E+01  0.13196756097E+02  0.51100000000E-03 0.  1.
        -12    1    3    3    0    0  0.10095731966E+02 -0.41038834614E+01  0.22281780208E+02  0.24804100318E+02  0.00000000000E+00 0.  1.
</event>
<event>
 7    1  0.7457761E-012  0.5930197E+02  0.7816164E-02  0.1266605E+00
        -11   -1    0    0    0    0  0.00000000000E+00  0.00000000000E+00  0.45593999997E+02  0.45594000000E+02  0.51100000000E-03 0.  1.
         11   -1    0    0    0    0 -0.00000000000E+00 -0.00000000000E+00 -0.45593999997E+02  0.45594000000E+02  0.51100000000E-03 0. -1.
    9900012    2    1    2    0    0 -0.28893744560E+02 -0.12744804628E+02  0.44091317220E+01  0.59301969168E+02  0.50000045850E+02 0.  0.
         12    1    1    2    0    0  0.28893744560E+02  0.12744804628E+02 -0.44091317220E+01  0.31886030832E+02  0.00000000000E+00 0. -1.
         11    1    3    3    0    0 -0.29227245355E+02 -0.46057567687E+01  0.50258569080E+01  0.30011732778E+02  0.51100000000E-03 0.  1.
        -11    1    3    3    0    0 -0.31891360904E+01 -0.17660503690E+02  0.35887729876E+01  0.18301455445E+02  0.51100000000E-03 0. -1.
         12    1    3    3    0    0  0.35226368853E+01  0.95214558308E+01 -0.42054981736E+01  0.10988780945E+02  0.00000000000E+00 0. -1.
</event>
<event>
 7    1  0.7457761E-012  0.5930192E+02  0.7816164E-02  0.1266605E+00
        -11   -1    0    0    0    0  0.00000000000E+00  0.00000000000E+00  0.45593999997E+02  0.45594000000E+02  0.51100000000E-03 0.  1.
         11   -1    0    0    0    0 -0.00000000000E+00 -0.00000000000E+00 -0.45593999997E+02  0.45594000000E+02  0.51100000000E-03 0. -1.
    9900012    2    1    2    0    0 -0.21140082362E+02  0.69557422839E+00  0.23860740599E+02  0.59301923921E+02  0.49999963330E+02 0.  0.
         12    1    1    2    0    0  0.21140082362E+02 -0.69557422839E+00 -0.23860740599E+02  0.31886076079E+02  0.00000000000E+00 0. -1.
         11    1    3    3    0    0 -0.23970720213E+02  0.26972865992E+01 -0.87197446348E+01  0.25649653590E+02  0.51100000000E-03 0. -1.
        -11    1    3    3    0    0  0.38720715435E+01  0.17049374850E+01  0.12239302355E+02  0.12949913987E+02  0.51100000000E-03 0.  1.
         12    1    3    3    0    0 -0.10414336929E+01 -0.37066498559E+01  0.20341182879E+02  0.20702356344E+02  0.00000000000E+00 0. -1.
</event>
<event>
 7    1  0.7457761E-012  0.5930192E+02  0.7816164E-02  0.1266605E+00
        -11   -1    0    0    0    0  0.00000000000E+00  0.00000000000E+00  0.45593999997E+02  0.45594000000E+02  0.51100000000E-03 0.  1.
         11   -1    0    0    0    0 -0.00000000000E+00 -0.00000000000E+00 -0.45593999997E+02  0.45594000000E+02  0.51100000000E-03 0. -1.
    9900012    2    1    2    0    0  0.19380217577E+02  0.61879705676E+01  0.24552763650E+02  0.59301921283E+02  0.49999958519E+02 0.  0.
         12    1    1    2    0    0 -0.19380217577E+02 -0.61879705676E+01 -0.24552763650E+02  0.31886078717E+02  0.00000000000E+00 0. -1.
         11    1    3    3    0    0  0.13400861130E+02 -0.17614214668E+02  0.63337545462E+01  0.23020861937E+02  0.51100000000E-03 0. -1.
        -11    1    3    3    0    0  0.10526606859E+02  0.22030316463E+02  0.93251737037E+01  0.26136242276E+02  0.51100000000E-03 0.  1.
         12    1    3    3    0    0 -0.45472504125E+01  0.17718687726E+01  0.88938354003E+01  0.10144817070E+02  0.00000000000E+00 0. -1.
</event>
<event>
 7    1  0.7457761E-012  0.5930195E+02  0.7816164E-02  0.1266605E+00
        -11   -1    0    0    0    0  0.00000000000E+00  0.00000000000E+00  0.45593999997E+02  0.45594000000E+02  0.51100000000E-03 0. -1.
         11   -1    0    0    0    0 -0.00000000000E+00 -0.00000000000E+00 -0.45593999997E+02  0.45594000000E+02  0.51100000000E-03 0.  1.
    9900012    2    1    2    0    0 -0.40552718675E+01  0.18558754321E+02 -0.25609525514E+02  0.59301946796E+02  0.50000005049E+02 0.  0.
         12    1    1    2    0    0  0.40552718675E+01 -0.18558754321E+02  0.25609525514E+02  0.31886053204E+02  0.00000000000E+00 0. -1.
         11    1    3    3    0    0  0.10558279677E+02  0.19675733455E+02 -0.31082656046E+02  0.38271964463E+02  0.51100000000E-03 0. -1.
        -11    1    3    3    0    0 -0.13674704662E+02  0.37103528167E+01  0.71501667892E+00  0.14187160206E+02  0.51100000000E-03 0.  1.
         12    1    3    3    0    0 -0.93884688244E+00 -0.48273319507E+01  0.47581138529E+01  0.68428221275E+01  0.00000000000E+00 0. -1.
</event>
<event>
 7    1  0.7457761E-012  0.5930197E+02  0.7816164E-02  0.1266605E+00
        -11   -1    0    0    0    0  0.00000000000E+00  0.00000000000E+00  0.45593999997E+02  0.45594000000E+02  0.51100000000E-03 0. -1.
         11   -1    0    0    0    0 -0.00000000000E+00 -0.00000000000E+00 -0.45593999997E+02  0.45594000000E+02  0.51100000000E-03 0.  1.
    9900012    2    1    2    0    0 -0.20922803809E+02 -0.23639939205E+02 -0.44842759086E+01  0.59301965827E+02  0.50000039757E+02 0.  0.
         12    1    1    2    0    0  0.20922803809E+02  0.23639939205E+02  0.44842759086E+01  0.31886034173E+02  0.00000000000E+00 0. -1.
         11    1    3    3    0    0 -0.22696836109E+02 -0.88472716787E+01  0.11639959890E+02  0.26998319430E+02  0.51100000000E-03 0. -1.
        -11    1    3    3    0    0  0.29601271648E+01 -0.20581094016E+02 -0.80464781204E+01  0.22295506142E+02  0.51100000000E-03 0.  1.
         12    1    3    3    0    0 -0.11860948651E+01  0.57884264898E+01 -0.80777576784E+01  0.10008140255E+02  0.00000000000E+00 0. -1.
</event>
<event>
 7    1  0.7457761E-012  0.5930192E+02  0.7816164E-02  0.1266605E+00
        -11   -1    0    0    0    0  0.00000000000E+00  0.00000000000E+00  0.45593999997E+02  0.45594000000E+02  0.51100000000E-03 0.  1.
         11   -1    0    0    0    0 -0.00000000000E+00 -0.00000000000E+00 -0.45593999997E+02  0.45594000000E+02  0.51100000000E-03 0. -1.
    9900012    2    1    2    0    0  0.61999710016E+01  0.57837932699E+01  0.30738086933E+02  0.59301923206E+02  0.49999962026E+02 0.  0.
         12    1    1    2    0    0 -0.61999710016E+01 -0.57837932699E+01 -0.30738086933E+02  0.31886076794E+02  0.00000000000E+00 0. -1.
         11    1    3    3    0    0  0.35400324555E+01  0.13029921828E+02  0.11220201057E+02  0.17555728542E+02  0.51100000000E-03 0. -1.
        -11    1    3    3    0    0  0.97184269525E+01 -0.23922810197E+01 -0.80713901352E+01  0.12857611360E+02  0.51100000000E-03 0.  1.
        -12    1    3    3    0    0 -0.70584884065E+01 -0.48538475380E+01  0.27589276011E+02  0.28888583304E+02  0.00000000000E+00 0.  1.
</event>
<event>
 7    1  0.7457761E-012  0.5930195E+02  0.7816164E-02  0.1266605E+00
        -11   -1    0    0    0    0  0.00000000000E+00  0.00000000000E+00  0.45593999997E+02  0.45594000000E+02  0.51100000000E-03 0. -1.
         11   -1    0    0    0    0 -0.00000000000E+00 -0.00000000000E+00 -0.45593999997E+02  0.45594000000E+02  0.51100000000E-03 0.  1.
    9900012    2    1    2    0    0  0.16397846821E+02  0.14509452710E+02 -0.23179880789E+02  0.59301945498E+02  0.50000002682E+02 0.  0.
         12    1    1    2    0    0 -0.16397846821E+02 -0.14509452710E+02  0.23179880789E+02  0.31886054502E+02  0.00000000000E+00 0. -1.
         11    1    3    3    0    0 -0.41523456383E+00  0.33657942508E+01  0.11833495180E+01  0.35918389475E+01  0.51100000000E-03 0. -1.
        -11    1    3    3    0    0  0.82461660726E+01 -0.64169851881E+01 -0.32802573303E+02  0.34426527117E+02  0.51100000000E-03 0.  1.
        -12    1    3    3    0    0  0.85669153118E+01  0.17560643648E+02  0.84393429961E+01  0.21283579433E+02  0.00000000000E+00 0.  1.
</event>
<event>
 7    1  0.7457761E-012  0.5930194E+02  0.7816164E-02  0.1266605E+00
        -11   -1    0    0    0    0  0.00000000000E+00  0.00000000000E+00  0.45593999997E+02  0.45594000000E+02  0.51100000000E-03 0.  1.
         11   -1    0    0    0    0 -0.00000000000E+00 -0.00000000000E+00 -0.45593999997E+02  0.45594000000E+02  0.51100000000E-03 0. -1.
    9900012    2    1    2    0    0 -0.27800475519E+01  0.31718500269E+02 -0.17114451482E+01  0.59301937713E+02  0.49999988483E+02 0.  0.
         12    1    1    2    0    0  0.27800475519E+01 -0.31718500269E+02  0.17114451482E+01  0.31886062287E+02  0.00000000000E+00 0. -1.
         11    1    3    3    0    0  0.11512868926E+02  0.13932803071E+02 -0.78992759445E+01  0.19724799442E+02  0.51100000000E-03 0. -1.
        -11    1    3    3    0    0 -0.19664152197E+02  0.23846310554E+02  0.38433683628E+01  0.31146378429E+02  0.51100000000E-03 0.  1.
        -12    1    3    3    0    0  0.53712357188E+01 -0.60606133561E+01  0.23444624335E+01  0.84307598413E+01  0.00000000000E+00 0.  1.
</event>
<event>
 7    1  0.7457761E-012  0.5930195E+02  0.7816164E-02  0.1266605E+00
        -11   -1    0    0    0    0  0.00000000000E+00  0.00000000000E+00  0.45593999997E+02  0.45594000000E+02  0.51100000000E-03 0. -1.
         11   -1    0    0    0    0 -0.00000000000E+00 -0.00000000000E+00 -0.45593999997E+02  0.45594000000E+02  0.51100000000E-03 0.  1.
    9900012    2    1    2    0    0  0.28861566844E+02 -0.39901026800E+01 -0.12954116711E+02  0.59301951329E+02  0.50000013315E+02 0.  0.
         12    1    1    2    0    0 -0.28861566844E+02  0.39901026800E+01  0.12954116711E+02  0.31886048671E+02  0.00000000000E+00 0. -1.
         11    1    3    3    0    0  0.37604424536E+02 -0.17165975009E+01  0.46019057358E+01  0.37923831404E+02  0.51100000000E-03 0. -1.
        -11    1    3    3    0    0 -0.32661439024E+01  0.27636905272E+01 -0.37263695254E+01  0.56737563767E+01  0.51100000000E-03 0.  1.
         12    1    3    3    0    0 -0.54767137896E+01 -0.50371957063E+01 -0.13829652922E+02  0.15704363548E+02  0.00000000000E+00 0. -1.
</event>
<event>
 7    1  0.7457761E-012  0.5930198E+02  0.7816164E-02  0.1266605E+00
        -11   -1    0    0    0    0  0.00000000000E+00  0.00000000000E+00  0.45593999997E+02  0.45594000000E+02  0.51100000000E-03 0.  1.
         11   -1    0    0    0    0 -0.00000000000E+00 -0.00000000000E+00 -0.45593999997E+02  0.45594000000E+02  0.51100000000E-03 0. -1.
    9900012    2    1    2    0    0 -0.11264063227E+02 -0.25294340772E+02  0.15812514869E+02  0.59301977640E+02  0.50000061300E+02 0.  0.
         12    1    1    2    0    0  0.11264063227E+02  0.25294340772E+02 -0.15812514869E+02  0.31886022360E+02  0.00000000000E+00 0. -1.
         11    1    3    3    0    0 -0.11193339231E+02 -0.10025432646E+02  0.13917534053E+02  0.20481647816E+02  0.51100000000E-03 0. -1.
        -11    1    3    3    0    0 -0.31628182550E+00  0.76713345426E+00 -0.15290979041E+02  0.15313476686E+02  0.51100000000E-03 0.  1.
        -12    1    3    3    0    0  0.24555782953E+00 -0.16036041581E+02  0.17185959857E+02  0.23506853138E+02  0.00000000000E+00 0.  1.
</event>
<event>
 7    1  0.7457761E-012  0.5930193E+02  0.7816164E-02  0.1266605E+00
        -11   -1    0    0    0    0  0.00000000000E+00  0.00000000000E+00  0.45593999997E+02  0.45594000000E+02  0.51100000000E-03 0.  1.
         11   -1    0    0    0    0 -0.00000000000E+00 -0.00000000000E+00 -0.45593999997E+02  0.45594000000E+02  0.51100000000E-03 0. -1.
    9900012    2    1    2    0    0  0.16677005061E+02  0.27780780818E+01  0.27034814089E+02  0.59301931123E+02  0.49999976464E+02 0.  0.
         12    1    1    2    0    0 -0.16677005061E+02 -0.27780780818E+01 -0.27034814089E+02  0.31886068877E+02  0.00000000000E+00 0. -1.
         11    1    3    3    0    0  0.14598760504E+02  0.10946224726E+02 -0.26938737664E+01  0.18444527648E+02  0.51100000000E-03 0. -1.
        -11    1    3    3    0    0 -0.19843664918E+01 -0.17150774314E+02  0.13703408659E+02  0.22042463090E+02  0.51100000000E-03 0.  1.
        -12    1    3    3    0    0  0.40626110490E+01  0.89826276695E+01  0.16025279196E+02  0.18814940385E+02  0.00000000000E+00 0.  1.
</event>
<event>
 7    1  0.7457761E-012  0.5930195E+02  0.7816164E-02  0.1266605E+00
        -11   -1    0    0    0    0  0.00000000000E+00  0.00000000000E+00  0.45593999997E+02  0.45594000000E+02  0.51100000000E-03 0. -1.
         11   -1    0    0    0    0 -0.00000000000E+00 -0.00000000000E+00 -0.45593999997E+02  0.45594000000E+02  0.51100000000E-03 0.  1.
    9900012    2    1    2    0    0  0.10562542652E+02  0.23226203879E+02 -0.19123190934E+02  0.59301948419E+02  0.50000008009E+02 0.  0.
         12    1    1    2    0    0 -0.10562542652E+02 -0.23226203879E+02  0.19123190934E+02  0.31886051581E+02  0.00000000000E+00 0. -1.
         11    1    3    3    0    0  0.17958817817E+02 -0.76102172104E+01 -0.44314127856E+01  0.20001798992E+02  0.51100000000E-03 0. -1.
        -11    1    3    3    0    0 -0.10290719252E+02  0.20760246857E+02 -0.16782409288E+02  0.28610068404E+02  0.51100000000E-03 0.  1.
        -12    1    3    3    0    0  0.28944440874E+01  0.10076174232E+02  0.20906311396E+01  0.10690081024E+02  0.00000000000E+00 0.  1.
</event>
<event>
 7    1  0.7457761E-012  0.5930222E+02  0.7816164E-02  0.1266604E+00
        -11   -1    0    0    0    0  0.00000000000E+00  0.00000000000E+00  0.45593999997E+02  0.45594000000E+02  0.51100000000E-03 0.  1.
         11   -1    0    0    0    0 -0.00000000000E+00 -0.00000000000E+00 -0.45593999997E+02  0.45594000000E+02  0.51100000000E-03 0. -1.
    9900012    2    1    2    0    0 -0.30681722083E+02 -0.68535745064E+01 -0.53257520233E+01  0.59302216520E+02  0.50000496958E+02 0.  0.
         12    1    1    2    0    0  0.30681722083E+02  0.68535745064E+01  0.53257520233E+01  0.31885783480E+02  0.00000000000E+00 0. -1.
         11    1    3    3    0    0  0.28827019143E+01 -0.52514383713E+00 -0.17906217610E+02  0.18144375870E+02  0.51100000000E-03 0. -1.
        -11    1    3    3    0    0 -0.20803304935E+02 -0.13173582016E+02  0.92103459060E+01  0.26289755254E+02  0.51100000000E-03 0.  1.
        -12    1    3    3    0    0 -0.12761119062E+02  0.68451513464E+01  0.33701196803E+01  0.14868085396E+02  0.00000000000E+00 0.  1.
</event>
<event>
 7    1  0.7457761E-012  0.5930188E+02  0.7816164E-02  0.1266605E+00
        -11   -1    0    0    0    0  0.00000000000E+00  0.00000000000E+00  0.45593999997E+02  0.45594000000E+02  0.51100000000E-03 0. -1.
         11   -1    0    0    0    0 -0.00000000000E+00 -0.00000000000E+00 -0.45593999997E+02  0.45594000000E+02  0.51100000000E-03 0.  1.
    9900012    2    1    2    0    0 -0.27201815490E+02  0.15252657643E+02 -0.66439632282E+01  0.59301881100E+02  0.49999885235E+02 0.  0.
         12    1    1    2    0    0  0.27201815490E+02 -0.15252657643E+02  0.66439632282E+01  0.31886118900E+02  0.00000000000E+00 0. -1.
         11    1    3    3    0    0 -0.80935230995E+01 -0.48069479101E+01 -0.14485280651E+02  0.17275277716E+02  0.51100000000E-03 0. -1.
        -11    1    3    3    0    0 -0.26484047101E+02  0.15445837986E+02  0.11284864112E+02  0.32669968171E+02  0.51100000000E-03 0.  1.
        -12    1    3    3    0    0  0.73757547106E+01  0.46137675665E+01 -0.34435466894E+01  0.93566352131E+01  0.00000000000E+00 0.  1.
</event>
<event>
 7    1  0.7457761E-012  0.5930196E+02  0.7816164E-02  0.1266605E+00
        -11   -1    0    0    0    0  0.00000000000E+00  0.00000000000E+00  0.45593999997E+02  0.45594000000E+02  0.51100000000E-03 0.  1.
         11   -1    0    0    0    0 -0.00000000000E+00 -0.00000000000E+00 -0.45593999997E+02  0.45594000000E+02  0.51100000000E-03 0. -1.
    9900012    2    1    2    0    0  0.29573278873E+02 -0.91822973923E+00  0.11886867691E+02  0.59301959283E+02  0.50000027821E+02 0.  0.
         12    1    1    2    0    0 -0.29573278873E+02  0.91822973923E+00 -0.11886867691E+02  0.31886040717E+02  0.00000000000E+00 0. -1.
         11    1    3    3    0    0  0.21997853992E+02 -0.74628500053E+01  0.26601591760E+02  0.35316347417E+02  0.51100000000E-03 0. -1.
        -11    1    3    3    0    0 -0.47365111700E+01 -0.11597704718E+00 -0.22622422763E+01  0.52503075260E+01  0.51100000000E-03 0.  1.
         12    1    3    3    0    0  0.12311936050E+02  0.66605973133E+01 -0.12452481793E+02  0.18735304339E+02  0.00000000000E+00 0. -1.
</event>
<event>
 7    1  0.7457761E-012  0.5930195E+02  0.7816164E-02  0.1266605E+00
        -11   -1    0    0    0    0  0.00000000000E+00  0.00000000000E+00  0.45593999997E+02  0.45594000000E+02  0.51100000000E-03 0. -1.
         11   -1    0    0    0    0 -0.00000000000E+00 -0.00000000000E+00 -0.45593999997E+02  0.45594000000E+02  0.51100000000E-03 0.  1.
    9900012    2    1    2    0    0 -0.34602205007E+01 -0.20528460158E+02 -0.24152211176E+02  0.59301951216E+02  0.50000013110E+02 0.  0.
         12    1    1    2    0    0  0.34602205007E+01  0.20528460158E+02  0.24152211176E+02  0.31886048784E+02  0.00000000000E+00 0. -1.
         11    1    3    3    0    0 -0.17166767972E+02 -0.77556744866E+01 -0.15198087570E+02  0.24203930990E+02  0.51100000000E-03 0. -1.
        -11    1    3    3    0    0  0.20432954324E+02 -0.58191637236E+01  0.93179683091E+00  0.21265853720E+02  0.51100000000E-03 0.  1.
        -12    1    3    3    0    0 -0.67264068533E+01 -0.69536219481E+01 -0.98859204367E+01  0.13832166505E+02  0.00000000000E+00 0.  1.
</event>
<event>
 7    1  0.7457761E-012  0.5930195E+02  0.7816164E-02  0.1266605E+00
        -11   -1    0    0    0    0  0.00000000000E+00  0.00000000000E+00  0.45593999997E+02  0.45594000000E+02  0.51100000000E-03 0.  1.
         11   -1    0    0    0    0 -0.00000000000E+00 -0.00000000000E+00 -0.45593999997E+02  0.45594000000E+02  0.51100000000E-03 0. -1.
    9900012    2    1    2    0    0  0.46587398090E+01 -0.20146433081E+01  0.31479481111E+02  0.59301947010E+02  0.50000005439E+02 0.  0.
         12    1    1    2    0    0 -0.46587398090E+01  0.20146433081E+01 -0.31479481111E+02  0.31886052990E+02  0.00000000000E+00 0. -1.
         11    1    3    3    0    0  0.47007080773E+01  0.15308510298E+02 -0.38152925312E+01  0.16462187016E+02  0.51100000000E-03 0. -1.
        -11    1    3    3    0    0 -0.30142386355E+01 -0.94943986154E+01  0.45071106833E+01  0.10933585258E+02  0.51100000000E-03 0.  1.
         12    1    3    3    0    0  0.29722703672E+01 -0.78287549910E+01  0.30787662959E+02  0.31906174736E+02  0.00000000000E+00 0. -1.
</event>
<event>
 7    1  0.7457761E-012  0.5930193E+02  0.7816164E-02  0.1266605E+00
        -11   -1    0    0    0    0  0.00000000000E+00  0.00000000000E+00  0.45593999997E+02  0.45594000000E+02  0.51100000000E-03 0.  1.
         11   -1    0    0    0    0 -0.00000000000E+00 -0.00000000000E+00 -0.45593999997E+02  0.45594000000E+02  0.51100000000E-03 0. -1.
    9900012    2    1    2    0    0  0.29932794378E+02 -0.13813090050E+01  0.10901422048E+02  0.59301934132E+02  0.49999981953E+02 0.  0.
         12    1    1    2    0    0 -0.29932794378E+02  0.13813090050E+01 -0.10901422048E+02  0.31886065868E+02  0.00000000000E+00 0. -1.
         11    1    3    3    0    0 -0.49971237377E+01  0.10415135803E+01  0.66795613434E+01  0.84066959139E+01  0.51100000000E-03 0. -1.
        -11    1    3    3    0    0  0.21568104610E+02  0.13701576986E+02  0.12414640108E+02  0.28408443070E+02  0.51100000000E-03 0.  1.
        -12    1    3    3    0    0  0.13361813506E+02 -0.16124399571E+02 -0.81927794035E+01  0.22486795148E+02  0.00000000000E+00 0.  1.
</event>
<event>
 7    1  0.7457761E-012  0.5930190E+02  0.7816164E-02  0.1266605E+00
        -11   -1    0    0    0    0  0.00000000000E+00  0.00000000000E+00  0.45593999997E+02  0.45594000000E+02  0.51100000000E-03 0. -1.
         11   -1    0    0    0    0 -0.00000000000E+00 -0.00000000000E+00 -0.45593999997E+02  0.45594000000E+02  0.51100000000E-03 0.  1.
    9900012    2    1    2    0    0  0.17619254930E+02 -0.24071410442E+02  0.11262879113E+02  0.59301899723E+02  0.49999919199E+02 0.  0.
         12    1    1    2    0    0 -0.17619254930E+02  0.24071410442E+02 -0.11262879113E+02  0.31886100277E+02  0.00000000000E+00 0. -1.
         11    1    3    3    0    0 -0.66827646194E+01 -0.11917469102E+01 -0.10785639642E+02  0.12744003547E+02  0.51100000000E-03 0. -1.
        -11    1    3    3    0    0  0.17537489857E+02 -0.16181776479E+02  0.14976899126E+01  0.23909339510E+02  0.51100000000E-03 0.  1.
         12    1    3    3    0    0  0.67645296921E+01 -0.66978870535E+01  0.20550828842E+02  0.22648556666E+02  0.00000000000E+00 0. -1.
</event>
<event>
 7    1  0.7457761E-012  0.5930193E+02  0.7816164E-02  0.1266605E+00
        -11   -1    0    0    0    0  0.00000000000E+00  0.00000000000E+00  0.45593999997E+02  0.45594000000E+02  0.51100000000E-03 0.  1.
         11   -1    0    0    0    0 -0.00000000000E+00 -0.00000000000E+00 -0.45593999997E+02  0.45594000000E+02  0.51100000000E-03 0. -1.
    9900012    2    1    2    0    0  0.14324765153E+02  0.20995078753E+02  0.19254335068E+02  0.59301927061E+02  0.49999969057E+02 0.  0.
         12    1    1    2    0    0 -0.14324765153E+02 -0.20995078753E+02 -0.19254335068E+02  0.31886072939E+02  0.00000000000E+00 0. -1.
         11    1    3    3    0    0  0.16542799357E+01 -0.12180457947E+02  0.27196882853E+01  0.12589555295E+02  0.51100000000E-03 0. -1.
        -11    1    3    3    0    0  0.55770979963E+01  0.35672150535E+02  0.12723000203E+02  0.38281602373E+02  0.51100000000E-03 0.  1.
         12    1    3    3    0    0  0.70933872208E+01 -0.24966138349E+01  0.38116465797E+01  0.84307693927E+01  0.00000000000E+00 0. -1.
</event>
<event>
 7    1  0.7457761E-012  0.5930195E+02  0.7816164E-02  0.1266605E+00
        -11   -1    0    0    0    0  0.00000000000E+00  0.00000000000E+00  0.45593999997E+02  0.45594000000E+02  0.51100000000E-03 0. -1.
         11   -1    0    0    0    0 -0.00000000000E+00 -0.00000000000E+00 -0.45593999997E+02  0.45594000000E+02  0.51100000000E-03 0.  1.
    9900012    2    1    2    0    0 -0.24800513591E+02  0.92489055229E+01  0.17779547479E+02  0.59301952325E+02  0.50000015133E+02 0.  0.
         12    1    1    2    0    0  0.24800513591E+02 -0.92489055229E+01 -0.17779547479E+02  0.31886047675E+02  0.00000000000E+00 0. -1.
         11    1    3    3    0    0  0.64335819839E+01  0.83922228721E+01  0.18449668254E+02  0.21265244904E+02  0.51100000000E-03 0. -1.
        -11    1    3    3    0    0  0.21135656538E+00 -0.46688304216E+01 -0.37071399220E+01  0.59653613273E+01  0.51100000000E-03 0.  1.
         12    1    3    3    0    0 -0.31445452140E+02  0.55255130724E+01  0.30370191479E+01  0.32071346094E+02  0.00000000000E+00 0. -1.
</event>
<event>
 7    1  0.7457761E-012  0.5930195E+02  0.7816164E-02  0.1266605E+00
        -11   -1    0    0    0    0  0.00000000000E+00  0.00000000000E+00  0.45593999997E+02  0.45594000000E+02  0.51100000000E-03 0.  1.
         11   -1    0    0    0    0 -0.00000000000E+00 -0.00000000000E+00 -0.45593999997E+02  0.45594000000E+02  0.51100000000E-03 0. -1.
    9900012    2    1    2    0    0 -0.60979998134E+01  0.22715207539E+02  0.21530308167E+02  0.59301946231E+02  0.50000004017E+02 0.  0.
         12    1    1    2    0    0  0.60979998134E+01 -0.22715207539E+02 -0.21530308167E+02  0.31886053769E+02  0.00000000000E+00 0. -1.
         11    1    3    3    0    0 -0.19117100334E+02  0.23044566338E+02  0.89172829721E-01  0.29942002521E+02  0.51100000000E-03 0. -1.
        -11    1    3    3    0    0  0.14293443163E+02  0.42432197895E+01  0.18560001234E+02  0.23807164419E+02  0.51100000000E-03 0.  1.
         12    1    3    3    0    0 -0.12743426422E+01 -0.45725785894E+01  0.28811341033E+01  0.55527792903E+01  0.00000000000E+00 0. -1.
</event>
<event>
 7    1  0.7457761E-012  0.5930195E+02  0.7816164E-02  0.1266605E+00
        -11   -1    0    0    0    0  0.00000000000E+00  0.00000000000E+00  0.45593999997E+02  0.45594000000E+02  0.51100000000E-03 0. -1.
         11   -1    0    0    0    0 -0.00000000000E+00 -0.00000000000E+00 -0.45593999997E+02  0.45594000000E+02  0.51100000000E-03 0.  1.
    9900012    2    1    2    0    0 -0.11836371898E+02 -0.20280404651E+02 -0.21571413622E+02  0.59301946652E+02  0.50000004785E+02 0.  0.
         12    1    1    2    0    0  0.11836371898E+02  0.20280404651E+02  0.21571413622E+02  0.31886053348E+02  0.00000000000E+00 0. -1.
         11    1    3    3    0    0 -0.21984995852E+02 -0.68225008146E+01 -0.71985104213E+00  0.23030517705E+02  0.51100000000E-03 0. -1.
        -11    1    3    3    0    0  0.80252788315E+01 -0.17757526299E+02 -0.23708757499E+02  0.30689412229E+02  0.51100000000E-03 0.  1.
         12    1    3    3    0    0  0.21233451221E+01  0.42996224630E+01  0.28571949190E+01  0.55820167177E+01  0.00000000000E+00 0. -1.
</event>
<event>
 7    1  0.8197750E-012  0.5930193E+02  0.7816164E-02  0.1266605E+00
        -11   -1    0    0    0    0  0.00000000000E+00  0.00000000000E+00  0.45593999997E+02  0.45594000000E+02  0.51100000000E-03 0.  1.
         11   -1    0    0    0    0 -0.00000000000E+00 -0.00000000000E+00 -0.45593999997E+02  0.45594000000E+02  0.51100000000E-03 0. -1.
    9900012    2    1    2    0    0 -0.31052036773E+01 -0.30809392432E+02  0.76066295270E+01  0.59301925223E+02  0.49999965705E+02 0.  0.
         12    1    1    2    0    0  0.31052036773E+01  0.30809392432E+02 -0.76066295270E+01  0.31886074777E+02  0.00000000000E+00 0. -1.
         11    1    3    3    0    0  0.38323752499E+01  0.67330574249E+01 -0.89030092092E+01  0.11801895423E+02  0.51100000000E-03 0. -1.
        -11    1    3    3    0    0 -0.12709730678E+01 -0.34298798720E+02  0.55862262835E+01  0.34773968576E+02  0.51100000000E-03 0.  1.
         12    1    3    3    0    0 -0.56666058594E+01 -0.32436511376E+01  0.10923412453E+02  0.12726061224E+02  0.00000000000E+00 0. -1.
</event>
<event>
 7    1  0.7457761E-012  0.5930195E+02  0.7816164E-02  0.1266605E+00
        -11   -1    0    0    0    0  0.00000000000E+00  0.00000000000E+00  0.45593999997E+02  0.45594000000E+02  0.51100000000E-03 0. -1.
         11   -1    0    0    0    0 -0.00000000000E+00 -0.00000000000E+00 -0.45593999997E+02  0.45594000000E+02  0.51100000000E-03 0.  1.
    9900012    2    1    2    0    0 -0.30984744928E+02 -0.59680106449E+01  0.45878901310E+01  0.59301948109E+02  0.50000007444E+02 0.  0.
         12    1    1    2    0    0  0.30984744928E+02  0.59680106449E+01 -0.45878901310E+01  0.31886051891E+02  0.00000000000E+00 0. -1.
         11    1    3    3    0    0 -0.62908589937E+01  0.93699813725E+01  0.14728673585E+02  0.18555465061E+02  0.51100000000E-03 0. -1.
        -11    1    3    3    0    0 -0.94812544774E+01 -0.63059313191E+01 -0.18070424280E+02  0.21358819962E+02  0.51100000000E-03 0.  1.
        -12    1    3    3    0    0 -0.15212631457E+02 -0.90320606983E+01  0.79296408257E+01  0.19387663086E+02  0.00000000000E+00 0.  1.
</event>
<event>
 7    1  0.7457761E-012  0.5930190E+02  0.7816164E-02  0.1266605E+00
        -11   -1    0    0    0    0  0.00000000000E+00  0.00000000000E+00  0.45593999997E+02  0.45594000000E+02  0.51100000000E-03 0. -1.
         11   -1    0    0    0    0 -0.00000000000E+00 -0.00000000000E+00 -0.45593999997E+02  0.45594000000E+02  0.51100000000E-03 0.  1.
    9900012    2    1    2    0    0  0.29707758588E+02  0.90178954799E+01  0.72697906115E+01  0.59301902485E+02  0.49999924236E+02 0.  0.
         12    1    1    2    0    0 -0.29707758588E+02 -0.90178954799E+01 -0.72697906115E+01  0.31886097515E+02  0.00000000000E+00 0. -1.
         11    1    3    3    0    0  0.48242050075E+01  0.18631519473E+02  0.10926416384E+02  0.22131268537E+02  0.51100000000E-03 0. -1.
        -11    1    3    3    0    0  0.21512871999E+02 -0.16236940817E+02 -0.85457609542E+01  0.28274934824E+02  0.51100000000E-03 0.  1.
        -12    1    3    3    0    0  0.33706815815E+01  0.66233168243E+01  0.48891351818E+01  0.88956991240E+01  0.00000000000E+00 0.  1.
</event>
<event>
 7    1  0.7457761E-012  0.5930194E+02  0.7816164E-02  0.1266605E+00
        -11   -1    0    0    0    0  0.00000000000E+00  0.00000000000E+00  0.45593999997E+02  0.45594000000E+02  0.51100000000E-03 0. -1.
         11   -1    0    0    0    0 -0.00000000000E+00 -0.00000000000E+00 -0.45593999997E+02  0.45594000000E+02  0.51100000000E-03 0.  1.
    9900012    2    1    2    0    0  0.22208767343E+01  0.31431827495E+02 -0.48814953273E+01  0.59301936120E+02  0.49999985578E+02 0.  0.
         12    1    1    2    0    0 -0.22208767343E+01 -0.31431827495E+02  0.48814953273E+01  0.31886063880E+02  0.00000000000E+00 0. -1.
         11    1    3    3    0    0  0.18881363139E+02  0.16105051299E+02 -0.10363895811E+01  0.24838531659E+02  0.51100000000E-03 0. -1.
        -11    1    3    3    0    0 -0.18120697091E+02  0.15961710198E+02  0.56790995979E+01  0.24807015702E+02  0.51100000000E-03 0.  1.
        -12    1    3    3    0    0  0.14602106872E+01 -0.63493400288E+00 -0.95242053440E+01  0.96563887595E+01  0.00000000000E+00 0.  1.
</event>
<event>
 7    1  0.7457761E-012  0.5930168E+02  0.7816164E-02  0.1266606E+00
        -11   -1    0    0    0    0  0.00000000000E+00  0.00000000000E+00  0.45593999997E+02  0.45594000000E+02  0.51100000000E-03 0.  1.
         11   -1    0    0    0    0 -0.00000000000E+00 -0.00000000000E+00 -0.45593999997E+02  0.45594000000E+02  0.51100000000E-03 0. -1.
    9900012    2    1    2    0    0  0.20104426853E+00  0.14967899991E+02  0.28154197590E+02  0.59301681761E+02  0.49999521686E+02 0.  0.
         12    1    1    2    0    0 -0.20104426853E+00 -0.14967899991E+02 -0.28154197590E+02  0.31886318239E+02  0.00000000000E+00 0. -1.
         11    1    3    3    0    0 -0.74650341157E+01  0.11976207471E+02  0.30329213363E+02  0.33451718390E+02  0.51100000000E-03 0.  1.
        -11    1    3    3    0    0  0.76426955279E+01 -0.97908020576E+01 -0.37413760278E+01  0.12971834670E+02  0.51100000000E-03 0. -1.
         12    1    3    3    0    0  0.23382856354E-01  0.12782494578E+02  0.15663602540E+01  0.12878128701E+02  0.00000000000E+00 0. -1.
</event>
<event>
 7    1  0.7457761E-012  0.5930189E+02  0.7816164E-02  0.1266605E+00
        -11   -1    0    0    0    0  0.00000000000E+00  0.00000000000E+00  0.45593999997E+02  0.45594000000E+02  0.51100000000E-03 0.  1.
         11   -1    0    0    0    0 -0.00000000000E+00 -0.00000000000E+00 -0.45593999997E+02  0.45594000000E+02  0.51100000000E-03 0. -1.
    9900012    2    1    2    0    0 -0.10003886066E+02 -0.20529037632E+02  0.22253192482E+02  0.59301894905E+02  0.49999910412E+02 0.  0.
         12    1    1    2    0    0  0.10003886066E+02  0.20529037632E+02 -0.22253192482E+02  0.31886105095E+02  0.00000000000E+00 0. -1.
         11    1    3    3    0    0  0.99158264042E+01 -0.22694032358E+02  0.51833674405E+01  0.25302371751E+02  0.51100000000E-03 0. -1.
        -11    1    3    3    0    0 -0.18594286254E+02 -0.46390076138E+01  0.18809502289E+02  0.26852658147E+02  0.51100000000E-03 0.  1.
         12    1    3    3    0    0 -0.13254262164E+01  0.68040023401E+01 -0.17396772480E+01  0.71468650069E+01  0.00000000000E+00 0. -1.
</event>
<event>
 7    1  0.7457761E-012  0.5930195E+02  0.7816164E-02  0.1266605E+00
        -11   -1    0    0    0    0  0.00000000000E+00  0.00000000000E+00  0.45593999997E+02  0.45594000000E+02  0.51100000000E-03 0.  1.
         11   -1    0    0    0    0 -0.00000000000E+00 -0.00000000000E+00 -0.45593999997E+02  0.45594000000E+02  0.51100000000E-03 0. -1.
    9900012    2    1    2    0    0  0.30001810884E+02  0.10306658225E+02 -0.32225122373E+01  0.59301945913E+02  0.50000003439E+02 0.  0.
         12    1    1    2    0    0 -0.30001810884E+02 -0.10306658225E+02  0.32225122373E+01  0.31886054087E+02  0.00000000000E+00 0. -1.
         11    1    3    3    0    0  0.25876739020E+02  0.14761797819E+02 -0.16368222898E+02  0.33991690429E+02  0.51100000000E-03 0. -1.
        -11    1    3    3    0    0  0.10656118864E+02 -0.56492458431E+00  0.14062912773E+02  0.17653258197E+02  0.51100000000E-03 0.  1.
        -12    1    3    3    0    0 -0.65310470000E+01 -0.38902150095E+01 -0.91720211256E+00  0.76569972869E+01  0.00000000000E+00 0.  1.
</event>
<event>
 7    1  0.7457761E-012  0.5930194E+02  0.7816164E-02  0.1266605E+00
        -11   -1    0    0    0    0  0.00000000000E+00  0.00000000000E+00  0.45593999997E+02  0.45594000000E+02  0.51100000000E-03 0. -1.
         11   -1    0    0    0    0 -0.00000000000E+00 -0.00000000000E+00 -0.45593999997E+02  0.45594000000E+02  0.51100000000E-03 0.  1.
    9900012    2    1    2    0    0  0.14971186216E+02  0.86101260371E+01 -0.26803921690E+02  0.59301938702E+02  0.49999990288E+02 0.  0.
         12    1    1    2    0    0 -0.14971186216E+02 -0.86101260371E+01  0.26803921690E+02  0.31886061298E+02  0.00000000000E+00 0. -1.
         11    1    3    3    0    0  0.68974018552E+01 -0.19731625018E+02 -0.10860003170E+02  0.23555272176E+02  0.51100000000E-03 0. -1.
        -11    1    3    3    0    0 -0.18812488534E+01  0.89973493219E+01 -0.91134010595E+01  0.12943935692E+02  0.51100000000E-03 0.  1.
         12    1    3    3    0    0  0.99550332146E+01  0.19344401733E+02 -0.68305174611E+01  0.22802730834E+02  0.00000000000E+00 0. -1.
</event>
<event>
 7    1  0.7457761E-012  0.5930197E+02  0.7816164E-02  0.1266605E+00
        -11   -1    0    0    0    0  0.00000000000E+00  0.00000000000E+00  0.45593999997E+02  0.45594000000E+02  0.51100000000E-03 0.  1.
         11   -1    0    0    0    0 -0.00000000000E+00 -0.00000000000E+00 -0.45593999997E+02  0.45594000000E+02  0.51100000000E-03 0. -1.
    9900012    2    1    2    0    0 -0.16315684864E+02 -0.34859242663E+01  0.27172880872E+02  0.59301973351E+02  0.50000053479E+02 0.  0.
         12    1    1    2    0    0  0.16315684864E+02  0.34859242663E+01 -0.27172880872E+02  0.31886026649E+02  0.00000000000E+00 0. -1.
         11    1    3    3    0    0 -0.11369251475E+01  0.81519186630E+00 -0.64604233491E+01  0.66101593537E+01  0.51100000000E-03 0. -1.
        -11    1    3    3    0    0 -0.17851259378E+02  0.52484949705E+01  0.37646720317E+02  0.41993924700E+02  0.51100000000E-03 0.  1.
        -12    1    3    3    0    0  0.26724996614E+01 -0.95496111031E+01 -0.40134160964E+01  0.10697889298E+02  0.00000000000E+00 0.  1.
</event>
<event>
 7    1  0.7457761E-012  0.5930162E+02  0.7816164E-02  0.1266606E+00
        -11   -1    0    0    0    0  0.00000000000E+00  0.00000000000E+00  0.45593999997E+02  0.45594000000E+02  0.51100000000E-03 0.  1.
         11   -1    0    0    0    0 -0.00000000000E+00 -0.00000000000E+00 -0.45593999997E+02  0.45594000000E+02  0.51100000000E-03 0. -1.
    9900012    2    1    2    0    0 -0.22751075209E+02  0.12192302589E+02  0.18721043147E+02  0.59301621684E+02  0.49999412119E+02 0.  0.
         12    1    1    2    0    0  0.22751075209E+02 -0.12192302589E+02 -0.18721043147E+02  0.31886378316E+02  0.00000000000E+00 0. -1.
         11    1    3    3    0    0 -0.22369698716E+02  0.40461116798E+01 -0.96467912344E+01  0.24694837957E+02  0.51100000000E-03 0. -1.
        -11    1    3    3    0    0 -0.73858267992E+01  0.10094196895E+02  0.19029477852E+02  0.22772006413E+02  0.51100000000E-03 0.  1.
         12    1    3    3    0    0  0.70044503064E+01 -0.19480059851E+01  0.93383565291E+01  0.11834777314E+02  0.00000000000E+00 0. -1.
</event>
<event>
 7    1  0.7457761E-012  0.5930195E+02  0.7816164E-02  0.1266605E+00
        -11   -1    0    0    0    0  0.00000000000E+00  0.00000000000E+00  0.45593999997E+02  0.45594000000E+02  0.51100000000E-03 0. -1.
         11   -1    0    0    0    0 -0.00000000000E+00 -0.00000000000E+00 -0.45593999997E+02  0.45594000000E+02  0.51100000000E-03 0.  1.
    9900012    2    1    2    0    0 -0.42946779611E+01  0.29152383401E+02 -0.12182558654E+02  0.59301945806E+02  0.50000003242E+02 0.  0.
         12    1    1    2    0    0  0.42946779611E+01 -0.29152383401E+02  0.12182558654E+02  0.31886054194E+02  0.00000000000E+00 0. -1.
         11    1    3    3    0    0 -0.86644819648E+01  0.52354491886E+01  0.90053539133E+01  0.13549154043E+02  0.51100000000E-03 0. -1.
        -11    1    3    3    0    0  0.18479106489E+02  0.11638097587E+02 -0.10947002265E+02  0.24428662488E+02  0.51100000000E-03 0.  1.
        -12    1    3    3    0    0 -0.14109302485E+02  0.12278836625E+02 -0.10240910303E+02  0.21324129274E+02  0.00000000000E+00 0.  1.
</event>
<event>
 7    1  0.7457761E-012  0.5930193E+02  0.7816164E-02  0.1266605E+00
        -11   -1    0    0    0    0  0.00000000000E+00  0.00000000000E+00  0.45593999997E+02  0.45594000000E+02  0.51100000000E-03 0.  1.
         11   -1    0    0    0    0 -0.00000000000E+00 -0.00000000000E+00 -0.45593999997E+02  0.45594000000E+02  0.51100000000E-03 0. -1.
    9900012    2    1    2    0    0 -0.78937840818E+01 -0.30853517617E+02 -0.15716375659E+01  0.59301930610E+02  0.49999975530E+02 0.  0.
         12    1    1    2    0    0  0.78937840818E+01  0.30853517617E+02  0.15716375659E+01  0.31886069390E+02  0.00000000000E+00 0. -1.
         11    1    3    3    0    0  0.92639036549E+01 -0.52687425428E+01 -0.86541926067E+01  0.13728605495E+02  0.51100000000E-03 0. -1.
        -11    1    3    3    0    0 -0.16172483340E+02  0.28703403985E+01  0.97950931101E+00  0.16454407013E+02  0.51100000000E-03 0.  1.
        -12    1    3    3    0    0 -0.98520439661E+00 -0.28455115473E+02  0.61030457298E+01  0.29118918102E+02  0.00000000000E+00 0.  1.
</event>
<event>
 7    1  0.7457761E-012  0.5930195E+02  0.7816164E-02  0.1266605E+00
        -11   -1    0    0    0    0  0.00000000000E+00  0.00000000000E+00  0.45593999997E+02  0.45594000000E+02  0.51100000000E-03 0.  1.
         11   -1    0    0    0    0 -0.00000000000E+00 -0.00000000000E+00 -0.45593999997E+02  0.45594000000E+02  0.51100000000E-03 0. -1.
    9900012    2    1    2    0    0 -0.37534965413E+01  0.15333064479E+02  0.27704310977E+02  0.59301945849E+02  0.50000003322E+02 0.  0.
         12    1    1    2    0    0  0.37534965413E+01 -0.15333064479E+02 -0.27704310977E+02  0.31886054151E+02  0.00000000000E+00 0. -1.
         11    1    3    3    0    0  0.53386844599E+01  0.23896204781E+02  0.31893965113E+02  0.40208894110E+02  0.51100000000E-03 0.  1.
        -11    1    3    3    0    0 -0.10835128544E+02 -0.10991149038E+02 -0.45298426730E+01  0.16084925944E+02  0.51100000000E-03 0. -1.
        -12    1    3    3    0    0  0.17429475424E+01  0.24280087358E+01  0.34018853695E+00  0.30081257948E+01  0.00000000000E+00 0.  1.
</event>
<event>
 7    1  0.7457761E-012  0.5930198E+02  0.7816164E-02  0.1266605E+00
        -11   -1    0    0    0    0  0.00000000000E+00  0.00000000000E+00  0.45593999997E+02  0.45594000000E+02  0.51100000000E-03 0. -1.
         11   -1    0    0    0    0 -0.00000000000E+00 -0.00000000000E+00 -0.45593999997E+02  0.45594000000E+02  0.51100000000E-03 0.  1.
    9900012    2    1    2    0    0  0.16503824303E+02  0.15070378763E+01 -0.27240982747E+02  0.59301976089E+02  0.50000058473E+02 0.  0.
         12    1    1    2    0    0 -0.16503824303E+02 -0.15070378763E+01  0.27240982747E+02  0.31886023911E+02  0.00000000000E+00 0. -1.
         11    1    3    3    0    0 -0.95743949738E+01 -0.22559221499E+01 -0.10533958707E+01  0.98928189603E+01  0.51100000000E-03 0. -1.
        -11    1    3    3    0    0  0.14364345181E+02  0.93772278534E+01 -0.31103447305E+02  0.35520293484E+02  0.51100000000E-03 0.  1.
         12    1    3    3    0    0  0.11713874097E+02 -0.56142678272E+01  0.49158604288E+01  0.13888863645E+02  0.00000000000E+00 0. -1.
</event>
<event>
 7    1  0.7457761E-012  0.5930196E+02  0.7816164E-02  0.1266605E+00
        -11   -1    0    0    0    0  0.00000000000E+00  0.00000000000E+00  0.45593999997E+02  0.45594000000E+02  0.51100000000E-03 0. -1.
         11   -1    0    0    0    0 -0.00000000000E+00 -0.00000000000E+00 -0.45593999997E+02  0.45594000000E+02  0.51100000000E-03 0.  1.
    9900012    2    1    2    0    0 -0.56722383592E+01 -0.26522218677E+02 -0.16766545433E+02  0.59301962032E+02  0.50000032836E+02 0.  0.
         12    1    1    2    0    0  0.56722383592E+01  0.26522218677E+02  0.16766545433E+02  0.31886037968E+02  0.00000000000E+00 0. -1.
         11    1    3    3    0    0 -0.18038655538E+02  0.61786183614E+01 -0.57666819141E+01  0.19920417642E+02  0.51100000000E-03 0. -1.
        -11    1    3    3    0    0  0.54700484587E+01 -0.26719355788E+02 -0.12716735033E+02  0.30092536517E+02  0.51100000000E-03 0.  1.
         12    1    3    3    0    0  0.68963687202E+01 -0.59814812500E+01  0.17168715140E+01  0.92890078730E+01  0.00000000000E+00 0. -1.
</event>
<event>
 7    1  0.7457761E-012  0.5930199E+02  0.7816164E-02  0.1266605E+00
        -11   -1    0    0    0    0  0.00000000000E+00  0.00000000000E+00  0.45593999997E+02  0.45594000000E+02  0.51100000000E-03 0. -1.
         11   -1    0    0    0    0 -0.00000000000E+00 -0.00000000000E+00 -0.45593999997E+02  0.45594000000E+02  0.51100000000E-03 0.  1.
    9900012    2    1    2    0    0 -0.57110476293E+01 -0.25320805858E+02 -0.18519136609E+02  0.59301989038E+02  0.50000082087E+02 0.  0.
         12    1    1    2    0    0  0.57110476293E+01  0.25320805858E+02  0.18519136609E+02  0.31886010962E+02  0.00000000000E+00 0. -1.
         11    1    3    3    0    0 -0.88015069161E+01 -0.18585499723E+02  0.67249830537E+01  0.21635912768E+02  0.51100000000E-03 0. -1.
        -11    1    3    3    0    0  0.81177022759E+01  0.27517225856E+01 -0.25524969189E+02  0.26925696273E+02  0.51100000000E-03 0.  1.
        -12    1    3    3    0    0 -0.50272429890E+01 -0.94870287205E+01  0.28084952660E+00  0.10740379997E+02  0.00000000000E+00 0.  1.
</event>
<event>
 7    1  0.7457761E-012  0.5930194E+02  0.7816164E-02  0.1266605E+00
        -11   -1    0    0    0    0  0.00000000000E+00  0.00000000000E+00  0.45593999997E+02  0.45594000000E+02  0.51100000000E-03 0. -1.
         11   -1    0    0    0    0 -0.00000000000E+00 -0.00000000000E+00 -0.45593999997E+02  0.45594000000E+02  0.51100000000E-03 0.  1.
    9900012    2    1    2    0    0  0.21960253879E+01 -0.50562532934E+01 -0.31405935313E+02  0.59301937249E+02  0.49999987637E+02 0.  0.
         12    1    1    2    0    0 -0.21960253879E+01  0.50562532934E+01  0.31405935313E+02  0.31886062751E+02  0.00000000000E+00 0. -1.
         11    1    3    3    0    0 -0.56578543500E+01  0.12344220382E+02 -0.12508756298E+02  0.18462396298E+02  0.51100000000E-03 0. -1.
        -11    1    3    3    0    0  0.38495483375E+01 -0.26228520418E+02 -0.13984620767E+02  0.29972052382E+02  0.51100000000E-03 0.  1.
         12    1    3    3    0    0  0.40043314004E+01  0.88280467423E+01 -0.49125582483E+01  0.10867488569E+02  0.00000000000E+00 0. -1.
</event>
<event>
 7    1  0.7457761E-012  0.5930198E+02  0.7816164E-02  0.1266605E+00
        -11   -1    0    0    0    0  0.00000000000E+00  0.00000000000E+00  0.45593999997E+02  0.45594000000E+02  0.51100000000E-03 0.  1.
         11   -1    0    0    0    0 -0.00000000000E+00 -0.00000000000E+00 -0.45593999997E+02  0.45594000000E+02  0.51100000000E-03 0. -1.
    9900012    2    1    2    0    0  0.12280143122E+02 -0.28416002199E+02  0.76450852153E+01  0.59301977608E+02  0.50000061242E+02 0.  0.
         12    1    1    2    0    0 -0.12280143122E+02  0.28416002199E+02 -0.76450852153E+01  0.31886022392E+02  0.00000000000E+00 0. -1.
         11    1    3    3    0    0 -0.36068611585E+00 -0.35188467288E+01 -0.14128702302E+02  0.14564772767E+02  0.51100000000E-03 0. -1.
        -11    1    3    3    0    0 -0.66637125041E+00 -0.25260500948E+02  0.17569158260E+02  0.30776814017E+02  0.51100000000E-03 0.  1.
         12    1    3    3    0    0  0.13307200488E+02  0.36334547814E+00  0.42046292565E+01  0.13960390824E+02  0.00000000000E+00 0. -1.
</event>
<event>
 7    1  0.7457761E-012  0.5930198E+02  0.7816164E-02  0.1266605E+00
        -11   -1    0    0    0    0  0.00000000000E+00  0.00000000000E+00  0.45593999997E+02  0.45594000000E+02  0.51100000000E-03 0. -1.
         11   -1    0    0    0    0 -0.00000000000E+00 -0.00000000000E+00 -0.45593999997E+02  0.45594000000E+02  0.51100000000E-03 0.  1.
    9900012    2    1    2    0    0 -0.15651684822E+02 -0.26049145085E+02 -0.96532565691E+01  0.59301975478E+02  0.50000057358E+02 0.  0.
         12    1    1    2    0    0  0.15651684822E+02  0.26049145085E+02  0.96532565691E+01  0.31886024522E+02  0.00000000000E+00 0. -1.
         11    1    3    3    0    0 -0.18708390197E+02 -0.33554556785E+02 -0.26550424653E+01  0.38509237795E+02  0.51100000000E-03 0. -1.
        -11    1    3    3    0    0  0.10389117055E+02  0.54358288123E+01 -0.26522906219E+01  0.12021507138E+02  0.51100000000E-03 0.  1.
         12    1    3    3    0    0 -0.73324116795E+01  0.20695828878E+01 -0.43459234818E+01  0.87712305452E+01  0.00000000000E+00 0. -1.
</event>
<event>
 7    1  0.7457761E-012  0.5930195E+02  0.7816164E-02  0.1266605E+00
        -11   -1    0    0    0    0  0.00000000000E+00  0.00000000000E+00  0.45593999997E+02  0.45594000000E+02  0.51100000000E-03 0. -1.
         11   -1    0    0    0    0 -0.00000000000E+00 -0.00000000000E+00 -0.45593999997E+02  0.45594000000E+02  0.51100000000E-03 0.  1.
    9900012    2    1    2    0    0  0.30257847705E+02 -0.10058322603E+02 -0.11296439498E+00  0.59301953487E+02  0.50000017251E+02 0.  0.
         12    1    1    2    0    0 -0.30257847705E+02  0.10058322603E+02  0.11296439498E+00  0.31886046513E+02  0.00000000000E+00 0. -1.
         11    1    3    3    0    0  0.20540087120E+02  0.83836213215E+00  0.17347605587E+02  0.26898651450E+02  0.51100000000E-03 0. -1.
        -11    1    3    3    0    0 -0.55880740084E+01 -0.94852182581E+00 -0.12125680943E+02  0.13385006663E+02  0.51100000000E-03 0.  1.
         12    1    3    3    0    0  0.15305834593E+02 -0.99481629090E+01 -0.53348890396E+01  0.19018295374E+02  0.00000000000E+00 0. -1.
</event>
<event>
 7    1  0.7457761E-012  0.5930196E+02  0.7816164E-02  0.1266605E+00
        -11   -1    0    0    0    0  0.00000000000E+00  0.00000000000E+00  0.45593999997E+02  0.45594000000E+02  0.51100000000E-03 0.  1.
         11   -1    0    0    0    0 -0.00000000000E+00 -0.00000000000E+00 -0.45593999997E+02  0.45594000000E+02  0.51100000000E-03 0. -1.
    9900012    2    1    2    0    0 -0.23387901306E+01 -0.94067148122E+01  0.30377023683E+02  0.59301956177E+02  0.50000022157E+02 0.  0.
         12    1    1    2    0    0  0.23387901306E+01  0.94067148122E+01 -0.30377023683E+02  0.31886043823E+02  0.00000000000E+00 0. -1.
         11    1    3    3    0    0 -0.24020217134E+02 -0.73803622034E+01  0.71077351648E+01  0.26114372993E+02  0.51100000000E-03 0. -1.
        -11    1    3    3    0    0  0.90119581313E+01 -0.39667744985E+01  0.14970445603E+02  0.17918284826E+02  0.51100000000E-03 0.  1.
         12    1    3    3    0    0  0.12669468872E+02  0.19404218897E+01  0.82988429152E+01  0.15269298358E+02  0.00000000000E+00 0. -1.
</event>
<event>
 7    1  0.7457761E-012  0.5930194E+02  0.7816164E-02  0.1266605E+00
        -11   -1    0    0    0    0  0.00000000000E+00  0.00000000000E+00  0.45593999997E+02  0.45594000000E+02  0.51100000000E-03 0.  1.
         11   -1    0    0    0    0 -0.00000000000E+00 -0.00000000000E+00 -0.45593999997E+02  0.45594000000E+02  0.51100000000E-03 0. -1.
    9900012    2    1    2    0    0  0.44217453781E+01 -0.28733854986E+02 -0.13097112246E+02  0.59301943427E+02  0.49999998905E+02 0.  0.
         12    1    1    2    0    0 -0.44217453781E+01  0.28733854986E+02  0.13097112246E+02  0.31886056573E+02  0.00000000000E+00 0. -1.
         11    1    3    3    0    0  0.20534006538E+01  0.17328234546E+00 -0.22905834818E+02  0.22998342331E+02  0.51100000000E-03 0. -1.
        -11    1    3    3    0    0  0.61540983948E+01 -0.22043415243E+02 -0.10509889420E+01  0.22910470546E+02  0.51100000000E-03 0.  1.
        -12    1    3    3    0    0 -0.37857536705E+01 -0.68637220884E+01  0.10859711514E+02  0.13393130550E+02  0.00000000000E+00 0.  1.
</event>
<event>
 7    1  0.7457761E-012  0.5930194E+02  0.7816164E-02  0.1266605E+00
        -11   -1    0    0    0    0  0.00000000000E+00  0.00000000000E+00  0.45593999997E+02  0.45594000000E+02  0.51100000000E-03 0.  1.
         11   -1    0    0    0    0 -0.00000000000E+00 -0.00000000000E+00 -0.45593999997E+02  0.45594000000E+02  0.51100000000E-03 0. -1.
    9900012    2    1    2    0    0  0.25795543170E+02 -0.10489176701E+01  0.18713910339E+02  0.59301941669E+02  0.49999995699E+02 0.  0.
         12    1    1    2    0    0 -0.25795543170E+02  0.10489176701E+01 -0.18713910339E+02  0.31886058331E+02  0.00000000000E+00 0. -1.
         11    1    3    3    0    0  0.13199200892E+02  0.14312550031E+02 -0.10289627904E+02  0.22021453976E+02  0.51100000000E-03 0. -1.
        -11    1    3    3    0    0  0.15504498190E+01 -0.13386526410E+01  0.13447514934E+02  0.13602630029E+02  0.51100000000E-03 0.  1.
         12    1    3    3    0    0  0.11045892458E+02 -0.14022815060E+02  0.15556023308E+02  0.23677857664E+02  0.00000000000E+00 0. -1.
</event>
<event>
 7    1  0.7457761E-012  0.5930192E+02  0.7816164E-02  0.1266605E+00
        -11   -1    0    0    0    0  0.00000000000E+00  0.00000000000E+00  0.45593999997E+02  0.45594000000E+02  0.51100000000E-03 0.  1.
         11   -1    0    0    0    0 -0.00000000000E+00 -0.00000000000E+00 -0.45593999997E+02  0.45594000000E+02  0.51100000000E-03 0. -1.
    9900012    2    1    2    0    0 -0.54648178576E+01 -0.28481414813E+02 -0.13253946329E+02  0.59301916558E+02  0.49999949902E+02 0.  0.
         12    1    1    2    0    0  0.54648178576E+01  0.28481414813E+02  0.13253946329E+02  0.31886083442E+02  0.00000000000E+00 0. -1.
         11    1    3    3    0    0  0.58035575440E+01  0.97871488866E+01  0.59502951258E+00  0.11394017021E+02  0.51100000000E-03 0. -1.
        -11    1    3    3    0    0  0.19392900200E+01 -0.27499223524E+02 -0.30571438895E+01  0.27736515088E+02  0.51100000000E-03 0.  1.
         12    1    3    3    0    0 -0.13207665422E+02 -0.10769340175E+02 -0.10791831952E+02  0.20171384449E+02  0.00000000000E+00 0. -1.
</event>
<event>
 7    1  0.7457761E-012  0.5930193E+02  0.7816164E-02  0.1266605E+00
        -11   -1    0    0    0    0  0.00000000000E+00  0.00000000000E+00  0.45593999997E+02  0.45594000000E+02  0.51100000000E-03 0.  1.
         11   -1    0    0    0    0 -0.00000000000E+00 -0.00000000000E+00 -0.45593999997E+02  0.45594000000E+02  0.51100000000E-03 0. -1.
    9900012    2    1    2    0    0  0.21533682113E+02 -0.21227919627E+02  0.10119147182E+02  0.59301934443E+02  0.49999982520E+02 0.  0.
         12    1    1    2    0    0 -0.21533682113E+02  0.21227919627E+02 -0.10119147182E+02  0.31886065557E+02  0.00000000000E+00 0. -1.
         11    1    3    3    0    0  0.57402586821E+01 -0.23170662508E+02  0.28442031554E+00  0.23872810182E+02  0.51100000000E-03 0. -1.
        -11    1    3    3    0    0  0.23372276086E+02  0.64735292616E+01  0.33690957048E+01  0.24485111327E+02  0.51100000000E-03 0.  1.
        -12    1    3    3    0    0 -0.75788526554E+01 -0.45307863807E+01  0.64656311613E+01  0.10944012935E+02  0.00000000000E+00 0.  1.
</event>
<event>
 7    1  0.7457761E-012  0.5930195E+02  0.7816164E-02  0.1266605E+00
        -11   -1    0    0    0    0  0.00000000000E+00  0.00000000000E+00  0.45593999997E+02  0.45594000000E+02  0.51100000000E-03 0.  1.
         11   -1    0    0    0    0 -0.00000000000E+00 -0.00000000000E+00 -0.45593999997E+02  0.45594000000E+02  0.51100000000E-03 0. -1.
    9900012    2    1    2    0    0  0.45979861317E+01 -0.31469393241E+02  0.22925990219E+01  0.59301949794E+02  0.50000010517E+02 0.  0.
         12    1    1    2    0    0 -0.45979861317E+01  0.31469393241E+02 -0.22925990219E+01  0.31886050206E+02  0.00000000000E+00 0. -1.
         11    1    3    3    0    0 -0.15521997554E+01  0.58626772114E+01 -0.55465063905E+01  0.82185182099E+01  0.51100000000E-03 0. -1.
        -11    1    3    3    0    0 -0.25913856533E+01 -0.36229467407E+02 -0.37613910911E+01  0.36516265573E+02  0.51100000000E-03 0.  1.
        -12    1    3    3    0    0  0.87415715405E+01 -0.11026030454E+01  0.11600496504E+02  0.14567166011E+02  0.00000000000E+00 0.  1.
</event>
<event>
 7    1  0.7457761E-012  0.5930194E+02  0.7816164E-02  0.1266605E+00
        -11   -1    0    0    0    0  0.00000000000E+00  0.00000000000E+00  0.45593999997E+02  0.45594000000E+02  0.51100000000E-03 0.  1.
         11   -1    0    0    0    0 -0.00000000000E+00 -0.00000000000E+00 -0.45593999997E+02  0.45594000000E+02  0.51100000000E-03 0. -1.
    9900012    2    1    2    0    0 -0.73453788760E+01  0.59189222663E+01  0.30458704792E+02  0.59301938324E+02  0.49999989597E+02 0.  0.
         12    1    1    2    0    0  0.73453788760E+01 -0.59189222663E+01 -0.30458704792E+02  0.31886061676E+02  0.00000000000E+00 0. -1.
         11    1    3    3    0    0 -0.33131490475E+00 -0.56926258763E+01  0.98117743417E+00  0.57860581014E+01  0.51100000000E-03 0. -1.
        -11    1    3    3    0    0 -0.24176477204E+02  0.12994883274E+02  0.18072112626E+02  0.32862901520E+02  0.51100000000E-03 0.  1.
        -12    1    3    3    0    0  0.17162413233E+02 -0.13833351313E+01  0.11405414732E+02  0.20652978702E+02  0.00000000000E+00 0.  1.
</event>
<event>
 7    1  0.7457761E-012  0.5930195E+02  0.7816164E-02  0.1266605E+00
        -11   -1    0    0    0    0  0.00000000000E+00  0.00000000000E+00  0.45593999997E+02  0.45594000000E+02  0.51100000000E-03 0.  1.
         11   -1    0    0    0    0 -0.00000000000E+00 -0.00000000000E+00 -0.45593999997E+02  0.45594000000E+02  0.51100000000E-03 0. -1.
    9900012    2    1    2    0    0  0.52254707800E+01 -0.13458750447E+02  0.28430208619E+02  0.59301948652E+02  0.50000008433E+02 0.  0.
         12    1    1    2    0    0 -0.52254707800E+01  0.13458750447E+02 -0.28430208619E+02  0.31886051348E+02  0.00000000000E+00 0. -1.
         11    1    3    3    0    0  0.83046236934E+01 -0.10125625585E+01  0.11888139423E+02  0.14536846867E+02  0.51100000000E-03 0.  1.
        -11    1    3    3    0    0 -0.14034223150E+01 -0.89607342658E+01 -0.12512637747E+02  0.15454140430E+02  0.51100000000E-03 0. -1.
        -12    1    3    3    0    0 -0.16757305985E+01 -0.34854536224E+01  0.29054706944E+02  0.29310961355E+02  0.00000000000E+00 0.  1.
</event>
<event>
 7    1  0.7457761E-012  0.5930193E+02  0.7816164E-02  0.1266605E+00
        -11   -1    0    0    0    0  0.00000000000E+00  0.00000000000E+00  0.45593999997E+02  0.45594000000E+02  0.51100000000E-03 0.  1.
         11   -1    0    0    0    0 -0.00000000000E+00 -0.00000000000E+00 -0.45593999997E+02  0.45594000000E+02  0.51100000000E-03 0. -1.
    9900012    2    1    2    0    0  0.84966455335E+01 -0.77093166964E+01  0.29750539814E+02  0.59301934572E+02  0.49999982755E+02 0.  0.
         12    1    1    2    0    0 -0.84966455335E+01  0.77093166964E+01 -0.29750539814E+02  0.31886065428E+02  0.00000000000E+00 0. -1.
         11    1    3    3    0    0 -0.23678295986E+01  0.12610554320E+02  0.22969439028E+02  0.26310222857E+02  0.51100000000E-03 0.  1.
        -11    1    3    3    0    0  0.49372261100E+01 -0.20632659692E+02 -0.31244347152E+01  0.21443995434E+02  0.51100000000E-03 0. -1.
        -12    1    3    3    0    0  0.59272490221E+01  0.31278867522E+00  0.99055355012E+01  0.11547716280E+02  0.00000000000E+00 0.  1.
</event>
<event>
 7    1  0.7457761E-012  0.5930195E+02  0.7816164E-02  0.1266605E+00
        -11   -1    0    0    0    0  0.00000000000E+00  0.00000000000E+00  0.45593999997E+02  0.45594000000E+02  0.51100000000E-03 0. -1.
         11   -1    0    0    0    0 -0.00000000000E+00 -0.00000000000E+00 -0.45593999997E+02  0.45594000000E+02  0.51100000000E-03 0.  1.
    9900012    2    1    2    0    0  0.30906512660E+01 -0.74885469835E+01 -0.30839738895E+02  0.59301953580E+02  0.50000017421E+02 0.  0.
         12    1    1    2    0    0 -0.30906512660E+01  0.74885469835E+01  0.30839738895E+02  0.31886046420E+02  0.00000000000E+00 0. -1.
         11    1    3    3    0    0 -0.11986339587E+02 -0.10538300045E+02  0.57457105735E+01  0.16962938861E+02  0.51100000000E-03 0. -1.
        -11    1    3    3    0    0  0.13067085231E+02  0.65689393368E+01 -0.17399791049E+02  0.22729989205E+02  0.51100000000E-03 0.  1.
         12    1    3    3    0    0  0.20099056221E+01 -0.35191862748E+01 -0.19185658419E+02  0.19609025514E+02  0.00000000000E+00 0. -1.
</event>
<event>
 7    1  0.7457761E-012  0.5930194E+02  0.7816164E-02  0.1266605E+00
        -11   -1    0    0    0    0  0.00000000000E+00  0.00000000000E+00  0.45593999997E+02  0.45594000000E+02  0.51100000000E-03 0. -1.
         11   -1    0    0    0    0 -0.00000000000E+00 -0.00000000000E+00 -0.45593999997E+02  0.45594000000E+02  0.51100000000E-03 0.  1.
    9900012    2    1    2    0    0 -0.11322227774E+02 -0.25276246183E+02 -0.15799978697E+02  0.59301940512E+02  0.49999993587E+02 0.  0.
         12    1    1    2    0    0  0.11322227774E+02  0.25276246183E+02  0.15799978697E+02  0.31886059488E+02  0.00000000000E+00 0. -1.
         11    1    3    3    0    0  0.89909145099E+01  0.73722918431E+01  0.91516623397E+00  0.11662965328E+02  0.51100000000E-03 0. -1.
        -11    1    3    3    0    0 -0.90043513448E+01 -0.29621781524E+02 -0.18080267526E+02  0.35852815201E+02  0.51100000000E-03 0.  1.
        -12    1    3    3    0    0 -0.11308790939E+02 -0.30267565019E+01  0.13651225944E+01  0.11786159982E+02  0.00000000000E+00 0.  1.
</event>
<event>
 7    1  0.7457761E-012  0.5930191E+02  0.7816164E-02  0.1266605E+00
        -11   -1    0    0    0    0  0.00000000000E+00  0.00000000000E+00  0.45593999997E+02  0.45594000000E+02  0.51100000000E-03 0.  1.
         11   -1    0    0    0    0 -0.00000000000E+00 -0.00000000000E+00 -0.45593999997E+02  0.45594000000E+02  0.51100000000E-03 0. -1.
    9900012    2    1    2    0    0  0.83906640774E+01  0.10916074062E+02  0.28760369161E+02  0.59301909759E+02  0.49999937502E+02 0.  0.
         12    1    1    2    0    0 -0.83906640774E+01 -0.10916074062E+02 -0.28760369161E+02  0.31886090241E+02  0.00000000000E+00 0. -1.
         11    1    3    3    0    0 -0.11294535498E+02 -0.11966920969E+01  0.62405643375E+01  0.12959291941E+02  0.51100000000E-03 0. -1.
        -11    1    3    3    0    0  0.62240786956E+01  0.54004161542E+01  0.28864272884E+02  0.30017493227E+02  0.51100000000E-03 0.  1.
         12    1    3    3    0    0  0.13461120880E+02  0.67123500050E+01 -0.63444680609E+01  0.16325124591E+02  0.00000000000E+00 0. -1.
</event>
<event>
 7    1  0.7457761E-012  0.5930193E+02  0.7816164E-02  0.1266605E+00
        -11   -1    0    0    0    0  0.00000000000E+00  0.00000000000E+00  0.45593999997E+02  0.45594000000E+02  0.51100000000E-03 0. -1.
         11   -1    0    0    0    0 -0.00000000000E+00 -0.00000000000E+00 -0.45593999997E+02  0.45594000000E+02  0.51100000000E-03 0.  1.
    9900012    2    1    2    0    0  0.18406756778E+02  0.72572009659E-01 -0.26036657942E+02  0.59301929082E+02  0.49999972742E+02 0.  0.
         12    1    1    2    0    0 -0.18406756778E+02 -0.72572009659E-01  0.26036657942E+02  0.31886070918E+02  0.00000000000E+00 0. -1.
         11    1    3    3    0    0 -0.65036597106E+01  0.25800686047E+01  0.51083802992E+01  0.86631341430E+01  0.51100000000E-03 0. -1.
        -11    1    3    3    0    0  0.14691684087E+02 -0.11164673464E+02 -0.32296793232E+02  0.37196483277E+02  0.51100000000E-03 0.  1.
        -12    1    3    3    0    0  0.10218732402E+02  0.86571768693E+01  0.11517549904E+01  0.13442311661E+02  0.00000000000E+00 0.  1.
</event>
<event>
 7    1  0.7457761E-012  0.5930195E+02  0.7816164E-02  0.1266605E+00
        -11   -1    0    0    0    0  0.00000000000E+00  0.00000000000E+00  0.45593999997E+02  0.45594000000E+02  0.51100000000E-03 0.  1.
         11   -1    0    0    0    0 -0.00000000000E+00 -0.00000000000E+00 -0.45593999997E+02  0.45594000000E+02  0.51100000000E-03 0. -1.
    9900012    2    1    2    0    0 -0.29712981021E+02 -0.11268043315E+02  0.26249101596E+01  0.59301949843E+02  0.50000010605E+02 0.  0.
         12    1    1    2    0    0  0.29712981021E+02  0.11268043315E+02 -0.26249101596E+01  0.31886050157E+02  0.00000000000E+00 0. -1.
         11    1    3    3    0    0 -0.74872122988E+01  0.68477611010E+01  0.88672020410E+01  0.13475067807E+02  0.51100000000E-03 0. -1.
        -11    1    3    3    0    0  0.30939411283E+01 -0.18813265152E+02  0.20473191674E+01  0.19175581697E+02  0.51100000000E-03 0.  1.
        -12    1    3    3    0    0 -0.25319709851E+02  0.69746073639E+00 -0.82896110488E+01  0.26651300339E+02  0.00000000000E+00 0.  1.
</event>
<event>
 7    1  0.7457761E-012  0.5930194E+02  0.7816164E-02  0.1266605E+00
        -11   -1    0    0    0    0  0.00000000000E+00  0.00000000000E+00  0.45593999997E+02  0.45594000000E+02  0.51100000000E-03 0. -1.
         11   -1    0    0    0    0 -0.00000000000E+00 -0.00000000000E+00 -0.45593999997E+02  0.45594000000E+02  0.51100000000E-03 0.  1.
    9900012    2    1    2    0    0 -0.18732981624E+02 -0.23248149676E+02  0.11194643788E+02  0.59301935435E+02  0.49999984329E+02 0.  0.
         12    1    1    2    0    0  0.18732981624E+02  0.23248149676E+02 -0.11194643788E+02  0.31886064565E+02  0.00000000000E+00 0. -1.
         11    1    3    3    0    0 -0.59291307334E+01 -0.26609066371E+01  0.26582685518E+02  0.27365565680E+02  0.51100000000E-03 0. -1.
        -11    1    3    3    0    0 -0.93671285392E+01 -0.35046718939E+01 -0.26331938038E+01  0.10342124154E+02  0.51100000000E-03 0.  1.
         12    1    3    3    0    0 -0.34367223518E+01 -0.17082571145E+02 -0.12754847926E+02  0.21594245601E+02  0.00000000000E+00 0. -1.
</event>
<event>
 7    1  0.7457761E-012  0.5930192E+02  0.7816164E-02  0.1266605E+00
        -11   -1    0    0    0    0  0.00000000000E+00  0.00000000000E+00  0.45593999997E+02  0.45594000000E+02  0.51100000000E-03 0.  1.
         11   -1    0    0    0    0 -0.00000000000E+00 -0.00000000000E+00 -0.45593999997E+02  0.45594000000E+02  0.51100000000E-03 0. -1.
    9900012    2    1    2    0    0  0.11622619431E+00 -0.16358245840E+02  0.27369984905E+02  0.59301924839E+02  0.49999965005E+02 0.  0.
         12    1    1    2    0    0 -0.11622619431E+00  0.16358245840E+02 -0.27369984905E+02  0.31886075161E+02  0.00000000000E+00 0. -1.
         11    1    3    3    0    0 -0.15456427846E+02 -0.24086280992E+02  0.25083682013E+02  0.38055764312E+02  0.51100000000E-03 0. -1.
        -11    1    3    3    0    0  0.29965025012E+01  0.67024846558E+01  0.42395480501E+01  0.84779771014E+01  0.51100000000E-03 0.  1.
         12    1    3    3    0    0  0.12576151539E+02  0.10255504964E+01 -0.19532451580E+01  0.12768183426E+02  0.00000000000E+00 0. -1.
</event>
<event>
 7    1  0.7457761E-012  0.5930212E+02  0.7816164E-02  0.1266604E+00
        -11   -1    0    0    0    0  0.00000000000E+00  0.00000000000E+00  0.45593999997E+02  0.45594000000E+02  0.51100000000E-03 0.  1.
         11   -1    0    0    0    0 -0.00000000000E+00 -0.00000000000E+00 -0.45593999997E+02  0.45594000000E+02  0.51100000000E-03 0. -1.
    9900012    2    1    2    0    0 -0.72826693797E+01  0.29513268032E+02 -0.96249343098E+01  0.59302115604E+02  0.50000312913E+02 0.  0.
         12    1    1    2    0    0  0.72826693797E+01 -0.29513268032E+02  0.96249343098E+01  0.31885884396E+02  0.00000000000E+00 0. -1.
         11    1    3    3    0    0  0.16558232489E+02  0.25310630603E+02  0.86551494875E+00  0.30258093150E+02  0.51100000000E-03 0. -1.
        -11    1    3    3    0    0 -0.19714737216E+02  0.80719576234E+01 -0.71309645313E+01  0.22465039923E+02  0.51100000000E-03 0.  1.
         12    1    3    3    0    0 -0.41261646535E+01 -0.38693201940E+01 -0.33594847273E+01  0.65789825311E+01  0.00000000000E+00 0. -1.
</event>
<event>
 7    1  0.7457761E-012  0.5930194E+02  0.7816164E-02  0.1266605E+00
        -11   -1    0    0    0    0  0.00000000000E+00  0.00000000000E+00  0.45593999997E+02  0.45594000000E+02  0.51100000000E-03 0. -1.
         11   -1    0    0    0    0 -0.00000000000E+00 -0.00000000000E+00 -0.45593999997E+02  0.45594000000E+02  0.51100000000E-03 0.  1.
    9900012    2    1    2    0    0  0.80134621357E+01 -0.23870558192E+02  0.19562756260E+02  0.59301944172E+02  0.50000000263E+02 0.  0.
         12    1    1    2    0    0 -0.80134621357E+01  0.23870558192E+02 -0.19562756260E+02  0.31886055828E+02  0.00000000000E+00 0. -1.
         11    1    3    3    0    0  0.81950089134E+01 -0.21434723505E+02  0.36951638648E+01  0.23243488961E+02  0.51100000000E-03 0. -1.
        -11    1    3    3    0    0 -0.33679402840E+01  0.13312801899E+02  0.37367713731E+00  0.13737297806E+02  0.51100000000E-03 0.  1.
        -12    1    3    3    0    0  0.31863935064E+01 -0.15748636586E+02  0.15493915258E+02  0.22321157405E+02  0.00000000000E+00 0.  1.
</event>
<event>
 7    1  0.7457761E-012  0.5930194E+02  0.7816164E-02  0.1266605E+00
        -11   -1    0    0    0    0  0.00000000000E+00  0.00000000000E+00  0.45593999997E+02  0.45594000000E+02  0.51100000000E-03 0. -1.
         11   -1    0    0    0    0 -0.00000000000E+00 -0.00000000000E+00 -0.45593999997E+02  0.45594000000E+02  0.51100000000E-03 0.  1.
    9900012    2    1    2    0    0  0.25959742793E+02 -0.41978772465E+01 -0.18033032615E+02  0.59301942160E+02  0.49999996594E+02 0.  0.
         12    1    1    2    0    0 -0.25959742793E+02  0.41978772465E+01  0.18033032615E+02  0.31886057840E+02  0.00000000000E+00 0. -1.
         11    1    3    3    0    0  0.73130581217E+01 -0.80199005117E+01  0.30868558532E+01  0.11283984342E+02  0.51100000000E-03 0. -1.
        -11    1    3    3    0    0  0.21051866680E+02  0.15170740857E+01 -0.31049723885E+02  0.37544213377E+02  0.51100000000E-03 0.  1.
        -12    1    3    3    0    0 -0.24051820086E+01  0.23049491795E+01  0.99298354168E+01  0.10473744441E+02  0.00000000000E+00 0.  1.
</event>
<event>
 7    1  0.7457761E-012  0.5930200E+02  0.7816164E-02  0.1266605E+00
        -11   -1    0    0    0    0  0.00000000000E+00  0.00000000000E+00  0.45593999997E+02  0.45594000000E+02  0.51100000000E-03 0. -1.
         11   -1    0    0    0    0 -0.00000000000E+00 -0.00000000000E+00 -0.45593999997E+02  0.45594000000E+02  0.51100000000E-03 0.  1.
    9900012    2    1    2    0    0 -0.17881795901E+02 -0.24513513412E+02 -0.98003157793E+01  0.59301997525E+02  0.50000097566E+02 0.  0.
         12    1    1    2    0    0  0.17881795901E+02  0.24513513412E+02  0.98003157793E+01  0.31886002475E+02  0.00000000000E+00 0. -1.
         11    1    3    3    0    0 -0.85939908121E+01  0.27009745065E+01  0.13823880322E+02  0.16500048751E+02  0.51100000000E-03 0. -1.
        -11    1    3    3    0    0 -0.15200310455E+02 -0.23722392854E+02 -0.21998353011E+02  0.35745333906E+02  0.51100000000E-03 0.  1.
         12    1    3    3    0    0  0.59125053659E+01 -0.34920950653E+01 -0.16258430904E+01  0.70566148684E+01  0.00000000000E+00 0. -1.
</event>
<event>
 7    1  0.7457761E-012  0.5930196E+02  0.7816164E-02  0.1266605E+00
        -11   -1    0    0    0    0  0.00000000000E+00  0.00000000000E+00  0.45593999997E+02  0.45594000000E+02  0.51100000000E-03 0.  1.
         11   -1    0    0    0    0 -0.00000000000E+00 -0.00000000000E+00 -0.45593999997E+02  0.45594000000E+02  0.51100000000E-03 0. -1.
    9900012    2    1    2    0    0  0.99141229599E+00  0.30810351478E+02  0.81522253882E+01  0.59301961750E+02  0.50000032321E+02 0.  0.
         12    1    1    2    0    0 -0.99141229599E+00 -0.30810351478E+02 -0.81522253882E+01  0.31886038250E+02  0.00000000000E+00 0. -1.
         11    1    3    3    0    0 -0.15582096679E+02  0.15752535920E+02  0.20553902058E+01  0.22252387602E+02  0.51100000000E-03 0. -1.
        -11    1    3    3    0    0  0.13621792995E+02 -0.58110367734E+01  0.59838049250E+01  0.15972705294E+02  0.51100000000E-03 0.  1.
        -12    1    3    3    0    0  0.29517159808E+01  0.20868852331E+02  0.11303025743E+00  0.21076868854E+02  0.00000000000E+00 0.  1.
</event>
<event>
 7    1  0.7457761E-012  0.5930192E+02  0.7816164E-02  0.1266605E+00
        -11   -1    0    0    0    0  0.00000000000E+00  0.00000000000E+00  0.45593999997E+02  0.45594000000E+02  0.51100000000E-03 0.  1.
         11   -1    0    0    0    0 -0.00000000000E+00 -0.00000000000E+00 -0.45593999997E+02  0.45594000000E+02  0.51100000000E-03 0. -1.
    9900012    2    1    2    0    0  0.27631540678E+02 -0.71562534859E+01  0.14212962752E+02  0.59301916604E+02  0.49999949985E+02 0.  0.
         12    1    1    2    0    0 -0.27631540678E+02  0.71562534859E+01 -0.14212962752E+02  0.31886083396E+02  0.00000000000E+00 0. -1.
         11    1    3    3    0    0  0.11678469655E+02  0.65003438766E+01 -0.65779594108E+01  0.14896666549E+02  0.51100000000E-03 0. -1.
        -11    1    3    3    0    0  0.53009866376E+00 -0.18852859974E+02  0.20871023265E+02  0.28130249665E+02  0.51100000000E-03 0.  1.
        -12    1    3    3    0    0  0.15422972359E+02  0.51962626120E+01 -0.80101102400E-01  0.16275000390E+02  0.00000000000E+00 0.  1.
</event>
<event>
 7    1  0.7457761E-012  0.5930192E+02  0.7816164E-02  0.1266605E+00
        -11   -1    0    0    0    0  0.00000000000E+00  0.00000000000E+00  0.45593999997E+02  0.45594000000E+02  0.51100000000E-03 0.  1.
         11   -1    0    0    0    0 -0.00000000000E+00 -0.00000000000E+00 -0.45593999997E+02  0.45594000000E+02  0.51100000000E-03 0. -1.
    9900012    2    1    2    0    0  0.26676554614E+02 -0.70714886886E+01  0.15971150357E+02  0.59301918992E+02  0.49999954341E+02 0.  0.
         12    1    1    2    0    0 -0.26676554614E+02  0.70714886886E+01 -0.15971150357E+02  0.31886081008E+02  0.00000000000E+00 0. -1.
         11    1    3    3    0    0  0.21438433079E+02  0.13933268213E+02  0.10540562988E+01  0.25590103769E+02  0.51100000000E-03 0. -1.
        -11    1    3    3    0    0  0.99266540521E+01 -0.20302515874E+02  0.56383472234E+01  0.23292092460E+02  0.51100000000E-03 0.  1.
        -12    1    3    3    0    0 -0.46885325178E+01 -0.70224102729E+00  0.92787468348E+01  0.10419722763E+02  0.00000000000E+00 0.  1.
</event>
<event>
 7    1  0.7457761E-012  0.5930195E+02  0.7816164E-02  0.1266605E+00
        -11   -1    0    0    0    0  0.00000000000E+00  0.00000000000E+00  0.45593999997E+02  0.45594000000E+02  0.51100000000E-03 0.  1.
         11   -1    0    0    0    0 -0.00000000000E+00 -0.00000000000E+00 -0.45593999997E+02  0.45594000000E+02  0.51100000000E-03 0. -1.
    9900012    2    1    2    0    0 -0.10879291526E+02 -0.14657484850E+02  0.26144197761E+02  0.59301954105E+02  0.50000018379E+02 0.  0.
         12    1    1    2    0    0  0.10879291526E+02  0.14657484850E+02 -0.26144197761E+02  0.31886045895E+02  0.00000000000E+00 0. -1.
         11    1    3    3    0    0  0.12233507236E+02 -0.27284776018E+01  0.13842206958E+01  0.12610287726E+02  0.51100000000E-03 0. -1.
        -11    1    3    3    0    0 -0.20769394808E+02 -0.15995287607E+02  0.29877647123E+02  0.39747839994E+02  0.51100000000E-03 0.  1.
        -12    1    3    3    0    0 -0.23434039540E+01  0.40662803590E+01 -0.51176700580E+01  0.69438263855E+01  0.00000000000E+00 0.  1.
</event>
<event>
 7    1  0.7457761E-012  0.5930194E+02  0.7816164E-02  0.1266605E+00
        -11   -1    0    0    0    0  0.00000000000E+00  0.00000000000E+00  0.45593999997E+02  0.45594000000E+02  0.51100000000E-03 0.  1.
         11   -1    0    0    0    0 -0.00000000000E+00 -0.00000000000E+00 -0.45593999997E+02  0.45594000000E+02  0.51100000000E-03 0. -1.
    9900012    2    1    2    0    0  0.10045737739E+02 -0.30262252390E+02 -0.76687288602E-02  0.59301939954E+02  0.49999992571E+02 0.  0.
         12    1    1    2    0    0 -0.10045737739E+02  0.30262252390E+02  0.76687288602E-02  0.31886060046E+02  0.00000000000E+00 0. -1.
         11    1    3    3    0    0 -0.24635292454E+01 -0.26839158435E+02 -0.13714444031E+02  0.30240624616E+02  0.51100000000E-03 0. -1.
        -11    1    3    3    0    0  0.37158046989E+01 -0.12045942406E+02  0.10311312292E+02  0.16286039864E+02  0.51100000000E-03 0.  1.
         12    1    3    3    0    0  0.87934622858E+01  0.86228484508E+01  0.33954630099E+01  0.12775275474E+02  0.00000000000E+00 0. -1.
</event>
<event>
 7    1  0.7457761E-012  0.5930194E+02  0.7816164E-02  0.1266605E+00
        -11   -1    0    0    0    0  0.00000000000E+00  0.00000000000E+00  0.45593999997E+02  0.45594000000E+02  0.51100000000E-03 0.  1.
         11   -1    0    0    0    0 -0.00000000000E+00 -0.00000000000E+00 -0.45593999997E+02  0.45594000000E+02  0.51100000000E-03 0. -1.
    9900012    2    1    2    0    0 -0.18208837296E+02  0.12709505187E+02  0.22882903730E+02  0.59301944100E+02  0.50000000131E+02 0.  0.
         12    1    1    2    0    0  0.18208837296E+02 -0.12709505187E+02 -0.22882903730E+02  0.31886055900E+02  0.00000000000E+00 0. -1.
         11    1    3    3    0    0  0.71371250684E+01  0.76019881759E+01  0.72322057717E+01  0.12689900672E+02  0.51100000000E-03 0. -1.
        -11    1    3    3    0    0 -0.34334635169E+02  0.60050552767E+01  0.11904081284E+02  0.36832526557E+02  0.51100000000E-03 0.  1.
        -12    1    3    3    0    0  0.89886728051E+01 -0.89753826526E+00  0.37466166741E+01  0.97795168713E+01  0.00000000000E+00 0.  1.
</event>
<event>
 7    1  0.7457761E-012  0.5930195E+02  0.7816164E-02  0.1266605E+00
        -11   -1    0    0    0    0  0.00000000000E+00  0.00000000000E+00  0.45593999997E+02  0.45594000000E+02  0.51100000000E-03 0. -1.
         11   -1    0    0    0    0 -0.00000000000E+00 -0.00000000000E+00 -0.45593999997E+02  0.45594000000E+02  0.51100000000E-03 0.  1.
    9900012    2    1    2    0    0 -0.59803345229E+01 -0.15357094137E+01 -0.31282540307E+02  0.59301950817E+02  0.50000012382E+02 0.  0.
         12    1    1    2    0    0  0.59803345229E+01  0.15357094137E+01  0.31282540307E+02  0.31886049183E+02  0.00000000000E+00 0. -1.
         11    1    3    3    0    0 -0.94953048640E+01  0.18300224710E+02 -0.20935892899E+02  0.29383169513E+02  0.51100000000E-03 0. -1.
        -11    1    3    3    0    0  0.70004612328E+01 -0.13982209335E+02 -0.15000218028E+02  0.21668298884E+02  0.51100000000E-03 0.  1.
        -12    1    3    3    0    0 -0.34854908917E+01 -0.58537247885E+01  0.46535706194E+01  0.82504824201E+01  0.00000000000E+00 0.  1.
</event>
<event>
 7    1  0.7457761E-012  0.5930194E+02  0.7816164E-02  0.1266605E+00
        -11   -1    0    0    0    0  0.00000000000E+00  0.00000000000E+00  0.45593999997E+02  0.45594000000E+02  0.51100000000E-03 0.  1.
         11   -1    0    0    0    0 -0.00000000000E+00 -0.00000000000E+00 -0.45593999997E+02  0.45594000000E+02  0.51100000000E-03 0. -1.
    9900012    2    1    2    0    0  0.29335781372E+02 -0.12348032014E+02 -0.19128043809E+01  0.59301940602E+02  0.49999993753E+02 0.  0.
         12    1    1    2    0    0 -0.29335781372E+02  0.12348032014E+02  0.19128043809E+01  0.31886059398E+02  0.00000000000E+00 0. -1.
         11    1    3    3    0    0  0.18831722706E+02 -0.28720937990E+02 -0.33935444093E+00  0.34345905444E+02  0.51100000000E-03 0. -1.
        -11    1    3    3    0    0  0.35320447134E+01  0.96587370203E+00  0.55145751378E+01  0.66195763518E+01  0.51100000000E-03 0.  1.
         12    1    3    3    0    0  0.69720139530E+01  0.15407032274E+02 -0.70880250778E+01  0.18336458806E+02  0.00000000000E+00 0. -1.
</event>
<event>
 7    1  0.7457761E-012  0.5930192E+02  0.7816164E-02  0.1266605E+00
        -11   -1    0    0    0    0  0.00000000000E+00  0.00000000000E+00  0.45593999997E+02  0.45594000000E+02  0.51100000000E-03 0. -1.
         11   -1    0    0    0    0 -0.00000000000E+00 -0.00000000000E+00 -0.45593999997E+02  0.45594000000E+02  0.51100000000E-03 0.  1.
    9900012    2    1    2    0    0 -0.28405517510E+02 -0.13567406609E+02 -0.50768157743E+01  0.59301921447E+02  0.49999958818E+02 0.  0.
         12    1    1    2    0    0  0.28405517510E+02  0.13567406609E+02  0.50768157743E+01  0.31886078553E+02  0.00000000000E+00 0. -1.
         11    1    3    3    0    0 -0.32003025368E+02 -0.40234160105E+01  0.87939413599E+01  0.33432243628E+02  0.51100000000E-03 0.  1.
        -11    1    3    3    0    0  0.46650229962E+01 -0.12857062359E+02 -0.24048168713E+01  0.13887031234E+02  0.51100000000E-03 0. -1.
        -12    1    3    3    0    0 -0.10675151379E+01  0.33130717604E+01 -0.11465940263E+02  0.11982646585E+02  0.00000000000E+00 0.  1.
</event>
<event>
 7    1  0.7457761E-012  0.5930192E+02  0.7816164E-02  0.1266605E+00
        -11   -1    0    0    0    0  0.00000000000E+00  0.00000000000E+00  0.45593999997E+02  0.45594000000E+02  0.51100000000E-03 0.  1.
         11   -1    0    0    0    0 -0.00000000000E+00 -0.00000000000E+00 -0.45593999997E+02  0.45594000000E+02  0.51100000000E-03 0. -1.
    9900012    2    1    2    0    0 -0.17807743539E+02  0.26442268485E+02  0.64256104646E+00  0.59301918753E+02  0.49999953906E+02 0.  0.
         12    1    1    2    0    0  0.17807743539E+02 -0.26442268485E+02 -0.64256104646E+00  0.31886081247E+02  0.00000000000E+00 0. -1.
         11    1    3    3    0    0  0.11691815922E+01  0.24136195997E+02 -0.14212008036E+02  0.28033981442E+02  0.51100000000E-03 0. -1.
        -11    1    3    3    0    0 -0.19199305198E+01 -0.72349097954E+01  0.68554566911E+01  0.10150238404E+02  0.51100000000E-03 0.  1.
         12    1    3    3    0    0 -0.17056994611E+02  0.95409822833E+01  0.79991123918E+01  0.21117698908E+02  0.00000000000E+00 0. -1.
</event>
<event>
 7    1  0.7457761E-012  0.5930188E+02  0.7816164E-02  0.1266605E+00
        -11   -1    0    0    0    0  0.00000000000E+00  0.00000000000E+00  0.45593999997E+02  0.45594000000E+02  0.51100000000E-03 0.  1.
         11   -1    0    0    0    0 -0.00000000000E+00 -0.00000000000E+00 -0.45593999997E+02  0.45594000000E+02  0.51100000000E-03 0. -1.
    9900012    2    1    2    0    0  0.71700663167E+01  0.16130228096E+02  0.26554292861E+02  0.59301881096E+02  0.49999885227E+02 0.  0.
         12    1    1    2    0    0 -0.71700663167E+01 -0.16130228096E+02 -0.26554292861E+02  0.31886118904E+02  0.00000000000E+00 0. -1.
         11    1    3    3    0    0 -0.57881412146E+00 -0.16162185026E+01 -0.41565933583E+00  0.17663411279E+01  0.51100000000E-03 0. -1.
        -11    1    3    3    0    0  0.21788581504E+02  0.18694563162E+02  0.31626176147E+02  0.42713510670E+02  0.51100000000E-03 0.  1.
        -12    1    3    3    0    0 -0.14039701066E+02 -0.94811656369E+00 -0.46562239497E+01  0.14822029298E+02  0.00000000000E+00 0.  1.
</event>
<event>
 7    1  0.7457761E-012  0.5930194E+02  0.7816164E-02  0.1266605E+00
        -11   -1    0    0    0    0  0.00000000000E+00  0.00000000000E+00  0.45593999997E+02  0.45594000000E+02  0.51100000000E-03 0.  1.
         11   -1    0    0    0    0 -0.00000000000E+00 -0.00000000000E+00 -0.45593999997E+02  0.45594000000E+02  0.51100000000E-03 0. -1.
    9900012    2    1    2    0    0 -0.87106379083E+01 -0.25792640316E+02  0.16600757951E+02  0.59301942361E+02  0.49999996960E+02 0.  0.
         12    1    1    2    0    0  0.87106379083E+01  0.25792640316E+02 -0.16600757951E+02  0.31886057639E+02  0.00000000000E+00 0. -1.
         11    1    3    3    0    0  0.11985832776E+00 -0.65970376178E+01  0.29925318005E+02  0.30644084736E+02  0.51100000000E-03 0.  1.
        -11    1    3    3    0    0 -0.91710038797E+01 -0.15735488335E+02 -0.39184547763E+01  0.18629739488E+02  0.51100000000E-03 0. -1.
        -12    1    3    3    0    0  0.34050764363E+00 -0.34601143629E+01 -0.94061052780E+01  0.10028118137E+02  0.00000000000E+00 0.  1.
</event>
<event>
 7    1  0.7457761E-012  0.5930195E+02  0.7816164E-02  0.1266605E+00
        -11   -1    0    0    0    0  0.00000000000E+00  0.00000000000E+00  0.45593999997E+02  0.45594000000E+02  0.51100000000E-03 0. -1.
         11   -1    0    0    0    0 -0.00000000000E+00 -0.00000000000E+00 -0.45593999997E+02  0.45594000000E+02  0.51100000000E-03 0.  1.
    9900012    2    1    2    0    0 -0.17060336455E+02  0.45890942989E+01 -0.26544397621E+02  0.59301954282E+02  0.50000018702E+02 0.  0.
         12    1    1    2    0    0  0.17060336455E+02 -0.45890942989E+01  0.26544397621E+02  0.31886045718E+02  0.00000000000E+00 0. -1.
         11    1    3    3    0    0 -0.22510737493E+02 -0.10406998458E+02 -0.34797495692E+01  0.25042914701E+02  0.51100000000E-03 0. -1.
        -11    1    3    3    0    0  0.11033604077E+02  0.14670816275E+02 -0.21847047371E+02  0.28535359612E+02  0.51100000000E-03 0.  1.
        -12    1    3    3    0    0 -0.55832030396E+01  0.32527648260E+00 -0.12176006809E+01  0.57236799692E+01  0.00000000000E+00 0.  1.
</event>
<event>
 7    1  0.7457761E-012  0.5930195E+02  0.7816164E-02  0.1266605E+00
        -11   -1    0    0    0    0  0.00000000000E+00  0.00000000000E+00  0.45593999997E+02  0.45594000000E+02  0.51100000000E-03 0.  1.
         11   -1    0    0    0    0 -0.00000000000E+00 -0.00000000000E+00 -0.45593999997E+02  0.45594000000E+02  0.51100000000E-03 0. -1.
    9900012    2    1    2    0    0  0.46608990588E+01  0.98826315454E+00  0.31528073815E+02  0.59301951600E+02  0.50000013810E+02 0.  0.
         12    1    1    2    0    0 -0.46608990588E+01 -0.98826315454E+00 -0.31528073815E+02  0.31886048400E+02  0.00000000000E+00 0. -1.
         11    1    3    3    0    0 -0.35669298291E+01 -0.12216186386E+02  0.15634762683E+02  0.20159464344E+02  0.51100000000E-03 0. -1.
        -11    1    3    3    0    0  0.45911198993E+01  0.18806443874E+01 -0.97141673644E+01  0.10907806979E+02  0.51100000000E-03 0.  1.
        -12    1    3    3    0    0  0.36367089886E+01  0.11323805153E+02  0.25607478497E+02  0.28234680277E+02  0.00000000000E+00 0.  1.
</event>
<event>
 7    1  0.7457761E-012  0.5930201E+02  0.7816164E-02  0.1266605E+00
        -11   -1    0    0    0    0  0.00000000000E+00  0.00000000000E+00  0.45593999997E+02  0.45594000000E+02  0.51100000000E-03 0.  1.
         11   -1    0    0    0    0 -0.00000000000E+00 -0.00000000000E+00 -0.45593999997E+02  0.45594000000E+02  0.51100000000E-03 0. -1.
    9900012    2    1    2    0    0  0.29446057731E+01  0.27621989428E+02  0.15654759685E+02  0.59302007717E+02  0.50000116153E+02 0.  0.
         12    1    1    2    0    0 -0.29446057731E+01 -0.27621989428E+02 -0.15654759685E+02  0.31885992283E+02  0.00000000000E+00 0. -1.
         11    1    3    3    0    0 -0.19953182448E+02  0.11256846031E+02  0.10182995062E+02  0.25070689282E+02  0.51100000000E-03 0.  1.
        -11    1    3    3    0    0  0.13519644757E+02  0.73501870660E+01 -0.63561736974E+01  0.16649534186E+02  0.51100000000E-03 0. -1.
         12    1    3    3    0    0  0.93781434639E+01  0.90149563309E+01  0.11827938320E+02  0.17581784249E+02  0.00000000000E+00 0. -1.
</event>
<event>
 7    1  0.7457761E-012  0.5930195E+02  0.7816164E-02  0.1266605E+00
        -11   -1    0    0    0    0  0.00000000000E+00  0.00000000000E+00  0.45593999997E+02  0.45594000000E+02  0.51100000000E-03 0.  1.
         11   -1    0    0    0    0 -0.00000000000E+00 -0.00000000000E+00 -0.45593999997E+02  0.45594000000E+02  0.51100000000E-03 0. -1.
    9900012    2    1    2    0    0 -0.15395922027E+01 -0.65965048190E+01  0.31158242012E+02  0.59301948735E+02  0.50000008585E+02 0.  0.
         12    1    1    2    0    0  0.15395922027E+01  0.65965048190E+01 -0.31158242012E+02  0.31886051265E+02  0.00000000000E+00 0. -1.
         11    1    3    3    0    0  0.13171865583E+02 -0.27746285524E+01 -0.67669126078E+01  0.15066111411E+02  0.51100000000E-03 0. -1.
        -11    1    3    3    0    0 -0.27814453321E+01  0.58133681905E+01  0.59395427277E+01  0.87641232265E+01  0.51100000000E-03 0.  1.
         12    1    3    3    0    0 -0.11930012454E+02 -0.96352444572E+01  0.31985611892E+02  0.35471714098E+02  0.00000000000E+00 0. -1.
</event>
<event>
 7    1  0.7457761E-012  0.5930193E+02  0.7816164E-02  0.1266605E+00
        -11   -1    0    0    0    0  0.00000000000E+00  0.00000000000E+00  0.45593999997E+02  0.45594000000E+02  0.51100000000E-03 0.  1.
         11   -1    0    0    0    0 -0.00000000000E+00 -0.00000000000E+00 -0.45593999997E+02  0.45594000000E+02  0.51100000000E-03 0. -1.
    9900012    2    1    2    0    0 -0.16594795873E+02  0.11317047488E+02  0.24764053835E+02  0.59301934450E+02  0.49999982533E+02 0.  0.
         12    1    1    2    0    0  0.16594795873E+02 -0.11317047488E+02 -0.24764053835E+02  0.31886065550E+02  0.00000000000E+00 0. -1.
         11    1    3    3    0    0  0.12575662188E+02  0.72230607952E+01  0.89923863425E+01  0.17064082135E+02  0.51100000000E-03 0. -1.
        -11    1    3    3    0    0 -0.13611178740E+02  0.71521969508E+01  0.20560105589E+02  0.25673645047E+02  0.51100000000E-03 0.  1.
         12    1    3    3    0    0 -0.15559279322E+02 -0.30582102583E+01 -0.47884380967E+01  0.16564207268E+02  0.00000000000E+00 0. -1.
</event>
<event>
 7    1  0.7457761E-012  0.5930193E+02  0.7816164E-02  0.1266605E+00
        -11   -1    0    0    0    0  0.00000000000E+00  0.00000000000E+00  0.45593999997E+02  0.45594000000E+02  0.51100000000E-03 0.  1.
         11   -1    0    0    0    0 -0.00000000000E+00 -0.00000000000E+00 -0.45593999997E+02  0.45594000000E+02  0.51100000000E-03 0. -1.
    9900012    2    1    2    0    0 -0.58883740755E+01 -0.69330644557E+01  0.30561109649E+02  0.59301925376E+02  0.49999965983E+02 0.  0.
         12    1    1    2    0    0  0.58883740755E+01  0.69330644557E+01 -0.30561109649E+02  0.31886074624E+02  0.00000000000E+00 0. -1.
         11    1    3    3    0    0 -0.88098416454E+01  0.11177080029E+02  0.31282826653E+02  0.34367945407E+02  0.51100000000E-03 0.  1.
        -11    1    3    3    0    0 -0.30205200615E+01 -0.99125874526E+01 -0.74631536873E+01  0.12770340429E+02  0.51100000000E-03 0. -1.
        -12    1    3    3    0    0  0.59419876314E+01 -0.81975570326E+01  0.67414366829E+01  0.12163639540E+02  0.00000000000E+00 0.  1.
</event>
<event>
 7    1  0.7457761E-012  0.5930194E+02  0.7816164E-02  0.1266605E+00
        -11   -1    0    0    0    0  0.00000000000E+00  0.00000000000E+00  0.45593999997E+02  0.45594000000E+02  0.51100000000E-03 0.  1.
         11   -1    0    0    0    0 -0.00000000000E+00 -0.00000000000E+00 -0.45593999997E+02  0.45594000000E+02  0.51100000000E-03 0. -1.
    9900012    2    1    2    0    0  0.31779996430E+02  0.13735600026E+01 -0.22059083807E+01  0.59301939222E+02  0.49999991235E+02 0.  0.
         12    1    1    2    0    0 -0.31779996430E+02 -0.13735600026E+01  0.22059083807E+01  0.31886060778E+02  0.00000000000E+00 0. -1.
         11    1    3    3    0    0  0.19184558481E+02 -0.17835560088E+02  0.10935184918E+02  0.28385432130E+02  0.51100000000E-03 0.  1.
        -11    1    3    3    0    0  0.14510258437E+02  0.20626407358E+02 -0.13332897863E+02  0.28526521801E+02  0.51100000000E-03 0. -1.
        -12    1    3    3    0    0 -0.19148204877E+01 -0.14172872673E+01  0.19180456428E+00  0.23899852905E+01  0.00000000000E+00 0.  1.
</event>
<event>
 7    1  0.7457761E-012  0.5930191E+02  0.7816164E-02  0.1266605E+00
        -11   -1    0    0    0    0  0.00000000000E+00  0.00000000000E+00  0.45593999997E+02  0.45594000000E+02  0.51100000000E-03 0. -1.
         11   -1    0    0    0    0 -0.00000000000E+00 -0.00000000000E+00 -0.45593999997E+02  0.45594000000E+02  0.51100000000E-03 0.  1.
    9900012    2    1    2    0    0 -0.24614714833E+02  0.80382628304E+01 -0.18607113554E+02  0.59301913215E+02  0.49999943806E+02 0.  0.
         12    1    1    2    0    0  0.24614714833E+02 -0.80382628304E+01  0.18607113554E+02  0.31886086785E+02  0.00000000000E+00 0. -1.
         11    1    3    3    0    0  0.11348091679E+01 -0.80620969322E+01 -0.26389517258E+02  0.27616875641E+02  0.51100000000E-03 0. -1.
        -11    1    3    3    0    0 -0.15694050427E+02  0.99984345028E+01  0.24439598816E+01  0.18768187219E+02  0.51100000000E-03 0.  1.
         12    1    3    3    0    0 -0.10055473574E+02  0.61019252597E+01  0.53384438227E+01  0.12916850356E+02  0.00000000000E+00 0. -1.
</event>
<event>
 7    1  0.7457761E-012  0.5930194E+02  0.7816164E-02  0.1266605E+00
        -11   -1    0    0    0    0  0.00000000000E+00  0.00000000000E+00  0.45593999997E+02  0.45594000000E+02  0.51100000000E-03 0.  1.
         11   -1    0    0    0    0 -0.00000000000E+00 -0.00000000000E+00 -0.45593999997E+02  0.45594000000E+02  0.51100000000E-03 0. -1.
    9900012    2    1    2    0    0  0.17927914760E+02  0.26362790466E+02  0.56023965922E+00  0.59301941648E+02  0.49999995659E+02 0.  0.
         12    1    1    2    0    0 -0.17927914760E+02 -0.26362790466E+02 -0.56023965922E+00  0.31886058352E+02  0.00000000000E+00 0. -1.
         11    1    3    3    0    0 -0.13451156561E+02  0.53891788677E+01 -0.71717478493E+01  0.16168204265E+02  0.51100000000E-03 0. -1.
        -11    1    3    3    0    0  0.11383566300E+02  0.13592046189E+02  0.11983472364E+02  0.21399367081E+02  0.51100000000E-03 0.  1.
        -12    1    3    3    0    0  0.19995505021E+02  0.73815654095E+01 -0.42514848556E+01  0.21734370301E+02  0.00000000000E+00 0.  1.
</event>
<event>
 7    1  0.7457761E-012  0.5930193E+02  0.7816164E-02  0.1266605E+00
        -11   -1    0    0    0    0  0.00000000000E+00  0.00000000000E+00  0.45593999997E+02  0.45594000000E+02  0.51100000000E-03 0.  1.
         11   -1    0    0    0    0 -0.00000000000E+00 -0.00000000000E+00 -0.45593999997E+02  0.45594000000E+02  0.51100000000E-03 0. -1.
    9900012    2    1    2    0    0 -0.57750613429E+01 -0.31138834006E+02  0.37071480163E+01  0.59301933087E+02  0.49999980047E+02 0.  0.
         12    1    1    2    0    0  0.57750613429E+01  0.31138834006E+02 -0.37071480163E+01  0.31886066913E+02  0.00000000000E+00 0. -1.
         11    1    3    3    0    0 -0.25880133628E+01  0.11207454744E+01  0.12715498142E+02  0.13024506779E+02  0.51100000000E-03 0. -1.
        -11    1    3    3    0    0  0.12322735632E+02 -0.14666277250E+02 -0.12044714430E+02  0.22627961636E+02  0.51100000000E-03 0.  1.
        -12    1    3    3    0    0 -0.15509783613E+02 -0.17593302230E+02  0.30363643045E+01  0.23649464672E+02  0.00000000000E+00 0.  1.
</event>
<event>
 7    1  0.7457761E-012  0.5930201E+02  0.7816164E-02  0.1266605E+00
        -11   -1    0    0    0    0  0.00000000000E+00  0.00000000000E+00  0.45593999997E+02  0.45594000000E+02  0.51100000000E-03 0.  1.
         11   -1    0    0    0    0 -0.00000000000E+00 -0.00000000000E+00 -0.45593999997E+02  0.45594000000E+02  0.51100000000E-03 0. -1.
    9900012    2    1    2    0    0 -0.26221816065E+02  0.18124115149E+02  0.80573866135E+00  0.59302009307E+02  0.50000119054E+02 0.  0.
         12    1    1    2    0    0  0.26221816065E+02 -0.18124115149E+02 -0.80573866135E+00  0.31885990693E+02  0.00000000000E+00 0. -1.
         11    1    3    3    0    0  0.38160551697E+01 -0.48409641198E+01  0.96162471425E+00  0.62387445067E+01  0.51100000000E-03 0. -1.
        -11    1    3    3    0    0 -0.23219256022E+02  0.73248849436E+01 -0.16519671783E+02  0.29422565247E+02  0.51100000000E-03 0.  1.
        -12    1    3    3    0    0 -0.68186152130E+01  0.15640194325E+02  0.16363785730E+02  0.23640699553E+02  0.00000000000E+00 0.  1.
</event>
<event>
 7    1  0.7457761E-012  0.5930196E+02  0.7816164E-02  0.1266605E+00
        -11   -1    0    0    0    0  0.00000000000E+00  0.00000000000E+00  0.45593999997E+02  0.45594000000E+02  0.51100000000E-03 0. -1.
         11   -1    0    0    0    0 -0.00000000000E+00 -0.00000000000E+00 -0.45593999997E+02  0.45594000000E+02  0.51100000000E-03 0.  1.
    9900012    2    1    2    0    0  0.19017286867E+02  0.20160489494E+02 -0.15767601333E+02  0.59301956215E+02  0.50000022228E+02 0.  0.
         12    1    1    2    0    0 -0.19017286867E+02 -0.20160489494E+02  0.15767601333E+02  0.31886043785E+02  0.00000000000E+00 0. -1.
         11    1    3    3    0    0  0.95670577596E+01  0.40813858308E+01  0.14085524490E+02  0.17509663186E+02  0.51100000000E-03 0. -1.
        -11    1    3    3    0    0 -0.74544957188E+01  0.39788232369E+01 -0.81873517574E+01  0.11765766861E+02  0.51100000000E-03 0.  1.
        -12    1    3    3    0    0  0.16904724826E+02  0.12100280427E+02 -0.21665774066E+02  0.30026526168E+02  0.00000000000E+00 0.  1.
</event>
<event>
 7    1  0.7457761E-012  0.5930196E+02  0.7816164E-02  0.1266605E+00
        -11   -1    0    0    0    0  0.00000000000E+00  0.00000000000E+00  0.45593999997E+02  0.45594000000E+02  0.51100000000E-03 0. -1.
         11   -1    0    0    0    0 -0.00000000000E+00 -0.00000000000E+00 -0.45593999997E+02  0.45594000000E+02  0.51100000000E-03 0.  1.
    9900012    2    1    2    0    0 -0.31134733746E+02  0.88135057997E+00  0.68242982362E+01  0.59301961195E+02  0.50000031309E+02 0.  0.
         12    1    1    2    0    0  0.31134733746E+02 -0.88135057997E+00 -0.68242982362E+01  0.31886038805E+02  0.00000000000E+00 0. -1.
         11    1    3    3    0    0 -0.28734509127E+02  0.13973110944E+02  0.10966699074E+02  0.33781479143E+02  0.51100000000E-03 0. -1.
        -11    1    3    3    0    0 -0.53817513595E+01 -0.21224372752E+01 -0.10868516219E+02  0.12312295998E+02  0.51100000000E-03 0.  1.
         12    1    3    3    0    0  0.29815267409E+01 -0.10969323089E+02  0.67261153808E+01  0.13208186054E+02  0.00000000000E+00 0. -1.
</event>
<event>
 7    1  0.7457761E-012  0.5930197E+02  0.7816164E-02  0.1266605E+00
        -11   -1    0    0    0    0  0.00000000000E+00  0.00000000000E+00  0.45593999997E+02  0.45594000000E+02  0.51100000000E-03 0.  1.
         11   -1    0    0    0    0 -0.00000000000E+00 -0.00000000000E+00 -0.45593999997E+02  0.45594000000E+02  0.51100000000E-03 0. -1.
    9900012    2    1    2    0    0  0.29452233392E+02  0.11931210328E+02 -0.26326991852E+01  0.59301969569E+02  0.50000046581E+02 0.  0.
         12    1    1    2    0    0 -0.29452233392E+02 -0.11931210328E+02  0.26326991852E+01  0.31886030431E+02  0.00000000000E+00 0. -1.
         11    1    3    3    0    0  0.35133125121E+02  0.38790082773E+01  0.12245377978E+02  0.37407652533E+02  0.51100000000E-03 0. -1.
        -11    1    3    3    0    0 -0.57004451078E+01 -0.14776225168E+01 -0.28319563022E+01  0.65344027644E+01  0.51100000000E-03 0.  1.
         12    1    3    3    0    0  0.19553378933E-01  0.95298245673E+01 -0.12046120861E+02  0.15359914271E+02  0.00000000000E+00 0. -1.
</event>
<event>
 7    1  0.7457761E-012  0.5930194E+02  0.7816164E-02  0.1266605E+00
        -11   -1    0    0    0    0  0.00000000000E+00  0.00000000000E+00  0.45593999997E+02  0.45594000000E+02  0.51100000000E-03 0.  1.
         11   -1    0    0    0    0 -0.00000000000E+00 -0.00000000000E+00 -0.45593999997E+02  0.45594000000E+02  0.51100000000E-03 0. -1.
    9900012    2    1    2    0    0  0.29903846823E+02 -0.10100754694E+02 -0.45227711880E+01  0.59301940987E+02  0.49999994454E+02 0.  0.
         12    1    1    2    0    0 -0.29903846823E+02  0.10100754694E+02  0.45227711880E+01  0.31886059013E+02  0.00000000000E+00 0. -1.
         11    1    3    3    0    0 -0.83290698514E+01 -0.14115390812E+02 -0.17404809064E+01  0.16481715215E+02  0.51100000000E-03 0. -1.
        -11    1    3    3    0    0  0.13401102064E+02  0.58536529206E+01  0.68163690469E+01  0.16134363213E+02  0.51100000000E-03 0.  1.
         12    1    3    3    0    0  0.24831814610E+02 -0.18390168024E+01 -0.95986593284E+01  0.26685862559E+02  0.00000000000E+00 0. -1.
</event>
<event>
 7    1  0.7457761E-012  0.5930196E+02  0.7816164E-02  0.1266605E+00
        -11   -1    0    0    0    0  0.00000000000E+00  0.00000000000E+00  0.45593999997E+02  0.45594000000E+02  0.51100000000E-03 0.  1.
         11   -1    0    0    0    0 -0.00000000000E+00 -0.00000000000E+00 -0.45593999997E+02  0.45594000000E+02  0.51100000000E-03 0. -1.
    9900012    2    1    2    0    0 -0.28135764094E+02 -0.14952374176E+02  0.12349684999E+01  0.59301955061E+02  0.50000020122E+02 0.  0.
         12    1    1    2    0    0  0.28135764094E+02  0.14952374176E+02 -0.12349684999E+01  0.31886044939E+02  0.00000000000E+00 0. -1.
         11    1    3    3    0    0 -0.13469054947E+02 -0.24511508326E+02 -0.65692013845E+01  0.28729495100E+02  0.51100000000E-03 0. -1.
        -11    1    3    3    0    0 -0.20464036179E+01  0.15447584870E+02  0.50130790917E+01  0.16369074755E+02  0.51100000000E-03 0.  1.
        -12    1    3    3    0    0 -0.12620305529E+02 -0.58884507194E+01  0.27910907927E+01  0.14203385207E+02  0.00000000000E+00 0.  1.
</event>
<event>
 7    1  0.7457761E-012  0.5930198E+02  0.7816164E-02  0.1266605E+00
        -11   -1    0    0    0    0  0.00000000000E+00  0.00000000000E+00  0.45593999997E+02  0.45594000000E+02  0.51100000000E-03 0. -1.
         11   -1    0    0    0    0 -0.00000000000E+00 -0.00000000000E+00 -0.45593999997E+02  0.45594000000E+02  0.51100000000E-03 0.  1.
    9900012    2    1    2    0    0  0.22352835508E+02  0.47193110106E+01 -0.22244041447E+02  0.59301975921E+02  0.50000058166E+02 0.  0.
         12    1    1    2    0    0 -0.22352835508E+02 -0.47193110106E+01  0.22244041447E+02  0.31886024079E+02  0.00000000000E+00 0. -1.
         11    1    3    3    0    0  0.18372495809E+02 -0.12058106408E+02 -0.12985621702E+02  0.25525926107E+02  0.51100000000E-03 0.  1.
        -11    1    3    3    0    0  0.68410269824E+01  0.16552455703E+02 -0.17505215750E+02  0.25044281158E+02  0.51100000000E-03 0. -1.
        -12    1    3    3    0    0 -0.28606872830E+01  0.22496171511E+00  0.82467960058E+01  0.87317686562E+01  0.00000000000E+00 0.  1.
</event>
<event>
 7    1  0.7457761E-012  0.5930194E+02  0.7816164E-02  0.1266605E+00
        -11   -1    0    0    0    0  0.00000000000E+00  0.00000000000E+00  0.45593999997E+02  0.45594000000E+02  0.51100000000E-03 0. -1.
         11   -1    0    0    0    0 -0.00000000000E+00 -0.00000000000E+00 -0.45593999997E+02  0.45594000000E+02  0.51100000000E-03 0.  1.
    9900012    2    1    2    0    0  0.16934504573E+02 -0.60857312947E+01 -0.26323130139E+02  0.59301941121E+02  0.49999994698E+02 0.  0.
         12    1    1    2    0    0 -0.16934504573E+02  0.60857312947E+01  0.26323130139E+02  0.31886058879E+02  0.00000000000E+00 0. -1.
         11    1    3    3    0    0  0.12062015241E+02 -0.22905668647E+02 -0.10837605092E+02  0.28064489167E+02  0.51100000000E-03 0. -1.
        -11    1    3    3    0    0 -0.69100489457E+01  0.76794161039E+01 -0.88651325232E+00  0.10368611968E+02  0.51100000000E-03 0.  1.
        -12    1    3    3    0    0  0.11782538278E+02  0.91405212479E+01 -0.14599011795E+02  0.20868839986E+02  0.00000000000E+00 0.  1.
</event>
<event>
 7    1  0.7457761E-012  0.5930195E+02  0.7816164E-02  0.1266605E+00
        -11   -1    0    0    0    0  0.00000000000E+00  0.00000000000E+00  0.45593999997E+02  0.45594000000E+02  0.51100000000E-03 0.  1.
         11   -1    0    0    0    0 -0.00000000000E+00 -0.00000000000E+00 -0.45593999997E+02  0.45594000000E+02  0.51100000000E-03 0. -1.
    9900012    2    1    2    0    0 -0.51464263555E+01 -0.27543038639E+02  0.15218916443E+02  0.59301951336E+02  0.50000013328E+02 0.  0.
         12    1    1    2    0    0  0.51464263555E+01  0.27543038639E+02 -0.15218916443E+02  0.31886048664E+02  0.00000000000E+00 0. -1.
         11    1    3    3    0    0 -0.59822810315E+01 -0.86176613428E+01 -0.65492503140E+01  0.12367071331E+02  0.51100000000E-03 0. -1.
        -11    1    3    3    0    0 -0.33735692314E+01 -0.24013003334E+01  0.28354494773E+02  0.28655271535E+02  0.51100000000E-03 0.  1.
        -12    1    3    3    0    0  0.42094239074E+01 -0.16524076963E+02 -0.65863280156E+01  0.18279608470E+02  0.00000000000E+00 0.  1.
</event>
<event>
 7    1  0.7457761E-012  0.5930197E+02  0.7816164E-02  0.1266605E+00
        -11   -1    0    0    0    0  0.00000000000E+00  0.00000000000E+00  0.45593999997E+02  0.45594000000E+02  0.51100000000E-03 0.  1.
         11   -1    0    0    0    0 -0.00000000000E+00 -0.00000000000E+00 -0.45593999997E+02  0.45594000000E+02  0.51100000000E-03 0. -1.
    9900012    2    1    2    0    0  0.27663166885E+02 -0.43919468674E-01  0.15857675913E+02  0.59301974591E+02  0.50000055740E+02 0.  0.
         12    1    1    2    0    0 -0.27663166885E+02  0.43919468674E-01 -0.15857675913E+02  0.31886025409E+02  0.00000000000E+00 0. -1.
         11    1    3    3    0    0  0.21936649864E+02 -0.11414368862E+02 -0.65342879864E+01  0.25577359979E+02  0.51100000000E-03 0. -1.
        -11    1    3    3    0    0  0.24674201668E+01 -0.22053569881E+01  0.19094254538E+02  0.19378914272E+02  0.51100000000E-03 0.  1.
         12    1    3    3    0    0  0.32590968546E+01  0.13575806381E+02  0.32977093609E+01  0.14345700340E+02  0.00000000000E+00 0. -1.
</event>
<event>
 7    1  0.7457761E-012  0.5930196E+02  0.7816164E-02  0.1266605E+00
        -11   -1    0    0    0    0  0.00000000000E+00  0.00000000000E+00  0.45593999997E+02  0.45594000000E+02  0.51100000000E-03 0.  1.
         11   -1    0    0    0    0 -0.00000000000E+00 -0.00000000000E+00 -0.45593999997E+02  0.45594000000E+02  0.51100000000E-03 0. -1.
    9900012    2    1    2    0    0  0.91802503353E+01 -0.28801167762E+02  0.10145708261E+02  0.59301958276E+02  0.50000025986E+02 0.  0.
         12    1    1    2    0    0 -0.91802503353E+01  0.28801167762E+02 -0.10145708261E+02  0.31886041724E+02  0.00000000000E+00 0. -1.
         11    1    3    3    0    0  0.80816769530E+01  0.65194168560E+01  0.59215219566E+01  0.11953272400E+02  0.51100000000E-03 0. -1.
        -11    1    3    3    0    0 -0.59942365567E+00 -0.30973398581E+02  0.15866346527E+02  0.34805914451E+02  0.51100000000E-03 0.  1.
         12    1    3    3    0    0  0.16979970380E+01 -0.43471860375E+01 -0.11642160223E+02  0.12542771426E+02  0.00000000000E+00 0. -1.
</event>
<event>
 7    1  0.7457761E-012  0.5930216E+02  0.7816164E-02  0.1266604E+00
        -11   -1    0    0    0    0  0.00000000000E+00  0.00000000000E+00  0.45593999997E+02  0.45594000000E+02  0.51100000000E-03 0. -1.
         11   -1    0    0    0    0 -0.00000000000E+00 -0.00000000000E+00 -0.45593999997E+02  0.45594000000E+02  0.51100000000E-03 0.  1.
    9900012    2    1    2    0    0  0.17910124360E+02 -0.13298690069E+02 -0.22783301312E+02  0.59302164103E+02  0.50000401364E+02 0.  0.
         12    1    1    2    0    0 -0.17910124360E+02  0.13298690069E+02  0.22783301312E+02  0.31885835897E+02  0.00000000000E+00 0. -1.
         11    1    3    3    0    0  0.18906423805E+02  0.78152763424E+01 -0.62640432687E+01  0.21395551961E+02  0.51100000000E-03 0. -1.
        -11    1    3    3    0    0 -0.97185701551E+01 -0.22065210385E+02 -0.16348987816E+02  0.29130971801E+02  0.51100000000E-03 0.  1.
        -12    1    3    3    0    0  0.87222707108E+01  0.95124397350E+00 -0.17027022718E+00  0.87756403413E+01  0.00000000000E+00 0.  1.
</event>
<event>
 7    1  0.7457761E-012  0.5930195E+02  0.7816164E-02  0.1266605E+00
        -11   -1    0    0    0    0  0.00000000000E+00  0.00000000000E+00  0.45593999997E+02  0.45594000000E+02  0.51100000000E-03 0.  1.
         11   -1    0    0    0    0 -0.00000000000E+00 -0.00000000000E+00 -0.45593999997E+02  0.45594000000E+02  0.51100000000E-03 0. -1.
    9900012    2    1    2    0    0  0.50440453300E+01 -0.16172748204E+02  0.27013331729E+02  0.59301948679E+02  0.50000008483E+02 0.  0.
         12    1    1    2    0    0 -0.50440453300E+01  0.16172748204E+02 -0.27013331729E+02  0.31886051321E+02  0.00000000000E+00 0. -1.
         11    1    3    3    0    0  0.65703222210E+01 -0.29901581850E+01 -0.95466525227E+01  0.11968657181E+02  0.51100000000E-03 0. -1.
        -11    1    3    3    0    0 -0.74739061205E+01 -0.11936056656E+02  0.38467295163E+02  0.40964149187E+02  0.51100000000E-03 0.  1.
        -12    1    3    3    0    0  0.59476292295E+01 -0.12465333629E+01 -0.19073109115E+01  0.63691423119E+01  0.00000000000E+00 0.  1.
</event>
<event>
 7    1  0.7457761E-012  0.5930192E+02  0.7816164E-02  0.1266605E+00
        -11   -1    0    0    0    0  0.00000000000E+00  0.00000000000E+00  0.45593999997E+02  0.45594000000E+02  0.51100000000E-03 0.  1.
         11   -1    0    0    0    0 -0.00000000000E+00 -0.00000000000E+00 -0.45593999997E+02  0.45594000000E+02  0.51100000000E-03 0. -1.
    9900012    2    1    2    0    0  0.65029738188E+01 -0.11144147959E+02  0.29158900376E+02  0.59301918815E+02  0.49999954018E+02 0.  0.
         12    1    1    2    0    0 -0.65029738188E+01  0.11144147959E+02 -0.29158900376E+02  0.31886081185E+02  0.00000000000E+00 0. -1.
         11    1    3    3    0    0  0.82985676083E+01  0.13273820526E+02  0.23305230417E+01  0.15826935067E+02  0.51100000000E-03 0. -1.
        -11    1    3    3    0    0  0.67522791975E+01 -0.24514591769E+02  0.17780307626E+02  0.31027372165E+02  0.51100000000E-03 0.  1.
        -12    1    3    3    0    0 -0.85478729870E+01  0.96623283628E-01  0.90480697082E+01  0.12447611582E+02  0.00000000000E+00 0.  1.
</event>
<event>
 7    1  0.7457761E-012  0.5930193E+02  0.7816164E-02  0.1266605E+00
        -11   -1    0    0    0    0  0.00000000000E+00  0.00000000000E+00  0.45593999997E+02  0.45594000000E+02  0.51100000000E-03 0. -1.
         11   -1    0    0    0    0 -0.00000000000E+00 -0.00000000000E+00 -0.45593999997E+02  0.45594000000E+02  0.51100000000E-03 0.  1.
    9900012    2    1    2    0    0 -0.10445979396E+02  0.12984456728E+02 -0.27184683687E+02  0.59301927347E+02  0.49999969578E+02 0.  0.
         12    1    1    2    0    0  0.10445979396E+02 -0.12984456728E+02  0.27184683687E+02  0.31886072653E+02  0.00000000000E+00 0. -1.
         11    1    3    3    0    0 -0.18283455691E+02 -0.13495756954E+02 -0.49095129174E+01  0.23249161815E+02  0.51100000000E-03 0. -1.
        -11    1    3    3    0    0  0.63044682912E+01  0.20422611819E+02 -0.13499375113E+02  0.25279685969E+02  0.51100000000E-03 0.  1.
         12    1    3    3    0    0  0.15330080037E+01  0.60576018626E+01 -0.87757956565E+01  0.10773079563E+02  0.00000000000E+00 0. -1.
</event>
<event>
 7    1  0.7457761E-012  0.5930198E+02  0.7816164E-02  0.1266605E+00
        -11   -1    0    0    0    0  0.00000000000E+00  0.00000000000E+00  0.45593999997E+02  0.45594000000E+02  0.51100000000E-03 0. -1.
         11   -1    0    0    0    0 -0.00000000000E+00 -0.00000000000E+00 -0.45593999997E+02  0.45594000000E+02  0.51100000000E-03 0.  1.
    9900012    2    1    2    0    0 -0.92142837246E+01  0.13896753837E+02 -0.27178950297E+02  0.59301982202E+02  0.50000069620E+02 0.  0.
         12    1    1    2    0    0  0.92142837246E+01 -0.13896753837E+02  0.27178950297E+02  0.31886017798E+02  0.00000000000E+00 0. -1.
         11    1    3    3    0    0 -0.12060192639E+02  0.16022729108E+02 -0.14836495189E+02  0.24945895140E+02  0.51100000000E-03 0. -1.
        -11    1    3    3    0    0  0.21507655130E+01 -0.82912178700E+01 -0.21586014139E+02  0.23223395375E+02  0.51100000000E-03 0.  1.
        -12    1    3    3    0    0  0.69514340153E+00  0.61652425991E+01  0.92435590307E+01  0.11132691687E+02  0.00000000000E+00 0.  1.
</event>
<event>
 7    1  0.7457761E-012  0.5930196E+02  0.7816164E-02  0.1266605E+00
        -11   -1    0    0    0    0  0.00000000000E+00  0.00000000000E+00  0.45593999997E+02  0.45594000000E+02  0.51100000000E-03 0.  1.
         11   -1    0    0    0    0 -0.00000000000E+00 -0.00000000000E+00 -0.45593999997E+02  0.45594000000E+02  0.51100000000E-03 0. -1.
    9900012    2    1    2    0    0  0.29344632350E+01  0.34261175890E+00  0.31748879880E+02  0.59301955546E+02  0.50000021006E+02 0.  0.
         12    1    1    2    0    0 -0.29344632350E+01 -0.34261175890E+00 -0.31748879880E+02  0.31886044454E+02  0.00000000000E+00 0. -1.
         11    1    3    3    0    0 -0.82204058424E+01  0.50946479703E+01 -0.26961841078E+01  0.10039916292E+02  0.51100000000E-03 0. -1.
        -11    1    3    3    0    0  0.77335987014E+01 -0.16715277289E+02  0.80875186461E+01  0.20115093881E+02  0.51100000000E-03 0.  1.
        -12    1    3    3    0    0  0.34212703760E+01  0.11963241078E+02  0.26357545342E+02  0.29146945372E+02  0.00000000000E+00 0.  1.
</event>
<event>
 7    1  0.7457761E-012  0.5930195E+02  0.7816164E-02  0.1266605E+00
        -11   -1    0    0    0    0  0.00000000000E+00  0.00000000000E+00  0.45593999997E+02  0.45594000000E+02  0.51100000000E-03 0. -1.
         11   -1    0    0    0    0 -0.00000000000E+00 -0.00000000000E+00 -0.45593999997E+02  0.45594000000E+02  0.51100000000E-03 0.  1.
    9900012    2    1    2    0    0  0.13260145087E+02 -0.28354435385E+02 -0.60757678515E+01  0.59301946485E+02  0.50000004482E+02 0.  0.
         12    1    1    2    0    0 -0.13260145087E+02  0.28354435385E+02  0.60757678515E+01  0.31886053515E+02  0.00000000000E+00 0. -1.
         11    1    3    3    0    0  0.24247118496E+02  0.76692412054E+00  0.39549889034E+01  0.24579521262E+02  0.51100000000E-03 0. -1.
        -11    1    3    3    0    0 -0.23744854353E+01 -0.15830225191E+02 -0.10020115911E+02  0.18884833434E+02  0.51100000000E-03 0.  1.
         12    1    3    3    0    0 -0.86124879735E+01 -0.13291134315E+02 -0.10640843952E-01  0.15837591790E+02  0.00000000000E+00 0. -1.
</event>
<event>
 7    1  0.7457761E-012  0.5930197E+02  0.7816164E-02  0.1266605E+00
        -11   -1    0    0    0    0  0.00000000000E+00  0.00000000000E+00  0.45593999997E+02  0.45594000000E+02  0.51100000000E-03 0. -1.
         11   -1    0    0    0    0 -0.00000000000E+00 -0.00000000000E+00 -0.45593999997E+02  0.45594000000E+02  0.51100000000E-03 0.  1.
    9900012    2    1    2    0    0  0.16665991699E+02 -0.60776260885E+01 -0.26495772803E+02  0.59301971796E+02  0.50000050643E+02 0.  0.
         12    1    1    2    0    0 -0.16665991699E+02  0.60776260885E+01  0.26495772803E+02  0.31886028204E+02  0.00000000000E+00 0. -1.
         11    1    3    3    0    0 -0.14014954609E+02 -0.61303589539E+01 -0.35286542882E+01  0.15698778773E+02  0.51100000000E-03 0. -1.
        -11    1    3    3    0    0  0.62124132483E+01 -0.34320366292E+00 -0.17437814729E+02  0.18514568585E+02  0.51100000000E-03 0.  1.
         12    1    3    3    0    0  0.24468533060E+02  0.39593652832E+00 -0.55293037859E+01  0.25088624439E+02  0.00000000000E+00 0. -1.
</event>
<event>
 7    1  0.7457761E-012  0.5930194E+02  0.7816164E-02  0.1266605E+00
        -11   -1    0    0    0    0  0.00000000000E+00  0.00000000000E+00  0.45593999997E+02  0.45594000000E+02  0.51100000000E-03 0.  1.
         11   -1    0    0    0    0 -0.00000000000E+00 -0.00000000000E+00 -0.45593999997E+02  0.45594000000E+02  0.51100000000E-03 0. -1.
    9900012    2    1    2    0    0 -0.57063109458E+01 -0.31368159559E+02  0.44407240808E+00  0.59301943188E+02  0.49999998468E+02 0.  0.
         12    1    1    2    0    0  0.57063109458E+01  0.31368159559E+02 -0.44407240808E+00  0.31886056812E+02  0.00000000000E+00 0. -1.
         11    1    3    3    0    0 -0.28042635708E+01  0.45186025583E+01  0.16765498371E+02  0.17588735007E+02  0.51100000000E-03 0. -1.
        -11    1    3    3    0    0  0.48470348950E+01 -0.95188773335E+01 -0.25927888115E+01  0.10992057453E+02  0.51100000000E-03 0.  1.
         12    1    3    3    0    0 -0.77490822700E+01 -0.26367884784E+02 -0.13728637152E+02  0.30721150728E+02  0.00000000000E+00 0. -1.
</event>
<event>
 7    1  0.7457761E-012  0.5930193E+02  0.7816164E-02  0.1266605E+00
        -11   -1    0    0    0    0  0.00000000000E+00  0.00000000000E+00  0.45593999997E+02  0.45594000000E+02  0.51100000000E-03 0.  1.
         11   -1    0    0    0    0 -0.00000000000E+00 -0.00000000000E+00 -0.45593999997E+02  0.45594000000E+02  0.51100000000E-03 0. -1.
    9900012    2    1    2    0    0  0.18742798664E+02 -0.25744812363E+02  0.16227875264E+01  0.59301932436E+02  0.49999978859E+02 0.  0.
         12    1    1    2    0    0 -0.18742798664E+02  0.25744812363E+02 -0.16227875264E+01  0.31886067564E+02  0.00000000000E+00 0. -1.
         11    1    3    3    0    0  0.25010969566E+02 -0.35820962799E+02  0.20819448313E+01  0.43738135180E+02  0.51100000000E-03 0. -1.
        -11    1    3    3    0    0 -0.73016791712E+01  0.11011250409E+02 -0.21355731845E+01  0.13383677648E+02  0.51100000000E-03 0.  1.
        -12    1    3    3    0    0  0.10335082692E+01 -0.93509997344E+00  0.16764158795E+01  0.21801196077E+01  0.00000000000E+00 0.  1.
</event>
<event>
 7    1  0.7457761E-012  0.5930193E+02  0.7816164E-02  0.1266605E+00
        -11   -1    0    0    0    0  0.00000000000E+00  0.00000000000E+00  0.45593999997E+02  0.45594000000E+02  0.51100000000E-03 0.  1.
         11   -1    0    0    0    0 -0.00000000000E+00 -0.00000000000E+00 -0.45593999997E+02  0.45594000000E+02  0.51100000000E-03 0. -1.
    9900012    2    1    2    0    0 -0.19465095432E+02  0.15932808585E+02  0.19595341814E+02  0.59301925448E+02  0.49999966114E+02 0.  0.
         12    1    1    2    0    0  0.19465095432E+02 -0.15932808585E+02 -0.19595341814E+02  0.31886074552E+02  0.00000000000E+00 0. -1.
         11    1    3    3    0    0 -0.35151586681E+02  0.15761575442E+02  0.70149104521E+01  0.39156995231E+02  0.51100000000E-03 0. -1.
        -11    1    3    3    0    0  0.31747331033E+01 -0.42196211073E+00  0.23538180978E+01  0.39745996275E+01  0.51100000000E-03 0.  1.
         12    1    3    3    0    0  0.12511758146E+02  0.59319525365E+00  0.10226613264E+02  0.16170330589E+02  0.00000000000E+00 0. -1.
</event>
<event>
 7    1  0.7457761E-012  0.5930196E+02  0.7816164E-02  0.1266605E+00
        -11   -1    0    0    0    0  0.00000000000E+00  0.00000000000E+00  0.45593999997E+02  0.45594000000E+02  0.51100000000E-03 0.  1.
         11   -1    0    0    0    0 -0.00000000000E+00 -0.00000000000E+00 -0.45593999997E+02  0.45594000000E+02  0.51100000000E-03 0. -1.
    9900012    2    1    2    0    0  0.10380829212E+02  0.21767696393E+02  0.20859658108E+02  0.59301959829E+02  0.50000028818E+02 0.  0.
         12    1    1    2    0    0 -0.10380829212E+02 -0.21767696393E+02 -0.20859658108E+02  0.31886040171E+02  0.00000000000E+00 0. -1.
         11    1    3    3    0    0 -0.89995183043E+01  0.16773927094E+02 -0.10668954232E+02  0.21821607286E+02  0.51100000000E-03 0. -1.
        -11    1    3    3    0    0  0.26011016051E+01  0.17287431255E+01  0.58684714712E+01  0.66477996377E+01  0.51100000000E-03 0.  1.
         12    1    3    3    0    0  0.16779245912E+02  0.32650261735E+01  0.25660140868E+02  0.30832552905E+02  0.00000000000E+00 0. -1.
</event>
<event>
 7    1  0.7457761E-012  0.5930193E+02  0.7816164E-02  0.1266605E+00
        -11   -1    0    0    0    0  0.00000000000E+00  0.00000000000E+00  0.45593999997E+02  0.45594000000E+02  0.51100000000E-03 0. -1.
         11   -1    0    0    0    0 -0.00000000000E+00 -0.00000000000E+00 -0.45593999997E+02  0.45594000000E+02  0.51100000000E-03 0.  1.
    9900012    2    1    2    0    0  0.30022821817E+02  0.20882199258E+01 -0.10535229703E+02  0.59301928476E+02  0.49999971638E+02 0.  0.
         12    1    1    2    0    0 -0.30022821817E+02 -0.20882199258E+01  0.10535229703E+02  0.31886071524E+02  0.00000000000E+00 0. -1.
         11    1    3    3    0    0  0.68553308073E+01 -0.11363018318E+02  0.24208557383E+01  0.13489784600E+02  0.51100000000E-03 0. -1.
        -11    1    3    3    0    0  0.17542748166E+02  0.21934062705E+02  0.15067137596E+01  0.28126878721E+02  0.51100000000E-03 0.  1.
        -12    1    3    3    0    0  0.56247428433E+01 -0.84828244608E+01 -0.14462799201E+02  0.17685265155E+02  0.00000000000E+00 0.  1.
</event>
<event>
 7    1  0.7457761E-012  0.5930201E+02  0.7816164E-02  0.1266605E+00
        -11   -1    0    0    0    0  0.00000000000E+00  0.00000000000E+00  0.45593999997E+02  0.45594000000E+02  0.51100000000E-03 0.  1.
         11   -1    0    0    0    0 -0.00000000000E+00 -0.00000000000E+00 -0.45593999997E+02  0.45594000000E+02  0.51100000000E-03 0. -1.
    9900012    2    1    2    0    0 -0.50107845382E+01 -0.69084857478E+01  0.30722653993E+02  0.59302006125E+02  0.50000113251E+02 0.  0.
         12    1    1    2    0    0  0.50107845382E+01  0.69084857478E+01 -0.30722653993E+02  0.31885993875E+02  0.00000000000E+00 0. -1.
         11    1    3    3    0    0  0.21071056925E+01  0.17909707796E+02  0.15658349362E+00  0.18033913784E+02  0.51100000000E-03 0. -1.
        -11    1    3    3    0    0 -0.71251586285E+01 -0.18032828694E+02  0.27904080725E+02  0.33979236565E+02  0.51100000000E-03 0.  1.
         12    1    3    3    0    0  0.72683977711E-02 -0.67853648493E+01  0.26619897744E+01  0.72888557763E+01  0.00000000000E+00 0. -1.
</event>
<event>
 7    1  0.7457761E-012  0.5930193E+02  0.7816164E-02  0.1266605E+00
        -11   -1    0    0    0    0  0.00000000000E+00  0.00000000000E+00  0.45593999997E+02  0.45594000000E+02  0.51100000000E-03 0. -1.
         11   -1    0    0    0    0 -0.00000000000E+00 -0.00000000000E+00 -0.45593999997E+02  0.45594000000E+02  0.51100000000E-03 0.  1.
    9900012    2    1    2    0    0 -0.81213865380E+01  0.30728415083E+02 -0.25552112281E+01  0.59301929103E+02  0.49999972781E+02 0.  0.
         12    1    1    2    0    0  0.81213865380E+01 -0.30728415083E+02  0.25552112281E+01  0.31886070897E+02  0.00000000000E+00 0. -1.
         11    1    3    3    0    0  0.77380114858E+01  0.10828231211E+02  0.20188334688E+02  0.24180493598E+02  0.51100000000E-03 0. -1.
        -11    1    3    3    0    0 -0.77516658390E+01  0.37826608701E+01 -0.87724859859E+01  0.12302575225E+02  0.51100000000E-03 0.  1.
         12    1    3    3    0    0 -0.81077321848E+01  0.16117523003E+02 -0.13971059930E+02  0.22818860280E+02  0.00000000000E+00 0. -1.
</event>
<event>
 7    1  0.7457761E-012  0.5930196E+02  0.7816164E-02  0.1266605E+00
        -11   -1    0    0    0    0  0.00000000000E+00  0.00000000000E+00  0.45593999997E+02  0.45594000000E+02  0.51100000000E-03 0.  1.
         11   -1    0    0    0    0 -0.00000000000E+00 -0.00000000000E+00 -0.45593999997E+02  0.45594000000E+02  0.51100000000E-03 0. -1.
    9900012    2    1    2    0    0 -0.18887388488E+02  0.58441242420E+01  0.25016644241E+02  0.59301957267E+02  0.50000024146E+02 0.  0.
         12    1    1    2    0    0  0.18887388488E+02 -0.58441242420E+01 -0.25016644241E+02  0.31886042733E+02  0.00000000000E+00 0. -1.
         11    1    3    3    0    0 -0.15346858332E+01  0.12297029211E+02 -0.10583903622E+02  0.16296969171E+02  0.51100000000E-03 0. -1.
        -11    1    3    3    0    0 -0.29004672670E+01  0.46690772667E+01  0.11832883623E+02  0.13047226831E+02  0.51100000000E-03 0.  1.
         12    1    3    3    0    0 -0.14452235388E+02 -0.11121982236E+02  0.23767664241E+02  0.29957761265E+02  0.00000000000E+00 0. -1.
</event>
<event>
 7    1  0.7457761E-012  0.5930195E+02  0.7816164E-02  0.1266605E+00
        -11   -1    0    0    0    0  0.00000000000E+00  0.00000000000E+00  0.45593999997E+02  0.45594000000E+02  0.51100000000E-03 0.  1.
         11   -1    0    0    0    0 -0.00000000000E+00 -0.00000000000E+00 -0.45593999997E+02  0.45594000000E+02  0.51100000000E-03 0. -1.
    9900012    2    1    2    0    0  0.23851017906E+02 -0.84821976444E+01  0.19388175232E+02  0.59301951784E+02  0.50000014145E+02 0.  0.
         12    1    1    2    0    0 -0.23851017906E+02  0.84821976444E+01 -0.19388175232E+02  0.31886048216E+02  0.00000000000E+00 0. -1.
         11    1    3    3    0    0  0.80603831482E+01 -0.89523293054E+01 -0.12807904457E+02  0.17582843721E+02  0.51100000000E-03 0. -1.
        -11    1    3    3    0    0  0.78137150135E+01  0.57472282123E+01  0.30500247044E+02  0.32005465853E+02  0.51100000000E-03 0.  1.
        -12    1    3    3    0    0  0.79769197441E+01 -0.52770965513E+01  0.16958326451E+01  0.97136422096E+01  0.00000000000E+00 0.  1.
</event>
<event>
 7    1  0.7457761E-012  0.5930195E+02  0.7816164E-02  0.1266605E+00
        -11   -1    0    0    0    0  0.00000000000E+00  0.00000000000E+00  0.45593999997E+02  0.45594000000E+02  0.51100000000E-03 0. -1.
         11   -1    0    0    0    0 -0.00000000000E+00 -0.00000000000E+00 -0.45593999997E+02  0.45594000000E+02  0.51100000000E-03 0.  1.
    9900012    2    1    2    0    0  0.61796390873E+01  0.28454905735E+02 -0.12994254335E+02  0.59301949048E+02  0.50000009155E+02 0.  0.
         12    1    1    2    0    0 -0.61796390873E+01 -0.28454905735E+02  0.12994254335E+02  0.31886050952E+02  0.00000000000E+00 0. -1.
         11    1    3    3    0    0  0.27530334413E+01 -0.72912553016E+01 -0.10572756098E+02  0.13134868433E+02  0.51100000000E-03 0. -1.
        -11    1    3    3    0    0  0.15426027353E+02  0.27292497106E+02 -0.28747481834E+01  0.31481850257E+02  0.51100000000E-03 0.  1.
        -12    1    3    3    0    0 -0.11999421707E+02  0.84536639301E+01  0.45324994635E+00  0.14685230358E+02  0.00000000000E+00 0.  1.
</event>
<event>
 7    1  0.7457761E-012  0.5930193E+02  0.7816164E-02  0.1266605E+00
        -11   -1    0    0    0    0  0.00000000000E+00  0.00000000000E+00  0.45593999997E+02  0.45594000000E+02  0.51100000000E-03 0.  1.
         11   -1    0    0    0    0 -0.00000000000E+00 -0.00000000000E+00 -0.45593999997E+02  0.45594000000E+02  0.51100000000E-03 0. -1.
    9900012    2    1    2    0    0  0.26922383132E+01 -0.61964065292E+01  0.31162118793E+02  0.59301933315E+02  0.49999980462E+02 0.  0.
         12    1    1    2    0    0 -0.26922383132E+01  0.61964065292E+01 -0.31162118793E+02  0.31886066685E+02  0.00000000000E+00 0. -1.
         11    1    3    3    0    0 -0.13609885830E+02 -0.59574849957E+01 -0.49475475313E+01  0.15658826477E+02  0.51100000000E-03 0. -1.
        -11    1    3    3    0    0  0.17146431018E+02  0.31029293777E+01  0.17423020049E+02  0.24641223494E+02  0.51100000000E-03 0.  1.
        -12    1    3    3    0    0 -0.84430687496E+00 -0.33418509113E+01  0.18686646275E+02  0.19001883344E+02  0.00000000000E+00 0.  1.
</event>
<event>
 7    1  0.7457761E-012  0.5930195E+02  0.7816164E-02  0.1266605E+00
        -11   -1    0    0    0    0  0.00000000000E+00  0.00000000000E+00  0.45593999997E+02  0.45594000000E+02  0.51100000000E-03 0.  1.
         11   -1    0    0    0    0 -0.00000000000E+00 -0.00000000000E+00 -0.45593999997E+02  0.45594000000E+02  0.51100000000E-03 0. -1.
    9900012    2    1    2    0    0  0.95919623843E+01  0.25585124245E+02  0.16435197935E+02  0.59301952014E+02  0.50000014565E+02 0.  0.
         12    1    1    2    0    0 -0.95919623843E+01 -0.25585124245E+02 -0.16435197935E+02  0.31886047986E+02  0.00000000000E+00 0. -1.
         11    1    3    3    0    0 -0.98932096458E+01  0.12091014745E+02  0.13689036982E+02  0.20771566345E+02  0.51100000000E-03 0. -1.
        -11    1    3    3    0    0  0.25537306601E+02  0.16703956093E+02 -0.13562844189E+01  0.30545305454E+02  0.51100000000E-03 0.  1.
         12    1    3    3    0    0 -0.60521345707E+01 -0.32098465932E+01  0.41024453720E+01  0.79850802152E+01  0.00000000000E+00 0. -1.
</event>
<event>
 7    1  0.8410221E-012  0.5930207E+02  0.7816164E-02  0.1266604E+00
        -11   -1    0    0    0    0  0.00000000000E+00  0.00000000000E+00  0.45593999997E+02  0.45594000000E+02  0.51100000000E-03 0.  1.
         11   -1    0    0    0    0 -0.00000000000E+00 -0.00000000000E+00 -0.45593999997E+02  0.45594000000E+02  0.51100000000E-03 0. -1.
    9900012    2    1    2    0    0  0.11670982964E+02  0.26293402121E+02  0.13753466770E+02  0.59302067574E+02  0.50000225319E+02 0.  0.
         12    1    1    2    0    0 -0.11670982964E+02 -0.26293402121E+02 -0.13753466770E+02  0.31885932426E+02  0.00000000000E+00 0. -1.
         11    1    3    3    0    0 -0.13471980839E+02 -0.84865301683E+00  0.28165278530E+01  0.13789391179E+02  0.51100000000E-03 0. -1.
        -11    1    3    3    0    0  0.89607225926E+01  0.26483667677E+02  0.76596875344E+01  0.28988791220E+02  0.51100000000E-03 0.  1.
        -12    1    3    3    0    0  0.16182241211E+02  0.65838746069E+00  0.32772513825E+01  0.16523885175E+02  0.00000000000E+00 0.  1.
</event>
<event>
 7    1  0.7457761E-012  0.5930195E+02  0.7816164E-02  0.1266605E+00
        -11   -1    0    0    0    0  0.00000000000E+00  0.00000000000E+00  0.45593999997E+02  0.45594000000E+02  0.51100000000E-03 0. -1.
         11   -1    0    0    0    0 -0.00000000000E+00 -0.00000000000E+00 -0.45593999997E+02  0.45594000000E+02  0.51100000000E-03 0.  1.
    9900012    2    1    2    0    0 -0.24386170626E+02  0.14369864131E+02 -0.14681352356E+02  0.59301946310E+02  0.50000004162E+02 0.  0.
         12    1    1    2    0    0  0.24386170626E+02 -0.14369864131E+02  0.14681352356E+02  0.31886053690E+02  0.00000000000E+00 0. -1.
         11    1    3    3    0    0 -0.12197088198E+02  0.14084431537E+01  0.14822724796E+02  0.19247489272E+02  0.51100000000E-03 0. -1.
        -11    1    3    3    0    0 -0.12484333386E+02  0.77069740662E+01 -0.31239294428E+02  0.34513034436E+02  0.51100000000E-03 0.  1.
         12    1    3    3    0    0  0.29525095808E+00  0.52544469109E+01  0.17352172760E+01  0.55414226028E+01  0.00000000000E+00 0. -1.
</event>
<event>
 7    1  0.7457761E-012  0.5930197E+02  0.7816164E-02  0.1266605E+00
        -11   -1    0    0    0    0  0.00000000000E+00  0.00000000000E+00  0.45593999997E+02  0.45594000000E+02  0.51100000000E-03 0.  1.
         11   -1    0    0    0    0 -0.00000000000E+00 -0.00000000000E+00 -0.45593999997E+02  0.45594000000E+02  0.51100000000E-03 0. -1.
    9900012    2    1    2    0    0  0.31650826267E+02  0.38550518374E+00  0.38465282447E+01  0.59301965484E+02  0.50000039131E+02 0.  0.
         12    1    1    2    0    0 -0.31650826267E+02 -0.38550518374E+00 -0.38465282447E+01  0.31886034516E+02  0.00000000000E+00 0. -1.
         11    1    3    3    0    0 -0.86994187944E+01 -0.90010619450E+01 -0.74953445954E+01  0.14590380199E+02  0.51100000000E-03 0. -1.
        -11    1    3    3    0    0  0.20307239601E+02 -0.20055676562E+00  0.94914146490E+01  0.22416760594E+02  0.51100000000E-03 0.  1.
         12    1    3    3    0    0  0.20043005460E+02  0.95871238943E+01  0.18504581910E+01  0.22294824690E+02  0.00000000000E+00 0. -1.
</event>
<event>
 7    1  0.7457761E-012  0.5930197E+02  0.7816164E-02  0.1266605E+00
        -11   -1    0    0    0    0  0.00000000000E+00  0.00000000000E+00  0.45593999997E+02  0.45594000000E+02  0.51100000000E-03 0.  1.
         11   -1    0    0    0    0 -0.00000000000E+00 -0.00000000000E+00 -0.45593999997E+02  0.45594000000E+02  0.51100000000E-03 0. -1.
    9900012    2    1    2    0    0 -0.29595213506E+02  0.19618982465E-01  0.11867687023E+02  0.59301967906E+02  0.50000043549E+02 0.  0.
         12    1    1    2    0    0  0.29595213506E+02 -0.19618982465E-01 -0.11867687023E+02  0.31886032094E+02  0.00000000000E+00 0. -1.
         11    1    3    3    0    0  0.44602107350E+01  0.33703872924E+01  0.62108583556E+01  0.83563001428E+01  0.51100000000E-03 0. -1.
        -11    1    3    3    0    0 -0.23801009057E+02  0.55918522619E+01 -0.13128224316E+02  0.27750803913E+02  0.51100000000E-03 0.  1.
        -12    1    3    3    0    0 -0.10254415184E+02 -0.89426205719E+01  0.18785052983E+02  0.23194863851E+02  0.00000000000E+00 0.  1.
</event>
<event>
 7    1  0.7457761E-012  0.5930193E+02  0.7816164E-02  0.1266605E+00
        -11   -1    0    0    0    0  0.00000000000E+00  0.00000000000E+00  0.45593999997E+02  0.45594000000E+02  0.51100000000E-03 0.  1.
         11   -1    0    0    0    0 -0.00000000000E+00 -0.00000000000E+00 -0.45593999997E+02  0.45594000000E+02  0.51100000000E-03 0. -1.
    9900012    2    1    2    0    0  0.30818507926E+02 -0.77954280569E+01  0.24843720144E+01  0.59301933549E+02  0.49999980890E+02 0.  0.
         12    1    1    2    0    0 -0.30818507926E+02  0.77954280569E+01 -0.24843720144E+01  0.31886066451E+02  0.00000000000E+00 0. -1.
         11    1    3    3    0    0  0.28561891111E+02 -0.15098527710E+02  0.99377706218E+01  0.33800982945E+02  0.51100000000E-03 0. -1.
        -11    1    3    3    0    0 -0.49244395600E+01  0.49425015981E+01  0.65613711393E+01  0.95775789485E+01  0.51100000000E-03 0.  1.
         12    1    3    3    0    0  0.71810563757E+01  0.23605980555E+01 -0.14014769747E+02  0.15923371656E+02  0.00000000000E+00 0. -1.
</event>
<event>
 7    1  0.7457761E-012  0.5930188E+02  0.7816164E-02  0.1266605E+00
        -11   -1    0    0    0    0  0.00000000000E+00  0.00000000000E+00  0.45593999997E+02  0.45594000000E+02  0.51100000000E-03 0.  1.
         11   -1    0    0    0    0 -0.00000000000E+00 -0.00000000000E+00 -0.45593999997E+02  0.45594000000E+02  0.51100000000E-03 0. -1.
    9900012    2    1    2    0    0 -0.10497983682E+01 -0.50070007662E+01  0.31473042463E+02  0.59301881780E+02  0.49999886475E+02 0.  0.
         12    1    1    2    0    0  0.10497983682E+01  0.50070007662E+01 -0.31473042463E+02  0.31886118220E+02  0.00000000000E+00 0. -1.
         11    1    3    3    0    0 -0.20369983860E+02 -0.86417371919E+01  0.21300029977E+02  0.30713305609E+02  0.51100000000E-03 0. -1.
        -11    1    3    3    0    0  0.16684590421E+02 -0.17893923172E+01  0.13646882083E+02  0.21629028486E+02  0.51100000000E-03 0.  1.
         12    1    3    3    0    0  0.26355950704E+01  0.54241287430E+01 -0.34738695977E+01  0.69595476848E+01  0.00000000000E+00 0. -1.
</event>
<event>
 7    1  0.7457761E-012  0.5930198E+02  0.7816164E-02  0.1266605E+00
        -11   -1    0    0    0    0  0.00000000000E+00  0.00000000000E+00  0.45593999997E+02  0.45594000000E+02  0.51100000000E-03 0.  1.
         11   -1    0    0    0    0 -0.00000000000E+00 -0.00000000000E+00 -0.45593999997E+02  0.45594000000E+02  0.51100000000E-03 0. -1.
    9900012    2    1    2    0    0  0.25279862136E+02 -0.73222819198E+01  0.18000860388E+02  0.59301980856E+02  0.50000067167E+02 0.  0.
         12    1    1    2    0    0 -0.25279862136E+02  0.73222819198E+01 -0.18000860388E+02  0.31886019144E+02  0.00000000000E+00 0. -1.
         11    1    3    3    0    0  0.12602896336E+02  0.10866835225E+02 -0.51334614555E+01  0.17414750375E+02  0.51100000000E-03 0. -1.
        -11    1    3    3    0    0  0.34436156739E+00  0.50932099823E+01  0.12450787640E+02  0.13456652107E+02  0.51100000000E-03 0.  1.
         12    1    3    3    0    0  0.12332604233E+02 -0.23282327127E+02  0.10683534204E+02  0.28430578374E+02  0.00000000000E+00 0. -1.
</event>
<event>
 7    1  0.7457761E-012  0.5930196E+02  0.7816164E-02  0.1266605E+00
        -11   -1    0    0    0    0  0.00000000000E+00  0.00000000000E+00  0.45593999997E+02  0.45594000000E+02  0.51100000000E-03 0. -1.
         11   -1    0    0    0    0 -0.00000000000E+00 -0.00000000000E+00 -0.45593999997E+02  0.45594000000E+02  0.51100000000E-03 0.  1.
    9900012    2    1    2    0    0  0.17334697157E+02  0.17257954971E+01  0.26706732499E+02  0.59301958283E+02  0.50000025997E+02 0.  0.
         12    1    1    2    0    0 -0.17334697157E+02 -0.17257954971E+01 -0.26706732499E+02  0.31886041717E+02  0.00000000000E+00 0. -1.
         11    1    3    3    0    0  0.86202717793E+00  0.49730565271E+01 -0.63844687982E+00  0.50874351845E+01  0.51100000000E-03 0. -1.
        -11    1    3    3    0    0  0.11274113297E+02 -0.20731190604E+02  0.29915066878E+01  0.23787328707E+02  0.51100000000E-03 0.  1.
        -12    1    3    3    0    0  0.51985566819E+01  0.17483929574E+02  0.24353672691E+02  0.30427194391E+02  0.00000000000E+00 0.  1.
</event>
<event>
 7    1  0.7457761E-012  0.5930189E+02  0.7816164E-02  0.1266605E+00
        -11   -1    0    0    0    0  0.00000000000E+00  0.00000000000E+00  0.45593999997E+02  0.45594000000E+02  0.51100000000E-03 0.  1.
         11   -1    0    0    0    0 -0.00000000000E+00 -0.00000000000E+00 -0.45593999997E+02  0.45594000000E+02  0.51100000000E-03 0. -1.
    9900012    2    1    2    0    0  0.16159827588E+02 -0.10180555303E+02  0.25533119453E+02  0.59301891379E+02  0.49999903982E+02 0.  0.
         12    1    1    2    0    0 -0.16159827588E+02  0.10180555303E+02 -0.25533119453E+02  0.31886108621E+02  0.00000000000E+00 0. -1.
         11    1    3    3    0    0  0.14647375543E+02  0.25624665302E+01 -0.12208737622E+02  0.19239675662E+02  0.51100000000E-03 0. -1.
        -11    1    3    3    0    0  0.25965694647E+01 -0.11485223337E+02  0.32945497052E+02  0.34986544619E+02  0.51100000000E-03 0.  1.
         12    1    3    3    0    0 -0.10841174189E+01 -0.12577984961E+01  0.47963600224E+01  0.50756710985E+01  0.00000000000E+00 0. -1.
</event>
<event>
 7    1  0.7457761E-012  0.5930195E+02  0.7816164E-02  0.1266605E+00
        -11   -1    0    0    0    0  0.00000000000E+00  0.00000000000E+00  0.45593999997E+02  0.45594000000E+02  0.51100000000E-03 0.  1.
         11   -1    0    0    0    0 -0.00000000000E+00 -0.00000000000E+00 -0.45593999997E+02  0.45594000000E+02  0.51100000000E-03 0. -1.
    9900012    2    1    2    0    0  0.26047225614E+02  0.16591784212E+02 -0.79356815487E+01  0.59301948078E+02  0.50000007386E+02 0.  0.
         12    1    1    2    0    0 -0.26047225614E+02 -0.16591784212E+02  0.79356815487E+01  0.31886051922E+02  0.00000000000E+00 0. -1.
         11    1    3    3    0    0  0.45223932586E+01  0.12377839644E+02 -0.82549250077E+01  0.15550136404E+02  0.51100000000E-03 0. -1.
        -11    1    3    3    0    0  0.45817579743E+01 -0.10626785079E+02  0.13399916483E+02  0.17705333357E+02  0.51100000000E-03 0.  1.
        -12    1    3    3    0    0  0.16943074381E+02  0.14840729648E+02 -0.13080673024E+02  0.26046478317E+02  0.00000000000E+00 0.  1.
</event>
<event>
 7    1  0.7457761E-012  0.5930193E+02  0.7816164E-02  0.1266605E+00
        -11   -1    0    0    0    0  0.00000000000E+00  0.00000000000E+00  0.45593999997E+02  0.45594000000E+02  0.51100000000E-03 0. -1.
         11   -1    0    0    0    0 -0.00000000000E+00 -0.00000000000E+00 -0.45593999997E+02  0.45594000000E+02  0.51100000000E-03 0.  1.
    9900012    2    1    2    0    0  0.20628584693E+02  0.24029018884E+02  0.37133662520E+01  0.59301931821E+02  0.49999977739E+02 0.  0.
         12    1    1    2    0    0 -0.20628584693E+02 -0.24029018884E+02 -0.37133662520E+01  0.31886068179E+02  0.00000000000E+00 0. -1.
         11    1    3    3    0    0  0.20829465576E+02  0.91742241696E+01 -0.12598224324E+02  0.26014386052E+02  0.51100000000E-03 0. -1.
        -11    1    3    3    0    0 -0.34938728212E+01  0.20293811127E+02  0.17247080274E+02  0.26860895287E+02  0.51100000000E-03 0.  1.
         12    1    3    3    0    0  0.32929919384E+01 -0.54390164133E+01 -0.93548969836E+00  0.64266504826E+01  0.00000000000E+00 0. -1.
</event>
<event>
 7    1  0.7457761E-012  0.5930196E+02  0.7816164E-02  0.1266605E+00
        -11   -1    0    0    0    0  0.00000000000E+00  0.00000000000E+00  0.45593999997E+02  0.45594000000E+02  0.51100000000E-03 0.  1.
         11   -1    0    0    0    0 -0.00000000000E+00 -0.00000000000E+00 -0.45593999997E+02  0.45594000000E+02  0.51100000000E-03 0. -1.
    9900012    2    1    2    0    0  0.19098723766E+02 -0.31669808706E+00  0.25531511068E+02  0.59301959095E+02  0.50000027479E+02 0.  0.
         12    1    1    2    0    0 -0.19098723766E+02  0.31669808706E+00 -0.25531511068E+02  0.31886040905E+02  0.00000000000E+00 0. -1.
         11    1    3    3    0    0  0.41796912694E+01 -0.90753174977E+01  0.28030634880E+02  0.29758153485E+02  0.51100000000E-03 0.  1.
        -11    1    3    3    0    0  0.18944855312E+02  0.12402156893E+02 -0.55527680789E+01  0.23314250406E+02  0.51100000000E-03 0. -1.
         12    1    3    3    0    0 -0.40258228155E+01 -0.36435374829E+01  0.30536442673E+01  0.62295552042E+01  0.00000000000E+00 0. -1.
</event>
<event>
 7    1  0.7457761E-012  0.5930192E+02  0.7816164E-02  0.1266605E+00
        -11   -1    0    0    0    0  0.00000000000E+00  0.00000000000E+00  0.45593999997E+02  0.45594000000E+02  0.51100000000E-03 0.  1.
         11   -1    0    0    0    0 -0.00000000000E+00 -0.00000000000E+00 -0.45593999997E+02  0.45594000000E+02  0.51100000000E-03 0. -1.
    9900012    2    1    2    0    0  0.15094409433E+02  0.13185033805E+01  0.28056062343E+02  0.59301917119E+02  0.49999950924E+02 0.  0.
         12    1    1    2    0    0 -0.15094409433E+02 -0.13185033805E+01 -0.28056062343E+02  0.31886082881E+02  0.00000000000E+00 0. -1.
         11    1    3    3    0    0  0.14952686357E+02 -0.54403377864E+01 -0.99781715861E+01  0.18781480586E+02  0.51100000000E-03 0. -1.
        -11    1    3    3    0    0 -0.31654444854E+01 -0.15364900455E+01  0.20945336916E+02  0.21238831870E+02  0.51100000000E-03 0.  1.
         12    1    3    3    0    0  0.33071675614E+01  0.82953312123E+01  0.17088897014E+02  0.19281604662E+02  0.00000000000E+00 0. -1.
</event>
<event>
 7    1  0.7457761E-012  0.5930196E+02  0.7816164E-02  0.1266605E+00
        -11   -1    0    0    0    0  0.00000000000E+00  0.00000000000E+00  0.45593999997E+02  0.45594000000E+02  0.51100000000E-03 0.  1.
         11   -1    0    0    0    0 -0.00000000000E+00 -0.00000000000E+00 -0.45593999997E+02  0.45594000000E+02  0.51100000000E-03 0. -1.
    9900012    2    1    2    0    0 -0.27132016113E+01 -0.19047617063E+02  0.25427275122E+02  0.59301960752E+02  0.50000030501E+02 0.  0.
         12    1    1    2    0    0  0.27132016113E+01  0.19047617063E+02 -0.25427275122E+02  0.31886039248E+02  0.00000000000E+00 0. -1.
         11    1    3    3    0    0 -0.42709368876E+01  0.56513014290E+01 -0.40328310278E+00  0.70951213705E+01  0.51100000000E-03 0. -1.
        -11    1    3    3    0    0 -0.14223086515E+02 -0.25059539500E+02  0.11976151923E+02  0.31204245306E+02  0.51100000000E-03 0.  1.
        -12    1    3    3    0    0  0.15780821791E+02  0.36062100769E+00  0.13854406302E+02  0.21002594076E+02  0.00000000000E+00 0.  1.
</event>
<event>
 7    1  0.7457761E-012  0.5930186E+02  0.7816164E-02  0.1266605E+00
        -11   -1    0    0    0    0  0.00000000000E+00  0.00000000000E+00  0.45593999997E+02  0.45594000000E+02  0.51100000000E-03 0.  1.
         11   -1    0    0    0    0 -0.00000000000E+00 -0.00000000000E+00 -0.45593999997E+02  0.45594000000E+02  0.51100000000E-03 0. -1.
    9900012    2    1    2    0    0 -0.70538589029E+01 -0.26442827951E+02  0.16362950101E+02  0.59301855493E+02  0.49999838534E+02 0.  0.
         12    1    1    2    0    0  0.70538589029E+01  0.26442827951E+02 -0.16362950101E+02  0.31886144507E+02  0.00000000000E+00 0. -1.
         11    1    3    3    0    0  0.26483477960E+01 -0.49015598371E+01 -0.22342280039E+01  0.60025669442E+01  0.51100000000E-03 0. -1.
        -11    1    3    3    0    0 -0.90191463316E+00 -0.79919388010E+01  0.31570504850E+02  0.32578847625E+02  0.51100000000E-03 0.  1.
        -12    1    3    3    0    0 -0.88002920657E+01 -0.13549329313E+02 -0.12973326745E+02  0.20720440925E+02  0.00000000000E+00 0.  1.
</event>
<event>
 7    1  0.7457761E-012  0.5930195E+02  0.7816164E-02  0.1266605E+00
        -11   -1    0    0    0    0  0.00000000000E+00  0.00000000000E+00  0.45593999997E+02  0.45594000000E+02  0.51100000000E-03 0.  1.
         11   -1    0    0    0    0 -0.00000000000E+00 -0.00000000000E+00 -0.45593999997E+02  0.45594000000E+02  0.51100000000E-03 0. -1.
    9900012    2    1    2    0    0 -0.12498598241E+01  0.18689413683E+02  0.25804341947E+02  0.59301946674E+02  0.50000004826E+02 0.  0.
         12    1    1    2    0    0  0.12498598241E+01 -0.18689413683E+02 -0.25804341947E+02  0.31886053326E+02  0.00000000000E+00 0. -1.
         11    1    3    3    0    0 -0.19683558734E+01  0.74596517199E+01 -0.29851742789E+01  0.82723693319E+01  0.51100000000E-03 0. -1.
        -11    1    3    3    0    0 -0.13551175893E+01 -0.12771210254E+02  0.22859355285E+02  0.26220035838E+02  0.51100000000E-03 0.  1.
        -12    1    3    3    0    0  0.20736136386E+01  0.24000972217E+02  0.59301609408E+01  0.24809541504E+02  0.00000000000E+00 0.  1.
</event>
<event>
 7    1  0.7457761E-012  0.5930195E+02  0.7816164E-02  0.1266605E+00
        -11   -1    0    0    0    0  0.00000000000E+00  0.00000000000E+00  0.45593999997E+02  0.45594000000E+02  0.51100000000E-03 0.  1.
         11   -1    0    0    0    0 -0.00000000000E+00 -0.00000000000E+00 -0.45593999997E+02  0.45594000000E+02  0.51100000000E-03 0. -1.
    9900012    2    1    2    0    0  0.56220627391E+01  0.31386265928E+02  0.12208918572E+00  0.59301950008E+02  0.50000010906E+02 0.  0.
         12    1    1    2    0    0 -0.56220627391E+01 -0.31386265928E+02 -0.12208918572E+00  0.31886049992E+02  0.00000000000E+00 0. -1.
         11    1    3    3    0    0 -0.41782649838E+01  0.38279417746E+02  0.75685111572E+01  0.39243522811E+02  0.51100000000E-03 0.  1.
        -11    1    3    3    0    0  0.13273568191E+02 -0.42561473035E+01 -0.40049689632E+01  0.14503178240E+02  0.51100000000E-03 0. -1.
        -12    1    3    3    0    0 -0.34732404685E+01 -0.26370045147E+01 -0.34414530083E+01  0.55552489567E+01  0.00000000000E+00 0.  1.
</event>
<event>
 7    1  0.7457761E-012  0.5930194E+02  0.7816164E-02  0.1266605E+00
        -11   -1    0    0    0    0  0.00000000000E+00  0.00000000000E+00  0.45593999997E+02  0.45594000000E+02  0.51100000000E-03 0.  1.
         11   -1    0    0    0    0 -0.00000000000E+00 -0.00000000000E+00 -0.45593999997E+02  0.45594000000E+02  0.51100000000E-03 0. -1.
    9900012    2    1    2    0    0  0.91871814952E+01 -0.13076559003E+02  0.27592026196E+02  0.59301943349E+02  0.49999998762E+02 0.  0.
         12    1    1    2    0    0 -0.91871814952E+01  0.13076559003E+02 -0.27592026196E+02  0.31886056651E+02  0.00000000000E+00 0. -1.
         11    1    3    3    0    0 -0.77643781947E+01 -0.14495406845E+01 -0.41230218820E+01  0.89098847718E+01  0.51100000000E-03 0. -1.
        -11    1    3    3    0    0  0.18793825478E+02  0.42717350884E+01  0.27948693707E+02  0.33949743400E+02  0.51100000000E-03 0.  1.
        -12    1    3    3    0    0 -0.18422657877E+01 -0.15898753407E+02  0.37663543708E+01  0.16442315177E+02  0.00000000000E+00 0.  1.
</event>
<event>
 7    1  0.7457761E-012  0.5930198E+02  0.7816164E-02  0.1266605E+00
        -11   -1    0    0    0    0  0.00000000000E+00  0.00000000000E+00  0.45593999997E+02  0.45594000000E+02  0.51100000000E-03 0. -1.
         11   -1    0    0    0    0 -0.00000000000E+00 -0.00000000000E+00 -0.45593999997E+02  0.45594000000E+02  0.51100000000E-03 0.  1.
    9900012    2    1    2    0    0 -0.27801443943E+02 -0.13725840319E+02 -0.74430520623E+01  0.59301984229E+02  0.50000073317E+02 0.  0.
         12    1    1    2    0    0  0.27801443943E+02  0.13725840319E+02  0.74430520623E+01  0.31886015771E+02  0.00000000000E+00 0. -1.
         11    1    3    3    0    0 -0.16059716291E+02  0.72978072313E+01 -0.18096272282E+01  0.17732659944E+02  0.51100000000E-03 0. -1.
        -11    1    3    3    0    0 -0.15074836044E+02 -0.18443265806E+02  0.96608569893E+01  0.25704802924E+02  0.51100000000E-03 0.  1.
        -12    1    3    3    0    0  0.33331083928E+01 -0.25803817445E+01 -0.15294281823E+02  0.15864521360E+02  0.00000000000E+00 0.  1.
</event>
<event>
 7    1  0.7457761E-012  0.5930186E+02  0.7816164E-02  0.1266605E+00
        -11   -1    0    0    0    0  0.00000000000E+00  0.00000000000E+00  0.45593999997E+02  0.45594000000E+02  0.51100000000E-03 0.  1.
         11   -1    0    0    0    0 -0.00000000000E+00 -0.00000000000E+00 -0.45593999997E+02  0.45594000000E+02  0.51100000000E-03 0. -1.
    9900012    2    1    2    0    0 -0.16393721952E+01  0.65408525997E+01  0.31164979319E+02  0.59301855205E+02  0.49999838009E+02 0.  0.
         12    1    1    2    0    0  0.16393721952E+01 -0.65408525997E+01 -0.31164979319E+02  0.31886144795E+02  0.00000000000E+00 0. -1.
         11    1    3    3    0    0 -0.18352725852E+02  0.50642518637E+01  0.15431098874E+00  0.19039249074E+02  0.51100000000E-03 0. -1.
        -11    1    3    3    0    0  0.89949316079E+00  0.66118231980E+00  0.22030133832E+02  0.22058400824E+02  0.51100000000E-03 0.  1.
        -12    1    3    3    0    0  0.15813860496E+02  0.81541841614E+00  0.89805344986E+01  0.18204205307E+02  0.00000000000E+00 0.  1.
</event>
<event>
 7    1  0.7457761E-012  0.5930197E+02  0.7816164E-02  0.1266605E+00
        -11   -1    0    0    0    0  0.00000000000E+00  0.00000000000E+00  0.45593999997E+02  0.45594000000E+02  0.51100000000E-03 0. -1.
         11   -1    0    0    0    0 -0.00000000000E+00 -0.00000000000E+00 -0.45593999997E+02  0.45594000000E+02  0.51100000000E-03 0.  1.
    9900012    2    1    2    0    0  0.25734081670E+02  0.17564931190E+02 -0.67785910257E+01  0.59301967581E+02  0.50000042956E+02 0.  0.
         12    1    1    2    0    0 -0.25734081670E+02 -0.17564931190E+02  0.67785910257E+01  0.31886032419E+02  0.00000000000E+00 0. -1.
         11    1    3    3    0    0  0.17018575937E+01 -0.11023437795E+02  0.63880774853E+01  0.12853794549E+02  0.51100000000E-03 0. -1.
        -11    1    3    3    0    0  0.15936506974E+02  0.19921817099E+02 -0.20305103446E+02  0.32605954629E+02  0.51100000000E-03 0.  1.
        -12    1    3    3    0    0  0.80957171024E+01  0.86665518864E+01  0.71384349346E+01  0.13842218403E+02  0.00000000000E+00 0.  1.
</event>
<event>
 7    1  0.7457761E-012  0.5930195E+02  0.7816164E-02  0.1266605E+00
        -11   -1    0    0    0    0  0.00000000000E+00  0.00000000000E+00  0.45593999997E+02  0.45594000000E+02  0.51100000000E-03 0.  1.
         11   -1    0    0    0    0 -0.00000000000E+00 -0.00000000000E+00 -0.45593999997E+02  0.45594000000E+02  0.51100000000E-03 0. -1.
    9900012    2    1    2    0    0 -0.15696671827E+02 -0.11171883397E+01  0.27732412700E+02  0.59301947714E+02  0.50000006724E+02 0.  0.
         12    1    1    2    0    0  0.15696671827E+02  0.11171883397E+01 -0.27732412700E+02  0.31886052286E+02  0.00000000000E+00 0. -1.
         11    1    3    3    0    0 -0.37156521755E+01  0.14351077815E+02 -0.70819778682E+01  0.16429057074E+02  0.51100000000E-03 0. -1.
        -11    1    3    3    0    0 -0.10178217549E+02 -0.51517279148E+01  0.28366117195E+02  0.30574057925E+02  0.51100000000E-03 0.  1.
        -12    1    3    3    0    0 -0.18028021017E+01 -0.10316538240E+02  0.64482733725E+01  0.12298832716E+02  0.00000000000E+00 0.  1.
</event>
<event>
 7    1  0.7457761E-012  0.5930205E+02  0.7816164E-02  0.1266604E+00
        -11   -1    0    0    0    0  0.00000000000E+00  0.00000000000E+00  0.45593999997E+02  0.45594000000E+02  0.51100000000E-03 0.  1.
         11   -1    0    0    0    0 -0.00000000000E+00 -0.00000000000E+00 -0.45593999997E+02  0.45594000000E+02  0.51100000000E-03 0. -1.
    9900012    2    1    2    0    0 -0.95964999463E+01 -0.17219340539E+02  0.25062231535E+02  0.59302047775E+02  0.50000189209E+02 0.  0.
         12    1    1    2    0    0  0.95964999463E+01  0.17219340539E+02 -0.25062231535E+02  0.31885952225E+02  0.00000000000E+00 0. -1.
         11    1    3    3    0    0  0.28617618071E+01 -0.29139742699E+02  0.15340108174E+02  0.33055002711E+02  0.51100000000E-03 0. -1.
        -11    1    3    3    0    0 -0.16472516568E+02  0.79576216346E+01  0.94723128874E+01  0.20600782894E+02  0.51100000000E-03 0.  1.
         12    1    3    3    0    0  0.40142548147E+01  0.39627805251E+01  0.24981047295E+00  0.56462621689E+01  0.00000000000E+00 0. -1.
</event>
<event>
 7    1  0.7457761E-012  0.5930187E+02  0.7816164E-02  0.1266605E+00
        -11   -1    0    0    0    0  0.00000000000E+00  0.00000000000E+00  0.45593999997E+02  0.45594000000E+02  0.51100000000E-03 0.  1.
         11   -1    0    0    0    0 -0.00000000000E+00 -0.00000000000E+00 -0.45593999997E+02  0.45594000000E+02  0.51100000000E-03 0. -1.
    9900012    2    1    2    0    0 -0.26481485785E+01 -0.27475095713E+02  0.15963439888E+02  0.59301874673E+02  0.49999873514E+02 0.  0.
         12    1    1    2    0    0  0.26481485785E+01  0.27475095713E+02 -0.15963439888E+02  0.31886125327E+02  0.00000000000E+00 0. -1.
         11    1    3    3    0    0 -0.18569409958E+02 -0.22896100549E+02  0.15008202554E+02  0.33080213886E+02  0.51100000000E-03 0. -1.
        -11    1    3    3    0    0  0.60957474042E+01 -0.42666641223E+01 -0.93701321312E+01  0.11965029693E+02  0.51100000000E-03 0.  1.
        -12    1    3    3    0    0  0.98255139757E+01 -0.31233104109E+00  0.10325369465E+02  0.14256631094E+02  0.00000000000E+00 0.  1.
</event>
<event>
 7    1  0.7457761E-012  0.5930188E+02  0.7816164E-02  0.1266605E+00
        -11   -1    0    0    0    0  0.00000000000E+00  0.00000000000E+00  0.45593999997E+02  0.45594000000E+02  0.51100000000E-03 0.  1.
         11   -1    0    0    0    0 -0.00000000000E+00 -0.00000000000E+00 -0.45593999997E+02  0.45594000000E+02  0.51100000000E-03 0. -1.
    9900012    2    1    2    0    0  0.29318721924E+02 -0.11667347446E+02 -0.45836606405E+01  0.59301883953E+02  0.49999890438E+02 0.  0.
         12    1    1    2    0    0 -0.29318721924E+02  0.11667347446E+02  0.45836606405E+01  0.31886116047E+02  0.00000000000E+00 0. -1.
         11    1    3    3    0    0  0.32253254933E+01  0.89937680036E+01 -0.23496917226E+01  0.98392905686E+01  0.51100000000E-03 0. -1.
        -11    1    3    3    0    0  0.31813483408E+02 -0.26020394183E+02 -0.43896407514E+01  0.41333129403E+02  0.51100000000E-03 0.  1.
        -12    1    3    3    0    0 -0.57200869774E+01  0.53592787337E+01  0.21556718335E+01  0.81294639816E+01  0.00000000000E+00 0.  1.
</event>
<event>
 7    1  0.7457761E-012  0.5930194E+02  0.7816164E-02  0.1266605E+00
        -11   -1    0    0    0    0  0.00000000000E+00  0.00000000000E+00  0.45593999997E+02  0.45594000000E+02  0.51100000000E-03 0.  1.
         11   -1    0    0    0    0 -0.00000000000E+00 -0.00000000000E+00 -0.45593999997E+02  0.45594000000E+02  0.51100000000E-03 0. -1.
    9900012    2    1    2    0    0 -0.30190660145E+02 -0.87335847605E+01 -0.53823447939E+01  0.59301935673E+02  0.49999984763E+02 0.  0.
         12    1    1    2    0    0  0.30190660145E+02  0.87335847605E+01  0.53823447939E+01  0.31886064327E+02  0.00000000000E+00 0. -1.
         11    1    3    3    0    0 -0.89149018250E+00  0.11988227763E+02 -0.25096518788E+01  0.12280501311E+02  0.51100000000E-03 0.  1.
        -11    1    3    3    0    0 -0.31728454509E+02 -0.75173000254E+01  0.21714710142E+01  0.32679043925E+02  0.51100000000E-03 0. -1.
        -12    1    3    3    0    0  0.24292845465E+01 -0.13204512498E+02 -0.50441639293E+01  0.14342390437E+02  0.00000000000E+00 0.  1.
</event>
<event>
 7    1  0.7457761E-012  0.5930197E+02  0.7816164E-02  0.1266605E+00
        -11   -1    0    0    0    0  0.00000000000E+00  0.00000000000E+00  0.45593999997E+02  0.45594000000E+02  0.51100000000E-03 0.  1.
         11   -1    0    0    0    0 -0.00000000000E+00 -0.00000000000E+00 -0.45593999997E+02  0.45594000000E+02  0.51100000000E-03 0. -1.
    9900012    2    1    2    0    0  0.30003115390E+02  0.10792689265E+02 -0.22253346631E+00  0.59301974913E+02  0.50000056328E+02 0.  0.
         12    1    1    2    0    0 -0.30003115390E+02 -0.10792689265E+02  0.22253346631E+00  0.31886025087E+02  0.00000000000E+00 0. -1.
         11    1    3    3    0    0  0.11207948856E+01  0.32260119096E+01 -0.24214352683E+01  0.41864881507E+01  0.51100000000E-03 0. -1.
        -11    1    3    3    0    0  0.16112201224E+02  0.40774047091E+01  0.24248207774E+02  0.29397344063E+02  0.51100000000E-03 0.  1.
        -12    1    3    3    0    0  0.12770119281E+02  0.34892726462E+01 -0.22049305972E+02  0.25718142699E+02  0.00000000000E+00 0.  1.
</event>
<event>
 7    1  0.7457761E-012  0.5930189E+02  0.7816164E-02  0.1266605E+00
        -11   -1    0    0    0    0  0.00000000000E+00  0.00000000000E+00  0.45593999997E+02  0.45594000000E+02  0.51100000000E-03 0. -1.
         11   -1    0    0    0    0 -0.00000000000E+00 -0.00000000000E+00 -0.45593999997E+02  0.45594000000E+02  0.51100000000E-03 0.  1.
    9900012    2    1    2    0    0  0.17092237156E+02  0.22083099866E+02 -0.15392077851E+02  0.59301891250E+02  0.49999903746E+02 0.  0.
         12    1    1    2    0    0 -0.17092237156E+02 -0.22083099866E+02  0.15392077851E+02  0.31886108750E+02  0.00000000000E+00 0. -1.
         11    1    3    3    0    0 -0.11062807585E+02  0.74547583009E+01  0.11677331301E+01  0.13391143861E+02  0.51100000000E-03 0. -1.
        -11    1    3    3    0    0  0.11296481425E+02  0.21467047062E+02 -0.12421325858E+02  0.27253145478E+02  0.51100000000E-03 0.  1.
         12    1    3    3    0    0  0.16858563315E+02 -0.68387054969E+01 -0.41384851233E+01  0.18657601910E+02  0.00000000000E+00 0. -1.
</event>
<event>
 7    1  0.7457761E-012  0.5930193E+02  0.7816164E-02  0.1266605E+00
        -11   -1    0    0    0    0  0.00000000000E+00  0.00000000000E+00  0.45593999997E+02  0.45594000000E+02  0.51100000000E-03 0.  1.
         11   -1    0    0    0    0 -0.00000000000E+00 -0.00000000000E+00 -0.45593999997E+02  0.45594000000E+02  0.51100000000E-03 0. -1.
    9900012    2    1    2    0    0  0.68503124630E+01  0.31258352598E+00  0.31139957701E+02  0.59301930080E+02  0.49999974563E+02 0.  0.
         12    1    1    2    0    0 -0.68503124630E+01 -0.31258352598E+00 -0.31139957701E+02  0.31886069920E+02  0.00000000000E+00 0. -1.
         11    1    3    3    0    0 -0.25748607273E+01 -0.45097207090E+01 -0.96283325715E+01  0.10939482484E+02  0.51100000000E-03 0. -1.
        -11    1    3    3    0    0  0.81863510681E+01  0.42030899692E+01  0.43944364582E+02  0.44897544341E+02  0.51100000000E-03 0.  1.
        -12    1    3    3    0    0  0.12388221221E+01  0.61921426580E+00 -0.31760743088E+01  0.34649032558E+01  0.00000000000E+00 0.  1.
</event>
<event>
 7    1  0.7457761E-012  0.5930193E+02  0.7816164E-02  0.1266605E+00
        -11   -1    0    0    0    0  0.00000000000E+00  0.00000000000E+00  0.45593999997E+02  0.45594000000E+02  0.51100000000E-03 0. -1.
         11   -1    0    0    0    0 -0.00000000000E+00 -0.00000000000E+00 -0.45593999997E+02  0.45594000000E+02  0.51100000000E-03 0.  1.
    9900012    2    1    2    0    0  0.33276592232E+01  0.29067221409E+02 -0.12678508379E+02  0.59301933278E+02  0.49999980394E+02 0.  0.
         12    1    1    2    0    0 -0.33276592232E+01 -0.29067221409E+02  0.12678508379E+02  0.31886066722E+02  0.00000000000E+00 0. -1.
         11    1    3    3    0    0  0.14008184999E+01  0.13207563525E+02  0.13336461220E+02  0.18821881544E+02  0.51100000000E-03 0. -1.
        -11    1    3    3    0    0 -0.76231156556E+01  0.11415090147E+02 -0.26597244265E+02  0.29930412261E+02  0.51100000000E-03 0.  1.
        -12    1    3    3    0    0  0.95499563789E+01  0.44445677367E+01  0.58227466692E+00  0.10549639472E+02  0.00000000000E+00 0.  1.
</event>
<event>
 7    1  0.7457761E-012  0.5930193E+02  0.7816164E-02  0.1266605E+00
        -11   -1    0    0    0    0  0.00000000000E+00  0.00000000000E+00  0.45593999997E+02  0.45594000000E+02  0.51100000000E-03 0.  1.
         11   -1    0    0    0    0 -0.00000000000E+00 -0.00000000000E+00 -0.45593999997E+02  0.45594000000E+02  0.51100000000E-03 0. -1.
    9900012    2    1    2    0    0 -0.20774758937E+02  0.18952187880E+02 -0.15031484401E+02  0.59301928470E+02  0.49999971627E+02 0.  0.
         12    1    1    2    0    0  0.20774758937E+02 -0.18952187880E+02  0.15031484401E+02  0.31886071530E+02  0.00000000000E+00 0. -1.
         11    1    3    3    0    0 -0.27545856354E+02 -0.35571594948E+01  0.46886599136E+01  0.28167554349E+02  0.51100000000E-03 0. -1.
        -11    1    3    3    0    0  0.62524948722E+01  0.13242679718E+02 -0.13824407789E+02  0.20138930190E+02  0.51100000000E-03 0.  1.
         12    1    3    3    0    0  0.51860254506E+00  0.92666676575E+01 -0.58957365252E+01  0.10995443931E+02  0.00000000000E+00 0. -1.
</event>
<event>
 7    1  0.7457761E-012  0.5930196E+02  0.7816164E-02  0.1266605E+00
        -11   -1    0    0    0    0  0.00000000000E+00  0.00000000000E+00  0.45593999997E+02  0.45594000000E+02  0.51100000000E-03 0.  1.
         11   -1    0    0    0    0 -0.00000000000E+00 -0.00000000000E+00 -0.45593999997E+02  0.45594000000E+02  0.51100000000E-03 0. -1.
    9900012    2    1    2    0    0  0.30114274130E+02 -0.10226902562E+02 -0.22935229280E+01  0.59301964031E+02  0.50000036482E+02 0.  0.
         12    1    1    2    0    0 -0.30114274130E+02  0.10226902562E+02  0.22935229280E+01  0.31886035969E+02  0.00000000000E+00 0. -1.
         11    1    3    3    0    0  0.22694260833E+02 -0.21197909736E+02 -0.16738574364E+02  0.35278332216E+02  0.51100000000E-03 0. -1.
        -11    1    3    3    0    0 -0.31673984723E+01 -0.34885050114E+00  0.60322492496E+00  0.32431451286E+01  0.51100000000E-03 0.  1.
         12    1    3    3    0    0  0.10587411769E+02  0.11319857675E+02  0.13841826511E+02  0.20780486687E+02  0.00000000000E+00 0. -1.
</event>
<event>
 7    1  0.7457761E-012  0.5930194E+02  0.7816164E-02  0.1266605E+00
        -11   -1    0    0    0    0  0.00000000000E+00  0.00000000000E+00  0.45593999997E+02  0.45594000000E+02  0.51100000000E-03 0. -1.
         11   -1    0    0    0    0 -0.00000000000E+00 -0.00000000000E+00 -0.45593999997E+02  0.45594000000E+02  0.51100000000E-03 0.  1.
    9900012    2    1    2    0    0  0.28541441921E+02 -0.32794462115E+01 -0.13833003609E+02  0.59301942495E+02  0.49999997204E+02 0.  0.
         12    1    1    2    0    0 -0.28541441921E+02  0.32794462115E+01  0.13833003609E+02  0.31886057505E+02  0.00000000000E+00 0. -1.
         11    1    3    3    0    0  0.20510925193E+01  0.62061432062E+00  0.72187569648E+01  0.75301125513E+01  0.51100000000E-03 0. -1.
        -11    1    3    3    0    0  0.28036438599E+02 -0.17275681820E+02 -0.10189614906E+02  0.34472007830E+02  0.51100000000E-03 0.  1.
        -12    1    3    3    0    0 -0.15460891971E+01  0.13375621288E+02 -0.10862145668E+02  0.17299822113E+02  0.00000000000E+00 0.  1.
</event>
<event>
 7    1  0.7457761E-012  0.5930194E+02  0.7816164E-02  0.1266605E+00
        -11   -1    0    0    0    0  0.00000000000E+00  0.00000000000E+00  0.45593999997E+02  0.45594000000E+02  0.51100000000E-03 0.  1.
         11   -1    0    0    0    0 -0.00000000000E+00 -0.00000000000E+00 -0.45593999997E+02  0.45594000000E+02  0.51100000000E-03 0. -1.
    9900012    2    1    2    0    0  0.21303308874E+02 -0.23259043442E+02  0.46804848099E+01  0.59301937075E+02  0.49999987320E+02 0.  0.
         12    1    1    2    0    0 -0.21303308874E+02  0.23259043442E+02 -0.46804848099E+01  0.31886062925E+02  0.00000000000E+00 0. -1.
         11    1    3    3    0    0  0.13026137168E+02 -0.62449863109E+01  0.13871942922E+02  0.20027753349E+02  0.51100000000E-03 0. -1.
        -11    1    3    3    0    0  0.16082600148E+02 -0.22916337405E+02 -0.42693275979E+01  0.28320234922E+02  0.51100000000E-03 0.  1.
         12    1    3    3    0    0 -0.78054284424E+01  0.59022802746E+01 -0.49221305138E+01  0.10953948804E+02  0.00000000000E+00 0. -1.
</event>
<event>
 7    1  0.7457761E-012  0.5930192E+02  0.7816164E-02  0.1266605E+00
        -11   -1    0    0    0    0  0.00000000000E+00  0.00000000000E+00  0.45593999997E+02  0.45594000000E+02  0.51100000000E-03 0. -1.
         11   -1    0    0    0    0 -0.00000000000E+00 -0.00000000000E+00 -0.45593999997E+02  0.45594000000E+02  0.51100000000E-03 0.  1.
    9900012    2    1    2    0    0 -0.13077135287E+02  0.14748909005E+02 -0.25063520363E+02  0.59301924087E+02  0.49999963633E+02 0.  0.
         12    1    1    2    0    0  0.13077135287E+02 -0.14748909005E+02  0.25063520363E+02  0.31886075913E+02  0.00000000000E+00 0. -1.
         11    1    3    3    0    0 -0.47399122050E+01  0.28008619939E+02 -0.62282014889E+01  0.29081610214E+02  0.51100000000E-03 0. -1.
        -11    1    3    3    0    0 -0.85994077624E+01 -0.12101535915E+02 -0.22169405458E+02  0.26681070518E+02  0.51100000000E-03 0.  1.
        -12    1    3    3    0    0  0.26218468031E+00 -0.11581750184E+01  0.33340865840E+01  0.35392433555E+01  0.00000000000E+00 0.  1.
</event>
<event>
 7    1  0.7457761E-012  0.5930168E+02  0.7816164E-02  0.1266606E+00
        -11   -1    0    0    0    0  0.00000000000E+00  0.00000000000E+00  0.45593999997E+02  0.45594000000E+02  0.51100000000E-03 0. -1.
         11   -1    0    0    0    0 -0.00000000000E+00 -0.00000000000E+00 -0.45593999997E+02  0.45594000000E+02  0.51100000000E-03 0.  1.
    9900012    2    1    2    0    0 -0.30830596221E+02 -0.72900235113E+01  0.36148333441E+01  0.59301684342E+02  0.49999526393E+02 0.  0.
         12    1    1    2    0    0  0.30830596221E+02  0.72900235113E+01 -0.36148333441E+01  0.31886315658E+02  0.00000000000E+00 0. -1.
         11    1    3    3    0    0 -0.83387826402E+01 -0.85966527915E+01  0.86952121458E+01  0.14800150326E+02  0.51100000000E-03 0. -1.
        -11    1    3    3    0    0  0.36248334942E+01  0.52709228382E+01 -0.14982307312E+02  0.16290843381E+02  0.51100000000E-03 0.  1.
        -12    1    3    3    0    0 -0.26116647075E+02 -0.39642935579E+01  0.99019285100E+01  0.28210690635E+02  0.00000000000E+00 0.  1.
</event>
<event>
 7    1  0.7457761E-012  0.5930205E+02  0.7816164E-02  0.1266604E+00
        -11   -1    0    0    0    0  0.00000000000E+00  0.00000000000E+00  0.45593999997E+02  0.45594000000E+02  0.51100000000E-03 0.  1.
         11   -1    0    0    0    0 -0.00000000000E+00 -0.00000000000E+00 -0.45593999997E+02  0.45594000000E+02  0.51100000000E-03 0. -1.
    9900012    2    1    2    0    0  0.13056543482E+02 -0.12849376019E+02  0.26098548023E+02  0.59302046969E+02  0.50000187740E+02 0.  0.
         12    1    1    2    0    0 -0.13056543482E+02  0.12849376019E+02 -0.26098548023E+02  0.31885953031E+02  0.00000000000E+00 0. -1.
         11    1    3    3    0    0  0.37528559467E+00  0.71362816265E+01  0.51281197927E+01  0.87957357623E+01  0.51100000000E-03 0. -1.
        -11    1    3    3    0    0  0.28487196882E+01 -0.17699427725E+02 -0.81448145332E+01  0.19690681798E+02  0.51100000000E-03 0.  1.
        -12    1    3    3    0    0  0.98325381989E+01 -0.22862299211E+01  0.29115242763E+02  0.30815629409E+02  0.00000000000E+00 0.  1.
</event>
<event>
 7    1  0.7457761E-012  0.5930194E+02  0.7816164E-02  0.1266605E+00
        -11   -1    0    0    0    0  0.00000000000E+00  0.00000000000E+00  0.45593999997E+02  0.45594000000E+02  0.51100000000E-03 0.  1.
         11   -1    0    0    0    0 -0.00000000000E+00 -0.00000000000E+00 -0.45593999997E+02  0.45594000000E+02  0.51100000000E-03 0. -1.
    9900012    2    1    2    0    0 -0.16169381616E+02 -0.85119874036E+01  0.26130781774E+02  0.59301943682E+02  0.49999999370E+02 0.  0.
         12    1    1    2    0    0  0.16169381616E+02  0.85119874036E+01 -0.26130781774E+02  0.31886056318E+02  0.00000000000E+00 0. -1.
         11    1    3    3    0    0 -0.13604157054E+01  0.67415938666E+00 -0.46009346574E+01  0.48449790250E+01  0.51100000000E-03 0. -1.
        -11    1    3    3    0    0 -0.22114969287E+02 -0.20214537713E+02  0.27874735929E+02  0.40923102337E+02  0.51100000000E-03 0.  1.
        -12    1    3    3    0    0  0.73060033772E+01  0.11028390923E+02  0.28569805021E+01  0.13533862320E+02  0.00000000000E+00 0.  1.
</event>
<event>
 7    1  0.7457761E-012  0.5930195E+02  0.7816164E-02  0.1266605E+00
        -11   -1    0    0    0    0  0.00000000000E+00  0.00000000000E+00  0.45593999997E+02  0.45594000000E+02  0.51100000000E-03 0.  1.
         11   -1    0    0    0    0 -0.00000000000E+00 -0.00000000000E+00 -0.45593999997E+02  0.45594000000E+02  0.51100000000E-03 0. -1.
    9900012    2    1    2    0    0  0.13563186881E+02 -0.21888470449E+02  0.18805715748E+02  0.59301950985E+02  0.50000012689E+02 0.  0.
         12    1    1    2    0    0 -0.13563186881E+02  0.21888470449E+02 -0.18805715748E+02  0.31886049015E+02  0.00000000000E+00 0. -1.
         11    1    3    3    0    0  0.10847382623E+02 -0.34010433496E+01 -0.73344095125E+01  0.13528723842E+02  0.51100000000E-03 0. -1.
        -11    1    3    3    0    0 -0.22407420140E+01  0.21408224401E+01  0.24279432564E+02  0.24476415003E+02  0.51100000000E-03 0.  1.
        -12    1    3    3    0    0  0.49565462717E+01 -0.20628249540E+02  0.18606926966E+01  0.21296812140E+02  0.00000000000E+00 0.  1.
</event>
<event>
 7    1  0.7457761E-012  0.5930194E+02  0.7816164E-02  0.1266605E+00
        -11   -1    0    0    0    0  0.00000000000E+00  0.00000000000E+00  0.45593999997E+02  0.45594000000E+02  0.51100000000E-03 0. -1.
         11   -1    0    0    0    0 -0.00000000000E+00 -0.00000000000E+00 -0.45593999997E+02  0.45594000000E+02  0.51100000000E-03 0.  1.
    9900012    2    1    2    0    0  0.98328854723E+01 -0.25498734150E+02 -0.16427100927E+02  0.59301941528E+02  0.49999995442E+02 0.  0.
         12    1    1    2    0    0 -0.98328854723E+01  0.25498734150E+02  0.16427100927E+02  0.31886058472E+02  0.00000000000E+00 0. -1.
         11    1    3    3    0    0  0.85166756791E+00 -0.26386222110E+02  0.65021772794E+01  0.27188901496E+02  0.51100000000E-03 0. -1.
        -11    1    3    3    0    0  0.25761696698E+01 -0.66846190318E+01 -0.20759377719E+02  0.21960704572E+02  0.51100000000E-03 0.  1.
         12    1    3    3    0    0  0.64050482346E+01  0.75721069916E+01 -0.21699004879E+01  0.10152335461E+02  0.00000000000E+00 0. -1.
</event>
<event>
 7    1  0.7457761E-012  0.5930195E+02  0.7816164E-02  0.1266605E+00
        -11   -1    0    0    0    0  0.00000000000E+00  0.00000000000E+00  0.45593999997E+02  0.45594000000E+02  0.51100000000E-03 0.  1.
         11   -1    0    0    0    0 -0.00000000000E+00 -0.00000000000E+00 -0.45593999997E+02  0.45594000000E+02  0.51100000000E-03 0. -1.
    9900012    2    1    2    0    0  0.26588756074E+02  0.45542869867E+01  0.17000492964E+02  0.59301949123E+02  0.50000009292E+02 0.  0.
         12    1    1    2    0    0 -0.26588756074E+02 -0.45542869867E+01 -0.17000492964E+02  0.31886050877E+02  0.00000000000E+00 0. -1.
         11    1    3    3    0    0 -0.51624077195E+01  0.84631974718E-01 -0.39098740172E+01  0.64764752084E+01  0.51100000000E-03 0. -1.
        -11    1    3    3    0    0  0.30140521326E+02  0.13180959849E+02  0.26592625573E+02  0.42300785613E+02  0.51100000000E-03 0.  1.
        -12    1    3    3    0    0  0.16106424683E+01 -0.87113048372E+01 -0.56822585924E+01  0.10524688301E+02  0.00000000000E+00 0.  1.
</event>
<event>
 7    1  0.7457761E-012  0.5930195E+02  0.7816164E-02  0.1266605E+00
        -11   -1    0    0    0    0  0.00000000000E+00  0.00000000000E+00  0.45593999997E+02  0.45594000000E+02  0.51100000000E-03 0.  1.
         11   -1    0    0    0    0 -0.00000000000E+00 -0.00000000000E+00 -0.45593999997E+02  0.45594000000E+02  0.51100000000E-03 0. -1.
    9900012    2    1    2    0    0  0.31436744919E+02  0.44618373038E+01 -0.29229041159E+01  0.59301948320E+02  0.50000007829E+02 0.  0.
         12    1    1    2    0    0 -0.31436744919E+02 -0.44618373038E+01  0.29229041159E+01  0.31886051680E+02  0.00000000000E+00 0. -1.
         11    1    3    3    0    0  0.26212617254E+02 -0.15885334650E+02  0.86180535868E+01  0.31838907144E+02  0.51100000000E-03 0.  1.
        -11    1    3    3    0    0 -0.52350926037E+00  0.18398647404E+02 -0.10821603917E+02  0.21351613518E+02  0.51100000000E-03 0. -1.
         12    1    3    3    0    0  0.57476369257E+01  0.19485245496E+01 -0.71935378592E+00  0.61114276580E+01  0.00000000000E+00 0. -1.
</event>
<event>
 7    1  0.7457761E-012  0.5930193E+02  0.7816164E-02  0.1266605E+00
        -11   -1    0    0    0    0  0.00000000000E+00  0.00000000000E+00  0.45593999997E+02  0.45594000000E+02  0.51100000000E-03 0.  1.
         11   -1    0    0    0    0 -0.00000000000E+00 -0.00000000000E+00 -0.45593999997E+02  0.45594000000E+02  0.51100000000E-03 0. -1.
    9900012    2    1    2    0    0  0.22517184604E+02  0.18177994785E+02  0.13388742545E+02  0.59301929000E+02  0.49999972594E+02 0.  0.
         12    1    1    2    0    0 -0.22517184604E+02 -0.18177994785E+02 -0.13388742545E+02  0.31886071000E+02  0.00000000000E+00 0. -1.
         11    1    3    3    0    0  0.34392093775E+01  0.14501864031E+02  0.78993668019E+01  0.16868082809E+02  0.51100000000E-03 0. -1.
        -11    1    3    3    0    0  0.18679225428E+02  0.40302006732E+01 -0.13525539821E+02  0.23411454627E+02  0.51100000000E-03 0.  1.
        -12    1    3    3    0    0  0.39874979789E+00 -0.35406991993E+00  0.19014915564E+02  0.19022391564E+02  0.00000000000E+00 0.  1.
</event>
<event>
 7    1  0.7457761E-012  0.5930197E+02  0.7816164E-02  0.1266605E+00
        -11   -1    0    0    0    0  0.00000000000E+00  0.00000000000E+00  0.45593999997E+02  0.45594000000E+02  0.51100000000E-03 0. -1.
         11   -1    0    0    0    0 -0.00000000000E+00 -0.00000000000E+00 -0.45593999997E+02  0.45594000000E+02  0.51100000000E-03 0.  1.
    9900012    2    1    2    0    0 -0.31648991910E+02  0.10229563002E+01 -0.37434895471E+01  0.59301971046E+02  0.50000049274E+02 0.  0.
         12    1    1    2    0    0  0.31648991910E+02 -0.10229563002E+01  0.37434895471E+01  0.31886028954E+02  0.00000000000E+00 0. -1.
         11    1    3    3    0    0 -0.10314475408E+02  0.49228005142E+01  0.14525151032E+02  0.18482488485E+02  0.51100000000E-03 0. -1.
        -11    1    3    3    0    0 -0.17852188145E+02 -0.15864136189E+02 -0.10166758682E+02  0.25956394606E+02  0.51100000000E-03 0.  1.
        -12    1    3    3    0    0 -0.34823283566E+01  0.11964291975E+02 -0.81018818970E+01  0.14863087954E+02  0.00000000000E+00 0.  1.
</event>
<event>
 7    1  0.7457761E-012  0.5930196E+02  0.7816164E-02  0.1266605E+00
        -11   -1    0    0    0    0  0.00000000000E+00  0.00000000000E+00  0.45593999997E+02  0.45594000000E+02  0.51100000000E-03 0.  1.
         11   -1    0    0    0    0 -0.00000000000E+00 -0.00000000000E+00 -0.45593999997E+02  0.45594000000E+02  0.51100000000E-03 0. -1.
    9900012    2    1    2    0    0 -0.48415997878E+01 -0.29679521731E+02 -0.10602110277E+02  0.59301955388E+02  0.50000020718E+02 0.  0.
         12    1    1    2    0    0  0.48415997878E+01  0.29679521731E+02  0.10602110277E+02  0.31886044612E+02  0.00000000000E+00 0. -1.
         11    1    3    3    0    0 -0.18553618674E+01 -0.31487972015E+02 -0.16312323891E+02  0.35510937193E+02  0.51100000000E-03 0. -1.
        -11    1    3    3    0    0 -0.54162874818E+01  0.10168925483E+02 -0.25382331905E+01  0.11797705012E+02  0.51100000000E-03 0.  1.
        -12    1    3    3    0    0  0.24300495614E+01 -0.83604751984E+01  0.82484468050E+01  0.11993313183E+02  0.00000000000E+00 0.  1.
</event>
<event>
 7    1  0.7457761E-012  0.5930195E+02  0.7816164E-02  0.1266605E+00
        -11   -1    0    0    0    0  0.00000000000E+00  0.00000000000E+00  0.45593999997E+02  0.45594000000E+02  0.51100000000E-03 0.  1.
         11   -1    0    0    0    0 -0.00000000000E+00 -0.00000000000E+00 -0.45593999997E+02  0.45594000000E+02  0.51100000000E-03 0. -1.
    9900012    2    1    2    0    0 -0.22963448212E+02  0.34448302651E+01  0.21852539239E+02  0.59301948496E+02  0.50000008149E+02 0.  0.
         12    1    1    2    0    0  0.22963448212E+02 -0.34448302651E+01 -0.21852539239E+02  0.31886051504E+02  0.00000000000E+00 0. -1.
         11    1    3    3    0    0  0.59292483913E+00  0.90261594009E+00 -0.52696945485E+01  0.53792152119E+01  0.51100000000E-03 0. -1.
        -11    1    3    3    0    0 -0.34382481373E+02 -0.27128073197E+01  0.21482453939E+02  0.40632624533E+02  0.51100000000E-03 0.  1.
        -12    1    3    3    0    0  0.10826108322E+02  0.52550216446E+01  0.56397798486E+01  0.13290108751E+02  0.00000000000E+00 0.  1.
</event>
<event>
 7    1  0.7457761E-012  0.5930215E+02  0.7816164E-02  0.1266604E+00
        -11   -1    0    0    0    0  0.00000000000E+00  0.00000000000E+00  0.45593999997E+02  0.45594000000E+02  0.51100000000E-03 0. -1.
         11   -1    0    0    0    0 -0.00000000000E+00 -0.00000000000E+00 -0.45593999997E+02  0.45594000000E+02  0.51100000000E-03 0.  1.
    9900012    2    1    2    0    0  0.16242946991E+01 -0.30167999170E+02  0.10196122619E+02  0.59302150103E+02  0.50000375831E+02 0.  0.
         12    1    1    2    0    0 -0.16242946991E+01  0.30167999170E+02 -0.10196122619E+02  0.31885849897E+02  0.00000000000E+00 0. -1.
         11    1    3    3    0    0  0.75288458310E+01 -0.22085661034E+02 -0.16820734306E+02  0.28764510176E+02  0.51100000000E-03 0. -1.
        -11    1    3    3    0    0 -0.35024299035E+00 -0.81149700034E+01  0.11685779157E+02  0.14231403412E+02  0.51100000000E-03 0.  1.
         12    1    3    3    0    0 -0.55543081415E+01  0.32631866997E-01  0.15331077768E+02  0.16306236515E+02  0.00000000000E+00 0. -1.
</event>
<event>
 7    1  0.7457761E-012  0.5930206E+02  0.7816164E-02  0.1266604E+00
        -11   -1    0    0    0    0  0.00000000000E+00  0.00000000000E+00  0.45593999997E+02  0.45594000000E+02  0.51100000000E-03 0.  1.
         11   -1    0    0    0    0 -0.00000000000E+00 -0.00000000000E+00 -0.45593999997E+02  0.45594000000E+02  0.51100000000E-03 0. -1.
    9900012    2    1    2    0    0 -0.48837888755E+01  0.86325419279E+01  0.30304143464E+02  0.59302058192E+02  0.50000208208E+02 0.  0.
         12    1    1    2    0    0  0.48837888755E+01 -0.86325419279E+01 -0.30304143464E+02  0.31885941808E+02  0.00000000000E+00 0. -1.
         11    1    3    3    0    0  0.72745115987E+01  0.12955883125E+02  0.10232065004E+02  0.18040747797E+02  0.51100000000E-03 0. -1.
        -11    1    3    3    0    0 -0.10091832330E+02  0.51141062391E+01 -0.64578859098E+01  0.13027027791E+02  0.51100000000E-03 0.  1.
        -12    1    3    3    0    0 -0.20664681445E+01 -0.94374474367E+01  0.26529964370E+02  0.28234282604E+02  0.00000000000E+00 0.  1.
</event>
<event>
 7    1  0.7457761E-012  0.5930194E+02  0.7816164E-02  0.1266605E+00
        -11   -1    0    0    0    0  0.00000000000E+00  0.00000000000E+00  0.45593999997E+02  0.45594000000E+02  0.51100000000E-03 0. -1.
         11   -1    0    0    0    0 -0.00000000000E+00 -0.00000000000E+00 -0.45593999997E+02  0.45594000000E+02  0.51100000000E-03 0.  1.
    9900012    2    1    2    0    0  0.20592488294E+02 -0.32604324866E+01 -0.24125500325E+02  0.59301940976E+02  0.49999994435E+02 0.  0.
         12    1    1    2    0    0 -0.20592488294E+02  0.32604324866E+01  0.24125500325E+02  0.31886059024E+02  0.00000000000E+00 0. -1.
         11    1    3    3    0    0  0.56240525883E-01 -0.51819355226E+00  0.18149443522E+00  0.55193119634E+00  0.51100000000E-03 0. -1.
        -11    1    3    3    0    0  0.10417361902E+02  0.19071888475E+02 -0.26880207662E+02  0.34565935879E+02  0.51100000000E-03 0.  1.
        -12    1    3    3    0    0  0.10118885866E+02 -0.21814127409E+02  0.25732129015E+01  0.24184073901E+02  0.00000000000E+00 0.  1.
</event>
<event>
 7    1  0.7457761E-012  0.5930191E+02  0.7816164E-02  0.1266605E+00
        -11   -1    0    0    0    0  0.00000000000E+00  0.00000000000E+00  0.45593999997E+02  0.45594000000E+02  0.51100000000E-03 0.  1.
         11   -1    0    0    0    0 -0.00000000000E+00 -0.00000000000E+00 -0.45593999997E+02  0.45594000000E+02  0.51100000000E-03 0. -1.
    9900012    2    1    2    0    0  0.82850874101E+01  0.52119171266E+01  0.30346600153E+02  0.59301907509E+02  0.49999933398E+02 0.  0.
         12    1    1    2    0    0 -0.82850874101E+01 -0.52119171266E+01 -0.30346600153E+02  0.31886092491E+02  0.00000000000E+00 0. -1.
         11    1    3    3    0    0  0.92241934898E+01 -0.80008916373E+01 -0.86644174209E+01  0.14972379304E+02  0.51100000000E-03 0. -1.
        -11    1    3    3    0    0 -0.80506121024E+01  0.70465823555E+01  0.27187569208E+02  0.29216957368E+02  0.51100000000E-03 0.  1.
        -12    1    3    3    0    0  0.71115060227E+01  0.61662264083E+01  0.11823448366E+02  0.15112570836E+02  0.00000000000E+00 0.  1.
</event>
<event>
 7    1  0.7457761E-012  0.5930197E+02  0.7816164E-02  0.1266605E+00
        -11   -1    0    0    0    0  0.00000000000E+00  0.00000000000E+00  0.45593999997E+02  0.45594000000E+02  0.51100000000E-03 0. -1.
         11   -1    0    0    0    0 -0.00000000000E+00 -0.00000000000E+00 -0.45593999997E+02  0.45594000000E+02  0.51100000000E-03 0.  1.
    9900012    2    1    2    0    0 -0.99462517618E+01 -0.29419085856E+02 -0.72324364557E+01  0.59301973691E+02  0.50000054098E+02 0.  0.
         12    1    1    2    0    0  0.99462517618E+01  0.29419085856E+02  0.72324364557E+01  0.31886026309E+02  0.00000000000E+00 0. -1.
         11    1    3    3    0    0 -0.22683542630E+01  0.19168713304E+01  0.53759907607E+01  0.61417508644E+01  0.51100000000E-03 0. -1.
        -11    1    3    3    0    0  0.43567884985E+01 -0.37753802367E+02 -0.92729409237E+01  0.39119287223E+02  0.51100000000E-03 0.  1.
        -12    1    3    3    0    0 -0.12034685997E+02  0.64178451807E+01 -0.33354862927E+01  0.14040935604E+02  0.00000000000E+00 0.  1.
</event>
<event>
 7    1  0.7457761E-012  0.5930194E+02  0.7816164E-02  0.1266605E+00
        -11   -1    0    0    0    0  0.00000000000E+00  0.00000000000E+00  0.45593999997E+02  0.45594000000E+02  0.51100000000E-03 0. -1.
         11   -1    0    0    0    0 -0.00000000000E+00 -0.00000000000E+00 -0.45593999997E+02  0.45594000000E+02  0.51100000000E-03 0.  1.
    9900012    2    1    2    0    0 -0.59343441892E+00  0.24198383806E+02 -0.20755888313E+02  0.59301939677E+02  0.49999992065E+02 0.  0.
         12    1    1    2    0    0  0.59343441892E+00 -0.24198383806E+02  0.20755888313E+02  0.31886060323E+02  0.00000000000E+00 0. -1.
         11    1    3    3    0    0 -0.79320813742E+01  0.12726827027E+01 -0.27376316320E+02  0.28530691049E+02  0.51100000000E-03 0. -1.
        -11    1    3    3    0    0  0.25104507830E+01  0.21824695085E+02 -0.64565102286E+00  0.21978092369E+02  0.51100000000E-03 0.  1.
         12    1    3    3    0    0  0.48281961723E+01  0.11010060186E+01  0.72660790297E+01  0.87931562591E+01  0.00000000000E+00 0. -1.
</event>
<event>
 7    1  0.7457761E-012  0.5930195E+02  0.7816164E-02  0.1266605E+00
        -11   -1    0    0    0    0  0.00000000000E+00  0.00000000000E+00  0.45593999997E+02  0.45594000000E+02  0.51100000000E-03 0. -1.
         11   -1    0    0    0    0 -0.00000000000E+00 -0.00000000000E+00 -0.45593999997E+02  0.45594000000E+02  0.51100000000E-03 0.  1.
    9900012    2    1    2    0    0  0.21106158231E+02  0.10594362347E+02 -0.21424514367E+02  0.59301949058E+02  0.50000009174E+02 0.  0.
         12    1    1    2    0    0 -0.21106158231E+02 -0.10594362347E+02  0.21424514367E+02  0.31886050942E+02  0.00000000000E+00 0. -1.
         11    1    3    3    0    0 -0.77434618724E+01 -0.23372549882E+01  0.93077267363E+01  0.12331169446E+02  0.51100000000E-03 0. -1.
        -11    1    3    3    0    0  0.19699447008E+02  0.15671985563E+02 -0.17529370368E+02  0.30675041477E+02  0.51100000000E-03 0.  1.
         12    1    3    3    0    0  0.91501730954E+01 -0.27403682272E+01 -0.13202870736E+02  0.16295738135E+02  0.00000000000E+00 0. -1.
</event>
<event>
 7    1  0.7457761E-012  0.5930221E+02  0.7816164E-02  0.1266604E+00
        -11   -1    0    0    0    0  0.00000000000E+00  0.00000000000E+00  0.45593999997E+02  0.45594000000E+02  0.51100000000E-03 0. -1.
         11   -1    0    0    0    0 -0.00000000000E+00 -0.00000000000E+00 -0.45593999997E+02  0.45594000000E+02  0.51100000000E-03 0.  1.
    9900012    2    1    2    0    0 -0.19600973752E+02  0.15078519605E+02 -0.20128184788E+02  0.59302207735E+02  0.50000480936E+02 0.  0.
         12    1    1    2    0    0  0.19600973752E+02 -0.15078519605E+02  0.20128184788E+02  0.31885792265E+02  0.00000000000E+00 0. -1.
         11    1    3    3    0    0 -0.13106706949E+02 -0.53200605546E+01  0.11583320077E+02  0.18282836641E+02  0.51100000000E-03 0. -1.
        -11    1    3    3    0    0 -0.90371917997E+01  0.72402559918E+01 -0.20508277192E+02  0.23551678838E+02  0.51100000000E-03 0.  1.
         12    1    3    3    0    0  0.25429249966E+01  0.13158324168E+02 -0.11203227673E+02  0.17467692256E+02  0.00000000000E+00 0. -1.
</event>
<event>
 7    1  0.7457761E-012  0.5930190E+02  0.7816164E-02  0.1266605E+00
        -11   -1    0    0    0    0  0.00000000000E+00  0.00000000000E+00  0.45593999997E+02  0.45594000000E+02  0.51100000000E-03 0.  1.
         11   -1    0    0    0    0 -0.00000000000E+00 -0.00000000000E+00 -0.45593999997E+02  0.45594000000E+02  0.51100000000E-03 0. -1.
    9900012    2    1    2    0    0  0.24447680846E+02  0.13263532928E+02 -0.15592086400E+02  0.59301897028E+02  0.49999914284E+02 0.  0.
         12    1    1    2    0    0 -0.24447680846E+02 -0.13263532928E+02  0.15592086400E+02  0.31886102972E+02  0.00000000000E+00 0. -1.
         11    1    3    3    0    0  0.54164903399E+01  0.23242481780E+02  0.45383696378E+01  0.24292964540E+02  0.51100000000E-03 0.  1.
        -11    1    3    3    0    0  0.14222159054E+02 -0.15589274599E+02 -0.16434934928E+02  0.26747006880E+02  0.51100000000E-03 0. -1.
         12    1    3    3    0    0  0.48090314518E+01  0.56103257465E+01 -0.36955211095E+01  0.82619256083E+01  0.00000000000E+00 0. -1.
</event>
<event>
 7    1  0.7457761E-012  0.5930197E+02  0.7816164E-02  0.1266605E+00
        -11   -1    0    0    0    0  0.00000000000E+00  0.00000000000E+00  0.45593999997E+02  0.45594000000E+02  0.51100000000E-03 0.  1.
         11   -1    0    0    0    0 -0.00000000000E+00 -0.00000000000E+00 -0.45593999997E+02  0.45594000000E+02  0.51100000000E-03 0. -1.
    9900012    2    1    2    0    0  0.13257590455E+02 -0.27464674325E+02  0.93084420617E+01  0.59301966473E+02  0.50000040935E+02 0.  0.
         12    1    1    2    0    0 -0.13257590455E+02  0.27464674325E+02 -0.93084420617E+01  0.31886033527E+02  0.00000000000E+00 0. -1.
         11    1    3    3    0    0 -0.75400657050E+01 -0.15606854256E+02 -0.15422490718E+02  0.23200855821E+02  0.51100000000E-03 0. -1.
        -11    1    3    3    0    0  0.44326385803E+01  0.19859005985E+01  0.49054948354E+01  0.69033300524E+01  0.51100000000E-03 0.  1.
         12    1    3    3    0    0  0.16365017579E+02 -0.13843720668E+02  0.19825437944E+02  0.29197780600E+02  0.00000000000E+00 0. -1.
</event>
<event>
 7    1  0.7457761E-012  0.5930196E+02  0.7816164E-02  0.1266605E+00
        -11   -1    0    0    0    0  0.00000000000E+00  0.00000000000E+00  0.45593999997E+02  0.45594000000E+02  0.51100000000E-03 0.  1.
         11   -1    0    0    0    0 -0.00000000000E+00 -0.00000000000E+00 -0.45593999997E+02  0.45594000000E+02  0.51100000000E-03 0. -1.
    9900012    2    1    2    0    0  0.13042201580E+02  0.21673475242E+02  0.19413429788E+02  0.59301955917E+02  0.50000021683E+02 0.  0.
         12    1    1    2    0    0 -0.13042201580E+02 -0.21673475242E+02 -0.19413429788E+02  0.31886044083E+02  0.00000000000E+00 0. -1.
         11    1    3    3    0    0  0.17011331451E+02  0.22282362988E+01  0.81215573731E+00  0.17175856076E+02  0.51100000000E-03 0. -1.
        -11    1    3    3    0    0 -0.10414331427E+02  0.46381328583E+01  0.22755256648E+02  0.25451370904E+02  0.51100000000E-03 0.  1.
         12    1    3    3    0    0  0.64452015568E+01  0.14807106085E+02 -0.41539825971E+01  0.16674728937E+02  0.00000000000E+00 0. -1.
</event>
<event>
 7    1  0.7457761E-012  0.5930192E+02  0.7816164E-02  0.1266605E+00
        -11   -1    0    0    0    0  0.00000000000E+00  0.00000000000E+00  0.45593999997E+02  0.45594000000E+02  0.51100000000E-03 0. -1.
         11   -1    0    0    0    0 -0.00000000000E+00 -0.00000000000E+00 -0.45593999997E+02  0.45594000000E+02  0.51100000000E-03 0.  1.
    9900012    2    1    2    0    0  0.20641686035E+02 -0.68117343476E+01 -0.23329019413E+02  0.59301920374E+02  0.49999956861E+02 0.  0.
         12    1    1    2    0    0 -0.20641686035E+02  0.68117343476E+01  0.23329019413E+02  0.31886079626E+02  0.00000000000E+00 0. -1.
         11    1    3    3    0    0 -0.89736862173E+01 -0.49944921466E+01 -0.89016073673E+01  0.13590828161E+02  0.51100000000E-03 0. -1.
        -11    1    3    3    0    0  0.33495014918E+02  0.32318212718E+01 -0.18253509569E+02  0.38282519575E+02  0.51100000000E-03 0.  1.
        -12    1    3    3    0    0 -0.38796426661E+01 -0.50490634728E+01  0.38260975242E+01  0.74285726377E+01  0.00000000000E+00 0.  1.
</event>
<event>
 7    1  0.7457761E-012  0.5930197E+02  0.7816164E-02  0.1266605E+00
        -11   -1    0    0    0    0  0.00000000000E+00  0.00000000000E+00  0.45593999997E+02  0.45594000000E+02  0.51100000000E-03 0.  1.
         11   -1    0    0    0    0 -0.00000000000E+00 -0.00000000000E+00 -0.45593999997E+02  0.45594000000E+02  0.51100000000E-03 0. -1.
    9900012    2    1    2    0    0 -0.82642293162E+01 -0.27263738516E+02 -0.14321656435E+02  0.59301972228E+02  0.50000051430E+02 0.  0.
         12    1    1    2    0    0  0.82642293162E+01  0.27263738516E+02  0.14321656435E+02  0.31886027772E+02  0.00000000000E+00 0. -1.
         11    1    3    3    0    0  0.15208292704E+01 -0.27876308874E+02  0.58964512250E+01  0.28533658290E+02  0.51100000000E-03 0.  1.
        -11    1    3    3    0    0 -0.67993014292E+01  0.94906026534E+01 -0.17460667010E+02  0.21004212228E+02  0.51100000000E-03 0. -1.
         12    1    3    3    0    0 -0.29857571575E+01 -0.88780322960E+01 -0.27574406501E+01  0.97641017094E+01  0.00000000000E+00 0. -1.
</event>
<event>
 7    1  0.7457761E-012  0.5930193E+02  0.7816164E-02  0.1266605E+00
        -11   -1    0    0    0    0  0.00000000000E+00  0.00000000000E+00  0.45593999997E+02  0.45594000000E+02  0.51100000000E-03 0. -1.
         11   -1    0    0    0    0 -0.00000000000E+00 -0.00000000000E+00 -0.45593999997E+02  0.45594000000E+02  0.51100000000E-03 0.  1.
    9900012    2    1    2    0    0  0.53789948308E+01 -0.31391619252E+02  0.15343972022E+01  0.59301925933E+02  0.49999967000E+02 0.  0.
         12    1    1    2    0    0 -0.53789948308E+01  0.31391619252E+02 -0.15343972022E+01  0.31886074067E+02  0.00000000000E+00 0. -1.
         11    1    3    3    0    0  0.22674544025E+02 -0.15266824424E+02  0.86699921312E+01  0.28677162317E+02  0.51100000000E-03 0. -1.
        -11    1    3    3    0    0 -0.15536316493E+02 -0.19699414332E+02 -0.36923850358E+01  0.25358977951E+02  0.51100000000E-03 0.  1.
        -12    1    3    3    0    0 -0.17592327012E+01  0.35746195046E+01 -0.34432098933E+01  0.52657856649E+01  0.00000000000E+00 0.  1.
</event>
<event>
 7    1  0.7457761E-012  0.5930201E+02  0.7816164E-02  0.1266605E+00
        -11   -1    0    0    0    0  0.00000000000E+00  0.00000000000E+00  0.45593999997E+02  0.45594000000E+02  0.51100000000E-03 0.  1.
         11   -1    0    0    0    0 -0.00000000000E+00 -0.00000000000E+00 -0.45593999997E+02  0.45594000000E+02  0.51100000000E-03 0. -1.
    9900012    2    1    2    0    0 -0.10180123120E+01 -0.25617557687E+02 -0.18958400836E+02  0.59302006630E+02  0.50000114172E+02 0.  0.
         12    1    1    2    0    0  0.10180123120E+01  0.25617557687E+02  0.18958400836E+02  0.31885993370E+02  0.00000000000E+00 0. -1.
         11    1    3    3    0    0 -0.89344004841E+00  0.55611644981E+01  0.49974171255E+01  0.75298714386E+01  0.51100000000E-03 0. -1.
        -11    1    3    3    0    0  0.14025783086E+02 -0.25040593374E+02 -0.22126001013E+02  0.36239672029E+02  0.51100000000E-03 0.  1.
         12    1    3    3    0    0 -0.14150355350E+02 -0.61381288116E+01 -0.18298169479E+01  0.15532463162E+02  0.00000000000E+00 0. -1.
</event>
<event>
 7    1  0.7457761E-012  0.5930191E+02  0.7816164E-02  0.1266605E+00
        -11   -1    0    0    0    0  0.00000000000E+00  0.00000000000E+00  0.45593999997E+02  0.45594000000E+02  0.51100000000E-03 0. -1.
         11   -1    0    0    0    0 -0.00000000000E+00 -0.00000000000E+00 -0.45593999997E+02  0.45594000000E+02  0.51100000000E-03 0.  1.
    9900012    2    1    2    0    0  0.23887335968E+02 -0.20470599357E+02 -0.52031361345E+01  0.59301907682E+02  0.49999933713E+02 0.  0.
         12    1    1    2    0    0 -0.23887335968E+02  0.20470599357E+02  0.52031361345E+01  0.31886092318E+02  0.00000000000E+00 0. -1.
         11    1    3    3    0    0  0.89400269766E+01 -0.11069671091E+02  0.21505119422E+02  0.25786272744E+02  0.51100000000E-03 0. -1.
        -11    1    3    3    0    0  0.62762784681E+01 -0.92231421214E+01 -0.11593283986E+02  0.16089196868E+02  0.51100000000E-03 0.  1.
         12    1    3    3    0    0  0.86710305238E+01 -0.17778614489E+00 -0.15114971570E+02  0.17426438070E+02  0.00000000000E+00 0. -1.
</event>
<event>
 7    1  0.7545009E-012  0.5930193E+02  0.7816164E-02  0.1266605E+00
        -11   -1    0    0    0    0  0.00000000000E+00  0.00000000000E+00  0.45593999997E+02  0.45594000000E+02  0.51100000000E-03 0.  1.
         11   -1    0    0    0    0 -0.00000000000E+00 -0.00000000000E+00 -0.45593999997E+02  0.45594000000E+02  0.51100000000E-03 0. -1.
    9900012    2    1    2    0    0  0.16070822131E+02  0.13859951882E+02  0.23798150004E+02  0.59301928845E+02  0.49999972309E+02 0.  0.
         12    1    1    2    0    0 -0.16070822131E+02 -0.13859951882E+02 -0.23798150004E+02  0.31886071155E+02  0.00000000000E+00 0. -1.
         11    1    3    3    0    0 -0.73609342907E+01  0.44546089555E+01 -0.58856486485E+01  0.10424382708E+02  0.51100000000E-03 0. -1.
        -11    1    3    3    0    0  0.66127020224E+01 -0.74110311897E+01  0.21571485583E+02  0.23748267344E+02  0.51100000000E-03 0.  1.
        -12    1    3    3    0    0  0.16819054399E+02  0.16816374116E+02  0.81123130701E+01  0.25129278792E+02  0.00000000000E+00 0.  1.
</event>
<event>
 7    1  0.7457761E-012  0.5930206E+02  0.7816164E-02  0.1266604E+00
        -11   -1    0    0    0    0  0.00000000000E+00  0.00000000000E+00  0.45593999997E+02  0.45594000000E+02  0.51100000000E-03 0.  1.
         11   -1    0    0    0    0 -0.00000000000E+00 -0.00000000000E+00 -0.45593999997E+02  0.45594000000E+02  0.51100000000E-03 0. -1.
    9900012    2    1    2    0    0  0.10582068008E+02 -0.15962170325E+02  0.25493966672E+02  0.59302056679E+02  0.50000205449E+02 0.  0.
         12    1    1    2    0    0 -0.10582068008E+02  0.15962170325E+02 -0.25493966672E+02  0.31885943321E+02  0.00000000000E+00 0. -1.
         11    1    3    3    0    0  0.10385633662E+02  0.11471155283E+02 -0.22806363894E+01  0.15641294470E+02  0.51100000000E-03 0. -1.
        -11    1    3    3    0    0  0.56928766878E+01 -0.13856397490E+02  0.36190137521E+01  0.15411225039E+02  0.51100000000E-03 0.  1.
         12    1    3    3    0    0 -0.54964423411E+01 -0.13576928118E+02  0.24155589309E+02  0.28249537171E+02  0.00000000000E+00 0. -1.
</event>
<event>
 7    1  0.7457761E-012  0.5930208E+02  0.7816164E-02  0.1266604E+00
        -11   -1    0    0    0    0  0.00000000000E+00  0.00000000000E+00  0.45593999997E+02  0.45594000000E+02  0.51100000000E-03 0. -1.
         11   -1    0    0    0    0 -0.00000000000E+00 -0.00000000000E+00 -0.45593999997E+02  0.45594000000E+02  0.51100000000E-03 0.  1.
    9900012    2    1    2    0    0 -0.26771777127E+02  0.17174935476E+02  0.22373312754E+01  0.59302076611E+02  0.50000241800E+02 0.  0.
         12    1    1    2    0    0  0.26771777127E+02 -0.17174935476E+02 -0.22373312754E+01  0.31885923389E+02  0.00000000000E+00 0. -1.
         11    1    3    3    0    0 -0.34938623405E+01  0.23529825815E+02  0.75082358823E+01  0.24944606296E+02  0.51100000000E-03 0. -1.
        -11    1    3    3    0    0 -0.24892247586E+02  0.24032210433E+01 -0.31771007616E+01  0.25208995037E+02  0.51100000000E-03 0.  1.
        -12    1    3    3    0    0  0.16143328001E+01 -0.87581113825E+01 -0.20938038453E+01  0.91484752784E+01  0.00000000000E+00 0.  1.
</event>
<event>
 7    1  0.7457761E-012  0.5930194E+02  0.7816164E-02  0.1266605E+00
        -11   -1    0    0    0    0  0.00000000000E+00  0.00000000000E+00  0.45593999997E+02  0.45594000000E+02  0.51100000000E-03 0.  1.
         11   -1    0    0    0    0 -0.00000000000E+00 -0.00000000000E+00 -0.45593999997E+02  0.45594000000E+02  0.51100000000E-03 0. -1.
    9900012    2    1    2    0    0 -0.24014190703E+02  0.12656820029E+02  0.16728545410E+02  0.59301942233E+02  0.49999996727E+02 0.  0.
         12    1    1    2    0    0  0.24014190703E+02 -0.12656820029E+02 -0.16728545410E+02  0.31886057767E+02  0.00000000000E+00 0. -1.
         11    1    3    3    0    0  0.23007153235E+01  0.64856452143E+01 -0.14279437269E+02  0.15851158123E+02  0.51100000000E-03 0. -1.
        -11    1    3    3    0    0 -0.12850640544E+02  0.55464161847E+01  0.25090273025E+02  0.28730184399E+02  0.51100000000E-03 0.  1.
         12    1    3    3    0    0 -0.13464265482E+02  0.62475863050E+00  0.59177096542E+01  0.14720599712E+02  0.00000000000E+00 0. -1.
</event>
<event>
 7    1  0.7457761E-012  0.5930196E+02  0.7816164E-02  0.1266605E+00
        -11   -1    0    0    0    0  0.00000000000E+00  0.00000000000E+00  0.45593999997E+02  0.45594000000E+02  0.51100000000E-03 0. -1.
         11   -1    0    0    0    0 -0.00000000000E+00 -0.00000000000E+00 -0.45593999997E+02  0.45594000000E+02  0.51100000000E-03 0.  1.
    9900012    2    1    2    0    0  0.30680333812E+02  0.67270766560E+01 -0.54938875203E+01  0.59301964761E+02  0.50000037813E+02 0.  0.
         12    1    1    2    0    0 -0.30680333812E+02 -0.67270766560E+01  0.54938875203E+01  0.31886035239E+02  0.00000000000E+00 0. -1.
         11    1    3    3    0    0 -0.59070022173E+01 -0.97633163092E+00  0.10573324689E+02  0.12150765157E+02  0.51100000000E-03 0. -1.
        -11    1    3    3    0    0  0.31267960445E+02  0.11793674428E+01 -0.20724385304E+02  0.37531005908E+02  0.51100000000E-03 0.  1.
        -12    1    3    3    0    0  0.53193755842E+01  0.65240408441E+01  0.46571730943E+01  0.96201936972E+01  0.00000000000E+00 0.  1.
</event>
<event>
 7    1  0.7457761E-012  0.5930192E+02  0.7816164E-02  0.1266605E+00
        -11   -1    0    0    0    0  0.00000000000E+00  0.00000000000E+00  0.45593999997E+02  0.45594000000E+02  0.51100000000E-03 0.  1.
         11   -1    0    0    0    0 -0.00000000000E+00 -0.00000000000E+00 -0.45593999997E+02  0.45594000000E+02  0.51100000000E-03 0. -1.
    9900012    2    1    2    0    0  0.19110455040E+02 -0.19225031231E+02  0.16790200784E+02  0.59301919024E+02  0.49999954399E+02 0.  0.
         12    1    1    2    0    0 -0.19110455040E+02  0.19225031231E+02 -0.16790200784E+02  0.31886080976E+02  0.00000000000E+00 0. -1.
         11    1    3    3    0    0 -0.69328538742E+01 -0.86200633811E+01  0.23385142805E+02  0.25869574017E+02  0.51100000000E-03 0. -1.
        -11    1    3    3    0    0  0.69991816883E+01 -0.10348064000E+02  0.17937062490E+01  0.12620949062E+02  0.51100000000E-03 0.  1.
         12    1    3    3    0    0  0.19044127226E+02 -0.25690384927E+00 -0.83886482702E+01  0.20811395945E+02  0.00000000000E+00 0. -1.
</event>
<event>
 7    1  0.7457761E-012  0.5930186E+02  0.7816164E-02  0.1266605E+00
        -11   -1    0    0    0    0  0.00000000000E+00  0.00000000000E+00  0.45593999997E+02  0.45594000000E+02  0.51100000000E-03 0.  1.
         11   -1    0    0    0    0 -0.00000000000E+00 -0.00000000000E+00 -0.45593999997E+02  0.45594000000E+02  0.51100000000E-03 0. -1.
    9900012    2    1    2    0    0 -0.16068771817E+01 -0.85646937245E+01  0.30672296570E+02  0.59301861793E+02  0.49999850023E+02 0.  0.
         12    1    1    2    0    0  0.16068771817E+01  0.85646937245E+01 -0.30672296570E+02  0.31886138207E+02  0.00000000000E+00 0. -1.
         11    1    3    3    0    0  0.11630299910E+02  0.13759338302E+02 -0.31349679568E+00  0.18018921916E+02  0.51100000000E-03 0. -1.
        -11    1    3    3    0    0 -0.41166886935E+01 -0.36522181955E+01  0.11711556958E+02  0.12940107812E+02  0.51100000000E-03 0.  1.
         12    1    3    3    0    0 -0.91204883983E+01 -0.18671813831E+02  0.19274236408E+02  0.28342832065E+02  0.00000000000E+00 0. -1.
</event>
<event>
 7    1  0.7457761E-012  0.5930173E+02  0.7816164E-02  0.1266605E+00
        -11   -1    0    0    0    0  0.00000000000E+00  0.00000000000E+00  0.45593999997E+02  0.45594000000E+02  0.51100000000E-03 0. -1.
         11   -1    0    0    0    0 -0.00000000000E+00 -0.00000000000E+00 -0.45593999997E+02  0.45594000000E+02  0.51100000000E-03 0.  1.
    9900012    2    1    2    0    0 -0.23494913400E+02  0.21550534186E+02  0.54541012881E+00  0.59301734123E+02  0.49999617183E+02 0.  0.
         12    1    1    2    0    0  0.23494913400E+02 -0.21550534186E+02 -0.54541012881E+00  0.31886265877E+02  0.00000000000E+00 0. -1.
         11    1    3    3    0    0 -0.11265955421E+02  0.13665794414E+02  0.23280854785E+02  0.29251904011E+02  0.51100000000E-03 0. -1.
        -11    1    3    3    0    0 -0.68499007016E+01  0.51176724833E+01 -0.22417051710E+02  0.23992413778E+02  0.51100000000E-03 0.  1.
         12    1    3    3    0    0 -0.53790572772E+01  0.27670672882E+01 -0.31839294568E+00  0.60574163335E+01  0.00000000000E+00 0. -1.
</event>
<event>
 7    1  0.7457761E-012  0.5930193E+02  0.7816164E-02  0.1266605E+00
        -11   -1    0    0    0    0  0.00000000000E+00  0.00000000000E+00  0.45593999997E+02  0.45594000000E+02  0.51100000000E-03 0. -1.
         11   -1    0    0    0    0 -0.00000000000E+00 -0.00000000000E+00 -0.45593999997E+02  0.45594000000E+02  0.51100000000E-03 0.  1.
    9900012    2    1    2    0    0  0.12037167851E+02 -0.23280215073E+02 -0.18162044688E+02  0.59301926379E+02  0.49999967814E+02 0.  0.
         12    1    1    2    0    0 -0.12037167851E+02  0.23280215073E+02  0.18162044688E+02  0.31886073621E+02  0.00000000000E+00 0. -1.
         11    1    3    3    0    0  0.39600822914E+01  0.84609079835E+01 -0.49322840331E+01  0.10563931167E+02  0.51100000000E-03 0. -1.
        -11    1    3    3    0    0  0.58634447473E+01 -0.29127105241E+02 -0.23519087460E+02  0.37893478585E+02  0.51100000000E-03 0.  1.
        -12    1    3    3    0    0  0.22136408121E+01 -0.26140178148E+01  0.10289326805E+02  0.10844516628E+02  0.00000000000E+00 0.  1.
</event>
<event>
 7    1  0.7457761E-012  0.5930194E+02  0.7816164E-02  0.1266605E+00
        -11   -1    0    0    0    0  0.00000000000E+00  0.00000000000E+00  0.45593999997E+02  0.45594000000E+02  0.51100000000E-03 0.  1.
         11   -1    0    0    0    0 -0.00000000000E+00 -0.00000000000E+00 -0.45593999997E+02  0.45594000000E+02  0.51100000000E-03 0. -1.
    9900012    2    1    2    0    0 -0.19140512772E+02 -0.25483358744E+02  0.97976581058E+00  0.59301941242E+02  0.49999994920E+02 0.  0.
         12    1    1    2    0    0  0.19140512772E+02  0.25483358744E+02 -0.97976581058E+00  0.31886058758E+02  0.00000000000E+00 0. -1.
         11    1    3    3    0    0  0.66286122926E+01 -0.27176897053E+02  0.33166983290E+01  0.28169535360E+02  0.51100000000E-03 0. -1.
        -11    1    3    3    0    0 -0.24835662102E+02 -0.25310669535E+01  0.19517600508E+01  0.25040482813E+02  0.51100000000E-03 0.  1.
         12    1    3    3    0    0 -0.93346296279E+00  0.42246052623E+01 -0.42886925692E+01  0.60919230690E+01  0.00000000000E+00 0. -1.
</event>
<event>
 7    1  0.7457761E-012  0.5930195E+02  0.7816164E-02  0.1266605E+00
        -11   -1    0    0    0    0  0.00000000000E+00  0.00000000000E+00  0.45593999997E+02  0.45594000000E+02  0.51100000000E-03 0.  1.
         11   -1    0    0    0    0 -0.00000000000E+00 -0.00000000000E+00 -0.45593999997E+02  0.45594000000E+02  0.51100000000E-03 0. -1.
    9900012    2    1    2    0    0 -0.10809308488E+02 -0.21694035346E+02  0.20718303907E+02  0.59301946052E+02  0.50000003692E+02 0.  0.
         12    1    1    2    0    0  0.10809308488E+02  0.21694035346E+02 -0.20718303907E+02  0.31886053948E+02  0.00000000000E+00 0. -1.
         11    1    3    3    0    0 -0.74709593102E+01  0.42277313613E+01 -0.79756887436E+01  0.11717532021E+02  0.51100000000E-03 0. -1.
        -11    1    3    3    0    0  0.10476099459E+02 -0.17737380118E+02  0.98702462550E+01  0.22842615322E+02  0.51100000000E-03 0.  1.
        -12    1    3    3    0    0 -0.13814448637E+02 -0.81843865893E+01  0.18823746395E+02  0.24741798709E+02  0.00000000000E+00 0.  1.
</event>
<event>
 7    1  0.7457761E-012  0.5930194E+02  0.7816164E-02  0.1266605E+00
        -11   -1    0    0    0    0  0.00000000000E+00  0.00000000000E+00  0.45593999997E+02  0.45594000000E+02  0.51100000000E-03 0. -1.
         11   -1    0    0    0    0 -0.00000000000E+00 -0.00000000000E+00 -0.45593999997E+02  0.45594000000E+02  0.51100000000E-03 0.  1.
    9900012    2    1    2    0    0  0.21533301006E+02 -0.21145131710E+02 -0.10291793195E+02  0.59301942633E+02  0.49999997456E+02 0.  0.
         12    1    1    2    0    0 -0.21533301006E+02  0.21145131710E+02  0.10291793195E+02  0.31886057367E+02  0.00000000000E+00 0. -1.
         11    1    3    3    0    0 -0.11030109413E+01 -0.10067730777E+02  0.95749532847E+01  0.13937559571E+02  0.51100000000E-03 0. -1.
        -11    1    3    3    0    0  0.23602324600E+02 -0.32562964937E+01 -0.26083170111E+02  0.35327113619E+02  0.51100000000E-03 0.  1.
         12    1    3    3    0    0 -0.96601265294E+00 -0.78211044391E+01  0.62164236313E+01  0.10037269442E+02  0.00000000000E+00 0. -1.
</event>
<event>
 7    1  0.7457761E-012  0.5930192E+02  0.7816164E-02  0.1266605E+00
        -11   -1    0    0    0    0  0.00000000000E+00  0.00000000000E+00  0.45593999997E+02  0.45594000000E+02  0.51100000000E-03 0.  1.
         11   -1    0    0    0    0 -0.00000000000E+00 -0.00000000000E+00 -0.45593999997E+02  0.45594000000E+02  0.51100000000E-03 0. -1.
    9900012    2    1    2    0    0  0.15773004082E+02  0.15116990015E+02  0.23225229499E+02  0.59301916356E+02  0.49999949533E+02 0.  0.
         12    1    1    2    0    0 -0.15773004082E+02 -0.15116990015E+02 -0.23225229499E+02  0.31886083644E+02  0.00000000000E+00 0. -1.
         11    1    3    3    0    0  0.97252943647E+01 -0.13109461602E+02  0.23279157481E+02  0.28431646229E+02  0.51100000000E-03 0. -1.
        -11    1    3    3    0    0  0.61408435776E+01  0.64138996108E+01 -0.15179064984E+01  0.90084465066E+01  0.51100000000E-03 0.  1.
         12    1    3    3    0    0 -0.93133860655E-01  0.21812552006E+02  0.14639785161E+01  0.21861823621E+02  0.00000000000E+00 0. -1.
</event>
<event>
 7    1  0.7457761E-012  0.5930196E+02  0.7816164E-02  0.1266605E+00
        -11   -1    0    0    0    0  0.00000000000E+00  0.00000000000E+00  0.45593999997E+02  0.45594000000E+02  0.51100000000E-03 0. -1.
         11   -1    0    0    0    0 -0.00000000000E+00 -0.00000000000E+00 -0.45593999997E+02  0.45594000000E+02  0.51100000000E-03 0.  1.
    9900012    2    1    2    0    0  0.10838744652E+02 -0.29252215374E+02 -0.65991655881E+01  0.59301961106E+02  0.50000031146E+02 0.  0.
         12    1    1    2    0    0 -0.10838744652E+02  0.29252215374E+02  0.65991655881E+01  0.31886038894E+02  0.00000000000E+00 0. -1.
         11    1    3    3    0    0  0.18370800513E+02  0.60315947711E+01  0.16403142887E+01  0.19405078670E+02  0.51100000000E-03 0. -1.
        -11    1    3    3    0    0  0.23325530441E+01 -0.14709522321E+02 -0.83608165130E+01  0.17079640033E+02  0.51100000000E-03 0.  1.
         12    1    3    3    0    0 -0.98646089048E+01 -0.20574287823E+02  0.12133663623E+00  0.22817242403E+02  0.00000000000E+00 0. -1.
</event>
<event>
 7    1  0.7457761E-012  0.5930185E+02  0.7816164E-02  0.1266605E+00
        -11   -1    0    0    0    0  0.00000000000E+00  0.00000000000E+00  0.45593999997E+02  0.45594000000E+02  0.51100000000E-03 0.  1.
         11   -1    0    0    0    0 -0.00000000000E+00 -0.00000000000E+00 -0.45593999997E+02  0.45594000000E+02  0.51100000000E-03 0. -1.
    9900012    2    1    2    0    0 -0.14356237714E+02 -0.14057484311E+02  0.24759087383E+02  0.59301845724E+02  0.49999820718E+02 0.  0.
         12    1    1    2    0    0  0.14356237714E+02  0.14057484311E+02 -0.24759087383E+02  0.31886154276E+02  0.00000000000E+00 0. -1.
         11    1    3    3    0    0  0.68232602250E+01  0.33609512321E+01  0.23448436652E+02  0.24651207981E+02  0.51100000000E-03 0. -1.
        -11    1    3    3    0    0 -0.24858929628E+02 -0.18218543684E+02  0.64543424307E+00  0.30826908730E+02  0.51100000000E-03 0.  1.
         12    1    3    3    0    0  0.36794316888E+01  0.80010814107E+00  0.66521648873E+00  0.38237290132E+01  0.00000000000E+00 0. -1.
</event>
<event>
 7    1  0.7457761E-012  0.5930195E+02  0.7816164E-02  0.1266605E+00
        -11   -1    0    0    0    0  0.00000000000E+00  0.00000000000E+00  0.45593999997E+02  0.45594000000E+02  0.51100000000E-03 0.  1.
         11   -1    0    0    0    0 -0.00000000000E+00 -0.00000000000E+00 -0.45593999997E+02  0.45594000000E+02  0.51100000000E-03 0. -1.
    9900012    2    1    2    0    0 -0.22335620174E+02  0.62101199586E+01 -0.21892348184E+02  0.59301946192E+02  0.50000003947E+02 0.  0.
         12    1    1    2    0    0  0.22335620174E+02 -0.62101199586E+01  0.21892348184E+02  0.31886053808E+02  0.00000000000E+00 0. -1.
         11    1    3    3    0    0  0.94702940739E+00  0.42144521502E+01  0.14660768146E+02  0.15283867132E+02  0.51100000000E-03 0. -1.
        -11    1    3    3    0    0 -0.11954249268E+02  0.47291748037E+01 -0.18391283517E+02  0.22438994620E+02  0.51100000000E-03 0.  1.
         12    1    3    3    0    0 -0.11328400313E+02 -0.27335069953E+01 -0.18161832812E+02  0.21579084440E+02  0.00000000000E+00 0. -1.
</event>
<event>
 7    1  0.7457761E-012  0.5930191E+02  0.7816164E-02  0.1266605E+00
        -11   -1    0    0    0    0  0.00000000000E+00  0.00000000000E+00  0.45593999997E+02  0.45594000000E+02  0.51100000000E-03 0. -1.
         11   -1    0    0    0    0 -0.00000000000E+00 -0.00000000000E+00 -0.45593999997E+02  0.45594000000E+02  0.51100000000E-03 0.  1.
    9900012    2    1    2    0    0  0.83231934137E+01 -0.24754573849E+02 -0.18293661872E+02  0.59301913070E+02  0.49999943540E+02 0.  0.
         12    1    1    2    0    0 -0.83231934137E+01  0.24754573849E+02  0.18293661872E+02  0.31886086930E+02  0.00000000000E+00 0. -1.
         11    1    3    3    0    0 -0.13539513142E+00 -0.25368051858E+02  0.39867087590E+01  0.25679763120E+02  0.51100000000E-03 0. -1.
        -11    1    3    3    0    0  0.13650888616E+02  0.14272503533E+01 -0.24367588358E+02  0.27967180162E+02  0.51100000000E-03 0.  1.
        -12    1    3    3    0    0 -0.51923000710E+01 -0.81377234464E+00  0.20872177274E+01  0.56549697875E+01  0.00000000000E+00 0.  1.
</event>
<event>
 7    1  0.7457761E-012  0.5930174E+02  0.7816164E-02  0.1266605E+00
        -11   -1    0    0    0    0  0.00000000000E+00  0.00000000000E+00  0.45593999997E+02  0.45594000000E+02  0.51100000000E-03 0.  1.
         11   -1    0    0    0    0 -0.00000000000E+00 -0.00000000000E+00 -0.45593999997E+02  0.45594000000E+02  0.51100000000E-03 0. -1.
    9900012    2    1    2    0    0  0.28553190015E+02  0.13965113254E+02  0.25346681560E+01  0.59301739779E+02  0.49999627498E+02 0.  0.
         12    1    1    2    0    0 -0.28553190015E+02 -0.13965113254E+02 -0.25346681560E+01  0.31886260221E+02  0.00000000000E+00 0. -1.
         11    1    3    3    0    0  0.15177697596E+02  0.86897948182E+01 -0.21772271287E+02  0.27926812126E+02  0.51100000000E-03 0. -1.
        -11    1    3    3    0    0  0.10688645312E+02  0.96710185378E+01  0.20039748331E+02  0.24685365129E+02  0.51100000000E-03 0.  1.
        -12    1    3    3    0    0  0.26868471074E+01 -0.43957001021E+01  0.42671911121E+01  0.66895625233E+01  0.00000000000E+00 0.  1.
</event>
<event>
 7    1  0.7457761E-012  0.5930195E+02  0.7816164E-02  0.1266605E+00
        -11   -1    0    0    0    0  0.00000000000E+00  0.00000000000E+00  0.45593999997E+02  0.45594000000E+02  0.51100000000E-03 0. -1.
         11   -1    0    0    0    0 -0.00000000000E+00 -0.00000000000E+00 -0.45593999997E+02  0.45594000000E+02  0.51100000000E-03 0.  1.
    9900012    2    1    2    0    0  0.12471260296E+02  0.18988048464E+02 -0.22375021895E+02  0.59301954108E+02  0.50000018384E+02 0.  0.
         12    1    1    2    0    0 -0.12471260296E+02 -0.18988048464E+02  0.22375021895E+02  0.31886045892E+02  0.00000000000E+00 0. -1.
         11    1    3    3    0    0  0.19302702239E+01 -0.10734929235E+02 -0.34184230122E+01  0.11430234685E+02  0.51100000000E-03 0. -1.
        -11    1    3    3    0    0  0.17988719246E+01  0.16930566101E+02 -0.25817781303E+02  0.30926329242E+02  0.51100000000E-03 0.  1.
         12    1    3    3    0    0  0.87421181474E+01  0.12792411597E+02  0.68611824206E+01  0.16945390181E+02  0.00000000000E+00 0. -1.
</event>
<event>
 7    1  0.7457761E-012  0.5930193E+02  0.7816164E-02  0.1266605E+00
        -11   -1    0    0    0    0  0.00000000000E+00  0.00000000000E+00  0.45593999997E+02  0.45594000000E+02  0.51100000000E-03 0.  1.
         11   -1    0    0    0    0 -0.00000000000E+00 -0.00000000000E+00 -0.45593999997E+02  0.45594000000E+02  0.51100000000E-03 0. -1.
    9900012    2    1    2    0    0  0.19902496524E+02 -0.15251612432E+02  0.19697719308E+02  0.59301934147E+02  0.49999981980E+02 0.  0.
         12    1    1    2    0    0 -0.19902496524E+02  0.15251612432E+02 -0.19697719308E+02  0.31886065853E+02  0.00000000000E+00 0. -1.
         11    1    3    3    0    0 -0.51984292097E+01 -0.81230328801E+01 -0.10133597043E+02  0.13989178629E+02  0.51100000000E-03 0. -1.
        -11    1    3    3    0    0  0.28052804571E+02 -0.87580279616E+01  0.21765268503E+02  0.36570340597E+02  0.51100000000E-03 0.  1.
         12    1    3    3    0    0 -0.29518788377E+01  0.16294484101E+01  0.80660478472E+01  0.87424149219E+01  0.00000000000E+00 0. -1.
</event>
<event>
 7    1  0.7457761E-012  0.5930189E+02  0.7816164E-02  0.1266605E+00
        -11   -1    0    0    0    0  0.00000000000E+00  0.00000000000E+00  0.45593999997E+02  0.45594000000E+02  0.51100000000E-03 0.  1.
         11   -1    0    0    0    0 -0.00000000000E+00 -0.00000000000E+00 -0.45593999997E+02  0.45594000000E+02  0.51100000000E-03 0. -1.
    9900012    2    1    2    0    0  0.14964894167E+02 -0.15755858347E+02  0.23335137737E+02  0.59301893576E+02  0.49999907988E+02 0.  0.
         12    1    1    2    0    0 -0.14964894167E+02  0.15755858347E+02 -0.23335137737E+02  0.31886106424E+02  0.00000000000E+00 0. -1.
         11    1    3    3    0    0  0.33245173601E+01  0.15789076102E+02 -0.22502709797E+00  0.16136851529E+02  0.51100000000E-03 0. -1.
        -11    1    3    3    0    0  0.68142994483E+01 -0.44252292526E+01  0.85507044842E+01  0.11795417684E+02  0.51100000000E-03 0.  1.
         12    1    3    3    0    0  0.48260773587E+01 -0.27119705196E+02  0.15009460351E+02  0.31369624362E+02  0.00000000000E+00 0. -1.
</event>
<event>
 7    1  0.7457761E-012  0.5930197E+02  0.7816164E-02  0.1266605E+00
        -11   -1    0    0    0    0  0.00000000000E+00  0.00000000000E+00  0.45593999997E+02  0.45594000000E+02  0.51100000000E-03 0.  1.
         11   -1    0    0    0    0 -0.00000000000E+00 -0.00000000000E+00 -0.45593999997E+02  0.45594000000E+02  0.51100000000E-03 0. -1.
    9900012    2    1    2    0    0  0.49452436793E+01  0.32647450957E+01  0.31330577275E+02  0.59301967510E+02  0.50000042826E+02 0.  0.
         12    1    1    2    0    0 -0.49452436793E+01 -0.32647450957E+01 -0.31330577275E+02  0.31886032490E+02  0.00000000000E+00 0. -1.
         11    1    3    3    0    0 -0.14627171501E+01  0.29867326543E+01 -0.57196687478E+01  0.66162469917E+01  0.51100000000E-03 0. -1.
        -11    1    3    3    0    0 -0.75807617591E+01 -0.14469290629E+02  0.21964433810E+02  0.27372699410E+02  0.51100000000E-03 0.  1.
         12    1    3    3    0    0  0.13988722588E+02  0.14747303070E+02  0.15085812212E+02  0.25313021108E+02  0.00000000000E+00 0. -1.
</event>
<event>
 7    1  0.7457761E-012  0.5930195E+02  0.7816164E-02  0.1266605E+00
        -11   -1    0    0    0    0  0.00000000000E+00  0.00000000000E+00  0.45593999997E+02  0.45594000000E+02  0.51100000000E-03 0. -1.
         11   -1    0    0    0    0 -0.00000000000E+00 -0.00000000000E+00 -0.45593999997E+02  0.45594000000E+02  0.51100000000E-03 0.  1.
    9900012    2    1    2    0    0  0.19960125146E+01  0.19328566578E+01 -0.31764766617E+02  0.59301946637E+02  0.50000004759E+02 0.  0.
         12    1    1    2    0    0 -0.19960125146E+01 -0.19328566578E+01  0.31764766617E+02  0.31886053363E+02  0.00000000000E+00 0. -1.
         11    1    3    3    0    0 -0.37950348732E+01 -0.16323258534E+02 -0.14920384428E+02  0.22438113348E+02  0.51100000000E-03 0. -1.
        -11    1    3    3    0    0  0.14925352310E+02  0.11922859532E+02 -0.17253644380E+02  0.25741192002E+02  0.51100000000E-03 0.  1.
         12    1    3    3    0    0 -0.91343049224E+01  0.63332556598E+01  0.40926219161E+00  0.11122641287E+02  0.00000000000E+00 0. -1.
</event>
<event>
 7    1  0.7457761E-012  0.5930192E+02  0.7816164E-02  0.1266605E+00
        -11   -1    0    0    0    0  0.00000000000E+00  0.00000000000E+00  0.45593999997E+02  0.45594000000E+02  0.51100000000E-03 0.  1.
         11   -1    0    0    0    0 -0.00000000000E+00 -0.00000000000E+00 -0.45593999997E+02  0.45594000000E+02  0.51100000000E-03 0. -1.
    9900012    2    1    2    0    0 -0.16068571429E+02 -0.16316363144E+01  0.27492925299E+02  0.59301918925E+02  0.49999954219E+02 0.  0.
         12    1    1    2    0    0  0.16068571429E+02  0.16316363144E+01 -0.27492925299E+02  0.31886081075E+02  0.00000000000E+00 0. -1.
         11    1    3    3    0    0 -0.20798020673E+00 -0.55093484118E+01 -0.97066704308E+01  0.11163136961E+02  0.51100000000E-03 0. -1.
        -11    1    3    3    0    0 -0.20024115305E+02  0.93626451140E+01  0.33979810244E+02  0.40537042588E+02  0.51100000000E-03 0.  1.
        -12    1    3    3    0    0  0.41635240823E+01 -0.54849330165E+01  0.32197854854E+01  0.76017393767E+01  0.00000000000E+00 0.  1.
</event>
<event>
 7    1  0.7457761E-012  0.5930195E+02  0.7816164E-02  0.1266605E+00
        -11   -1    0    0    0    0  0.00000000000E+00  0.00000000000E+00  0.45593999997E+02  0.45594000000E+02  0.51100000000E-03 0.  1.
         11   -1    0    0    0    0 -0.00000000000E+00 -0.00000000000E+00 -0.45593999997E+02  0.45594000000E+02  0.51100000000E-03 0. -1.
    9900012    2    1    2    0    0  0.13765366103E+02  0.28471023628E+02  0.40786805848E+01  0.59301950924E+02  0.50000012577E+02 0.  0.
         12    1    1    2    0    0 -0.13765366103E+02 -0.28471023628E+02 -0.40786805848E+01  0.31886049076E+02  0.00000000000E+00 0. -1.
         11    1    3    3    0    0 -0.43617344272E+00 -0.58280090139E+01  0.13450356873E+02  0.14665198144E+02  0.51100000000E-03 0. -1.
        -11    1    3    3    0    0 -0.24350878793E+01  0.18978705140E+02 -0.10806729402E+02  0.21975129178E+02  0.51100000000E-03 0.  1.
         12    1    3    3    0    0  0.16636627425E+02  0.15320327501E+02  0.14350531139E+01  0.22661623602E+02  0.00000000000E+00 0. -1.
</event>
<event>
 7    1  0.7457761E-012  0.5930184E+02  0.7816164E-02  0.1266605E+00
        -11   -1    0    0    0    0  0.00000000000E+00  0.00000000000E+00  0.45593999997E+02  0.45594000000E+02  0.51100000000E-03 0. -1.
         11   -1    0    0    0    0 -0.00000000000E+00 -0.00000000000E+00 -0.45593999997E+02  0.45594000000E+02  0.51100000000E-03 0.  1.
    9900012    2    1    2    0    0 -0.52423992918E+01 -0.65354267384E+01 -0.30765766505E+02  0.59301844044E+02  0.49999817654E+02 0.  0.
         12    1    1    2    0    0  0.52423992918E+01  0.65354267384E+01  0.30765766505E+02  0.31886155956E+02  0.00000000000E+00 0. -1.
         11    1    3    3    0    0 -0.45080607116E-02  0.74470153172E+01  0.87353625003E+01  0.11478876937E+02  0.51100000000E-03 0. -1.
        -11    1    3    3    0    0 -0.21631547799E+00 -0.29842531874E+01 -0.34676806623E+02  0.34805652950E+02  0.51100000000E-03 0.  1.
        -12    1    3    3    0    0 -0.50215757531E+01 -0.10998188868E+02 -0.48243223827E+01  0.13017314158E+02  0.00000000000E+00 0.  1.
</event>
<event>
 7    1  0.7457761E-012  0.5930194E+02  0.7816164E-02  0.1266605E+00
        -11   -1    0    0    0    0  0.00000000000E+00  0.00000000000E+00  0.45593999997E+02  0.45594000000E+02  0.51100000000E-03 0.  1.
         11   -1    0    0    0    0 -0.00000000000E+00 -0.00000000000E+00 -0.45593999997E+02  0.45594000000E+02  0.51100000000E-03 0. -1.
    9900012    2    1    2    0    0 -0.29172009163E+02  0.70249789317E+01 -0.10787232757E+02  0.59301939752E+02  0.49999992201E+02 0.  0.
         12    1    1    2    0    0  0.29172009163E+02 -0.70249789317E+01  0.10787232757E+02  0.31886060248E+02  0.00000000000E+00 0. -1.
         11    1    3    3    0    0  0.20288172459E+01  0.32060877476E+01 -0.15481657225E+02  0.15939786973E+02  0.51100000000E-03 0. -1.
        -11    1    3    3    0    0 -0.30855632665E+02  0.83937527996E+01 -0.52550275449E+01  0.32405870888E+02  0.51100000000E-03 0.  1.
        -12    1    3    3    0    0 -0.34519374397E+00 -0.45748616155E+01  0.99494520124E+01  0.10956281891E+02  0.00000000000E+00 0.  1.
</event>
<event>
 7    1  0.7457761E-012  0.5930197E+02  0.7816164E-02  0.1266605E+00
        -11   -1    0    0    0    0  0.00000000000E+00  0.00000000000E+00  0.45593999997E+02  0.45594000000E+02  0.51100000000E-03 0.  1.
         11   -1    0    0    0    0 -0.00000000000E+00 -0.00000000000E+00 -0.45593999997E+02  0.45594000000E+02  0.51100000000E-03 0. -1.
    9900012    2    1    2    0    0 -0.53379475800E+01 -0.85378025241E+01  0.30254443388E+02  0.59301966992E+02  0.50000041880E+02 0.  0.
         12    1    1    2    0    0  0.53379475800E+01  0.85378025241E+01 -0.30254443388E+02  0.31886033008E+02  0.00000000000E+00 0. -1.
         11    1    3    3    0    0  0.10845715397E+02 -0.49513355872E+01  0.19867521205E+01  0.12086871010E+02  0.51100000000E-03 0.  1.
        -11    1    3    3    0    0 -0.17420696863E+02  0.12488266728E+02  0.13362763530E+02  0.25258680379E+02  0.51100000000E-03 0. -1.
        -12    1    3    3    0    0  0.12370338866E+01 -0.16074733665E+02  0.14904927737E+02  0.21956415602E+02  0.00000000000E+00 0.  1.
</event>
<event>
 7    1  0.7457761E-012  0.5930195E+02  0.7816164E-02  0.1266605E+00
        -11   -1    0    0    0    0  0.00000000000E+00  0.00000000000E+00  0.45593999997E+02  0.45594000000E+02  0.51100000000E-03 0. -1.
         11   -1    0    0    0    0 -0.00000000000E+00 -0.00000000000E+00 -0.45593999997E+02  0.45594000000E+02  0.51100000000E-03 0.  1.
    9900012    2    1    2    0    0  0.23710365935E+02  0.21037711660E+02 -0.34573671698E+01  0.59301950505E+02  0.50000011813E+02 0.  0.
         12    1    1    2    0    0 -0.23710365935E+02 -0.21037711660E+02  0.34573671698E+01  0.31886049495E+02  0.00000000000E+00 0. -1.
         11    1    3    3    0    0 -0.34877810498E+01  0.85815808104E+01  0.14489470612E+02  0.17197467975E+02  0.51100000000E-03 0. -1.
        -11    1    3    3    0    0  0.29978183542E+02  0.79578643332E+01 -0.10056456726E+02  0.32606002750E+02  0.51100000000E-03 0.  1.
        -12    1    3    3    0    0 -0.27800365573E+01  0.44982665167E+01 -0.78903810563E+01  0.94984797799E+01  0.00000000000E+00 0.  1.
</event>
<event>
 7    1  0.7457761E-012  0.5930192E+02  0.7816164E-02  0.1266605E+00
        -11   -1    0    0    0    0  0.00000000000E+00  0.00000000000E+00  0.45593999997E+02  0.45594000000E+02  0.51100000000E-03 0. -1.
         11   -1    0    0    0    0 -0.00000000000E+00 -0.00000000000E+00 -0.45593999997E+02  0.45594000000E+02  0.51100000000E-03 0.  1.
    9900012    2    1    2    0    0  0.59926772874E+01  0.30089715061E+02  0.86843989732E+01  0.59301922802E+02  0.49999961290E+02 0.  0.
         12    1    1    2    0    0 -0.59926772874E+01 -0.30089715061E+02 -0.86843989732E+01  0.31886077198E+02  0.00000000000E+00 0. -1.
         11    1    3    3    0    0 -0.87883518289E+00 -0.15226555877E+01 -0.99942269668E+01  0.10147679747E+02  0.51100000000E-03 0. -1.
        -11    1    3    3    0    0 -0.80577516761E+01  0.17447423200E+02  0.20973438444E+02  0.28446881355E+02  0.51100000000E-03 0.  1.
        -12    1    3    3    0    0  0.14929264146E+02  0.14164947449E+02 -0.22948125042E+01  0.20707361701E+02  0.00000000000E+00 0.  1.
</event>
<event>
 7    1  0.7457761E-012  0.5930195E+02  0.7816164E-02  0.1266605E+00
        -11   -1    0    0    0    0  0.00000000000E+00  0.00000000000E+00  0.45593999997E+02  0.45594000000E+02  0.51100000000E-03 0.  1.
         11   -1    0    0    0    0 -0.00000000000E+00 -0.00000000000E+00 -0.45593999997E+02  0.45594000000E+02  0.51100000000E-03 0. -1.
    9900012    2    1    2    0    0  0.28669107147E+02  0.12371489891E+02  0.64613395013E+01  0.59301947016E+02  0.50000005450E+02 0.  0.
         12    1    1    2    0    0 -0.28669107147E+02 -0.12371489891E+02 -0.64613395013E+01  0.31886052984E+02  0.00000000000E+00 0. -1.
         11    1    3    3    0    0  0.13477231620E+02 -0.12153806749E+02 -0.10940238112E+02  0.21190554519E+02  0.51100000000E-03 0. -1.
        -11    1    3    3    0    0  0.16701698540E+01  0.18163411865E+02  0.56328156418E+01  0.19089987172E+02  0.51100000000E-03 0.  1.
         12    1    3    3    0    0  0.13521705673E+02  0.63618847753E+01  0.11768761971E+02  0.19021405325E+02  0.00000000000E+00 0. -1.
</event>
<event>
 7    1  0.7457761E-012  0.5930194E+02  0.7816164E-02  0.1266605E+00
        -11   -1    0    0    0    0  0.00000000000E+00  0.00000000000E+00  0.45593999997E+02  0.45594000000E+02  0.51100000000E-03 0.  1.
         11   -1    0    0    0    0 -0.00000000000E+00 -0.00000000000E+00 -0.45593999997E+02  0.45594000000E+02  0.51100000000E-03 0. -1.
    9900012    2    1    2    0    0  0.13049669227E+02  0.10944266443E+01  0.29072829691E+02  0.59301936228E+02  0.49999985775E+02 0.  0.
         12    1    1    2    0    0 -0.13049669227E+02 -0.10944266443E+01 -0.29072829691E+02  0.31886063772E+02  0.00000000000E+00 0. -1.
         11    1    3    3    0    0 -0.20669525648E+01  0.11989804009E+02 -0.80131606463E+01  0.14568405433E+02  0.51100000000E-03 0. -1.
        -11    1    3    3    0    0  0.83678028274E+00 -0.10699039805E+02  0.15673216509E+02  0.18995245983E+02  0.51100000000E-03 0.  1.
         12    1    3    3    0    0  0.14279841509E+02 -0.19633755931E+00  0.21412773829E+02  0.25738284811E+02  0.00000000000E+00 0. -1.
</event>
<event>
 7    1  0.7457761E-012  0.5930194E+02  0.7816164E-02  0.1266605E+00
        -11   -1    0    0    0    0  0.00000000000E+00  0.00000000000E+00  0.45593999997E+02  0.45594000000E+02  0.51100000000E-03 0. -1.
         11   -1    0    0    0    0 -0.00000000000E+00 -0.00000000000E+00 -0.45593999997E+02  0.45594000000E+02  0.51100000000E-03 0.  1.
    9900012    2    1    2    0    0  0.24211416166E+02 -0.67013916108E+01 -0.19637191440E+02  0.59301943330E+02  0.49999998727E+02 0.  0.
         12    1    1    2    0    0 -0.24211416166E+02  0.67013916108E+01  0.19637191440E+02  0.31886056670E+02  0.00000000000E+00 0. -1.
         11    1    3    3    0    0  0.45865929233E+01 -0.12281223784E+02  0.10980745483E+01  0.13155647466E+02  0.51100000000E-03 0. -1.
        -11    1    3    3    0    0  0.21694421551E+02  0.13145604889E+02 -0.15432793095E+01  0.25413314731E+02  0.51100000000E-03 0.  1.
        -12    1    3    3    0    0 -0.20695983081E+01 -0.75657727153E+01 -0.19191986679E+02  0.20732981132E+02  0.00000000000E+00 0.  1.
</event>
<event>
 7    1  0.7457761E-012  0.5930193E+02  0.7816164E-02  0.1266605E+00
        -11   -1    0    0    0    0  0.00000000000E+00  0.00000000000E+00  0.45593999997E+02  0.45594000000E+02  0.51100000000E-03 0. -1.
         11   -1    0    0    0    0 -0.00000000000E+00 -0.00000000000E+00 -0.45593999997E+02  0.45594000000E+02  0.51100000000E-03 0.  1.
    9900012    2    1    2    0    0 -0.47459416319E+01 -0.12818331813E+02 -0.28807771902E+02  0.59301932284E+02  0.49999978582E+02 0.  0.
         12    1    1    2    0    0  0.47459416319E+01  0.12818331813E+02  0.28807771902E+02  0.31886067716E+02  0.00000000000E+00 0. -1.
         11    1    3    3    0    0 -0.12473667840E+00  0.41525340828E+01  0.47093226494E+01  0.62798740931E+01  0.51100000000E-03 0. -1.
        -11    1    3    3    0    0  0.63604874749E+01 -0.23641051839E+02 -0.10451767698E+02  0.26619439913E+02  0.51100000000E-03 0.  1.
        -12    1    3    3    0    0 -0.10981692428E+02  0.66701859436E+01 -0.23065326853E+02  0.26402618278E+02  0.00000000000E+00 0.  1.
</event>
<event>
 7    1  0.7457761E-012  0.5930191E+02  0.7816164E-02  0.1266605E+00
        -11   -1    0    0    0    0  0.00000000000E+00  0.00000000000E+00  0.45593999997E+02  0.45594000000E+02  0.51100000000E-03 0. -1.
         11   -1    0    0    0    0 -0.00000000000E+00 -0.00000000000E+00 -0.45593999997E+02  0.45594000000E+02  0.51100000000E-03 0.  1.
    9900012    2    1    2    0    0  0.24067980095E+02 -0.41178413469E+01 -0.20506052579E+02  0.59301914076E+02  0.49999945375E+02 0.  0.
         12    1    1    2    0    0 -0.24067980095E+02  0.41178413469E+01  0.20506052579E+02  0.31886085924E+02  0.00000000000E+00 0. -1.
         11    1    3    3    0    0 -0.53148346756E+01 -0.99560257468E+01  0.23873396256E+01  0.11535567045E+02  0.51100000000E-03 0. -1.
        -11    1    3    3    0    0  0.24045908544E+02  0.95942055390E+01 -0.21016370863E+01  0.25974436978E+02  0.51100000000E-03 0.  1.
        -12    1    3    3    0    0  0.53369062261E+01 -0.37560211391E+01 -0.20791755118E+02  0.21791910053E+02  0.00000000000E+00 0.  1.
</event>
<event>
 7    1  0.7457761E-012  0.5930195E+02  0.7816164E-02  0.1266605E+00
        -11   -1    0    0    0    0  0.00000000000E+00  0.00000000000E+00  0.45593999997E+02  0.45594000000E+02  0.51100000000E-03 0. -1.
         11   -1    0    0    0    0 -0.00000000000E+00 -0.00000000000E+00 -0.45593999997E+02  0.45594000000E+02  0.51100000000E-03 0.  1.
    9900012    2    1    2    0    0  0.29899971718E+02  0.41618727768E+01 -0.10265996898E+02  0.59301949977E+02  0.50000010850E+02 0.  0.
         12    1    1    2    0    0 -0.29899971718E+02 -0.41618727768E+01  0.10265996898E+02  0.31886050023E+02  0.00000000000E+00 0. -1.
         11    1    3    3    0    0  0.47393324115E+01 -0.83928224975E+01 -0.33615573104E+01  0.10207879750E+02  0.51100000000E-03 0. -1.
        -11    1    3    3    0    0  0.28483560843E+02  0.74467821294E+01  0.10025313474E+02  0.31101040383E+02  0.51100000000E-03 0.  1.
        -12    1    3    3    0    0 -0.33229215365E+01  0.51079131448E+01 -0.16929753062E+02  0.17993029844E+02  0.00000000000E+00 0.  1.
</event>
<event>
 7    1  0.7457761E-012  0.5930208E+02  0.7816164E-02  0.1266604E+00
        -11   -1    0    0    0    0  0.00000000000E+00  0.00000000000E+00  0.45593999997E+02  0.45594000000E+02  0.51100000000E-03 0.  1.
         11   -1    0    0    0    0 -0.00000000000E+00 -0.00000000000E+00 -0.45593999997E+02  0.45594000000E+02  0.51100000000E-03 0. -1.
    9900012    2    1    2    0    0 -0.30429329282E+02 -0.16662163622E+01  0.93803717536E+01  0.59302082548E+02  0.50000252627E+02 0.  0.
         12    1    1    2    0    0  0.30429329282E+02  0.16662163622E+01 -0.93803717536E+01  0.31885917452E+02  0.00000000000E+00 0. -1.
         11    1    3    3    0    0 -0.30787113302E+02  0.59474183171E+01 -0.30513892356E+01  0.31504429953E+02  0.51100000000E-03 0. -1.
        -11    1    3    3    0    0 -0.40515709601E+01 -0.15274001479E+02  0.61628006260E+01  0.16961440394E+02  0.51100000000E-03 0.  1.
         12    1    3    3    0    0  0.44093549804E+01  0.76603667993E+01  0.62689603632E+01  0.10836212202E+02  0.00000000000E+00 0. -1.
</event>
<event>
 7    1  0.7457761E-012  0.5930192E+02  0.7816164E-02  0.1266605E+00
        -11   -1    0    0    0    0  0.00000000000E+00  0.00000000000E+00  0.45593999997E+02  0.45594000000E+02  0.51100000000E-03 0.  1.
         11   -1    0    0    0    0 -0.00000000000E+00 -0.00000000000E+00 -0.45593999997E+02  0.45594000000E+02  0.51100000000E-03 0. -1.
    9900012    2    1    2    0    0  0.28360277722E+02 -0.17083174579E+01  0.14474062988E+02  0.59301918391E+02  0.49999953245E+02 0.  0.
         12    1    1    2    0    0 -0.28360277722E+02  0.17083174579E+01 -0.14474062988E+02  0.31886081609E+02  0.00000000000E+00 0. -1.
         11    1    3    3    0    0 -0.33587404436E+01 -0.36308155241E+01  0.30890418295E+01  0.58314782365E+01  0.51100000000E-03 0. -1.
        -11    1    3    3    0    0  0.38653047088E+02  0.11422150986E+02  0.10637969973E+02  0.41685608880E+02  0.51100000000E-03 0.  1.
        -12    1    3    3    0    0 -0.69340289225E+01 -0.94996529195E+01  0.74705118547E+00  0.11784831274E+02  0.00000000000E+00 0.  1.
</event>
<event>
 7    1  0.7457761E-012  0.5930194E+02  0.7816164E-02  0.1266605E+00
        -11   -1    0    0    0    0  0.00000000000E+00  0.00000000000E+00  0.45593999997E+02  0.45594000000E+02  0.51100000000E-03 0.  1.
         11   -1    0    0    0    0 -0.00000000000E+00 -0.00000000000E+00 -0.45593999997E+02  0.45594000000E+02  0.51100000000E-03 0. -1.
    9900012    2    1    2    0    0 -0.79844570518E+01  0.18361660778E+02  0.24815699247E+02  0.59301936116E+02  0.49999985570E+02 0.  0.
         12    1    1    2    0    0  0.79844570518E+01 -0.18361660778E+02 -0.24815699247E+02  0.31886063884E+02  0.00000000000E+00 0. -1.
         11    1    3    3    0    0 -0.23760369212E+02  0.60040631285E+01  0.16643014498E+02  0.29624210555E+02  0.51100000000E-03 0. -1.
        -11    1    3    3    0    0  0.18609241790E+02  0.15423377615E+02  0.81376056013E+01  0.25503040647E+02  0.51100000000E-03 0.  1.
        -12    1    3    3    0    0 -0.28333296294E+01 -0.30657799651E+01  0.35079147355E-01  0.41746849138E+01  0.00000000000E+00 0.  1.
</event>
<event>
 7    1  0.7457761E-012  0.5930202E+02  0.7816164E-02  0.1266605E+00
        -11   -1    0    0    0    0  0.00000000000E+00  0.00000000000E+00  0.45593999997E+02  0.45594000000E+02  0.51100000000E-03 0. -1.
         11   -1    0    0    0    0 -0.00000000000E+00 -0.00000000000E+00 -0.45593999997E+02  0.45594000000E+02  0.51100000000E-03 0.  1.
    9900012    2    1    2    0    0  0.60584330476E+01 -0.27350161227E+02 -0.15230893043E+02  0.59302015100E+02  0.50000129619E+02 0.  0.
         12    1    1    2    0    0 -0.60584330476E+01  0.27350161227E+02  0.15230893043E+02  0.31885984900E+02  0.00000000000E+00 0. -1.
         11    1    3    3    0    0  0.93400066054E+01 -0.37021194899E+02 -0.81431160429E+01  0.39039914629E+02  0.51100000000E-03 0. -1.
        -11    1    3    3    0    0 -0.30857257519E+01  0.65908716889E-01 -0.98040261037E+01  0.10278374165E+02  0.51100000000E-03 0.  1.
         12    1    3    3    0    0 -0.19584780591E+00  0.96051249546E+01  0.27162491032E+01  0.99837263057E+01  0.00000000000E+00 0. -1.
</event>
<event>
 7    1  0.7457761E-012  0.5930194E+02  0.7816164E-02  0.1266605E+00
        -11   -1    0    0    0    0  0.00000000000E+00  0.00000000000E+00  0.45593999997E+02  0.45594000000E+02  0.51100000000E-03 0. -1.
         11   -1    0    0    0    0 -0.00000000000E+00 -0.00000000000E+00 -0.45593999997E+02  0.45594000000E+02  0.51100000000E-03 0.  1.
    9900012    2    1    2    0    0  0.99915539121E+01  0.29650702390E+02  0.61421142603E+01  0.59301939262E+02  0.49999991308E+02 0.  0.
         12    1    1    2    0    0 -0.99915539121E+01 -0.29650702390E+02 -0.61421142603E+01  0.31886060738E+02  0.00000000000E+00 0. -1.
         11    1    3    3    0    0  0.19273498016E+02  0.12445440773E+02 -0.11543663677E+02  0.25682929995E+02  0.51100000000E-03 0. -1.
        -11    1    3    3    0    0 -0.97965170195E+01  0.12374756106E+02  0.53353373357E+00  0.15792118062E+02  0.51100000000E-03 0.  1.
         12    1    3    3    0    0  0.51457291558E+00  0.48305055116E+01  0.17152244203E+02  0.17826891204E+02  0.00000000000E+00 0. -1.
</event>
<event>
 7    1  0.7457761E-012  0.5930194E+02  0.7816164E-02  0.1266605E+00
        -11   -1    0    0    0    0  0.00000000000E+00  0.00000000000E+00  0.45593999997E+02  0.45594000000E+02  0.51100000000E-03 0.  1.
         11   -1    0    0    0    0 -0.00000000000E+00 -0.00000000000E+00 -0.45593999997E+02  0.45594000000E+02  0.51100000000E-03 0. -1.
    9900012    2    1    2    0    0  0.22657854903E+02 -0.22176422398E+02 -0.33983118095E+01  0.59301943136E+02  0.49999998373E+02 0.  0.
         12    1    1    2    0    0 -0.22657854903E+02  0.22176422398E+02  0.33983118095E+01  0.31886056864E+02  0.00000000000E+00 0. -1.
         11    1    3    3    0    0  0.12685278168E+02 -0.27027196430E+02 -0.10348100989E+01  0.29874009795E+02  0.51100000000E-03 0.  1.
        -11    1    3    3    0    0  0.11918998481E+02  0.91329471895E+01  0.87365203353E+01  0.17372392955E+02  0.51100000000E-03 0. -1.
         12    1    3    3    0    0 -0.19464217452E+01 -0.42821731578E+01 -0.11100022046E+02  0.12055540385E+02  0.00000000000E+00 0. -1.
</event>
<event>
 7    1  0.7457761E-012  0.5930172E+02  0.7816164E-02  0.1266606E+00
        -11   -1    0    0    0    0  0.00000000000E+00  0.00000000000E+00  0.45593999997E+02  0.45594000000E+02  0.51100000000E-03 0. -1.
         11   -1    0    0    0    0 -0.00000000000E+00 -0.00000000000E+00 -0.45593999997E+02  0.45594000000E+02  0.51100000000E-03 0.  1.
    9900012    2    1    2    0    0 -0.10299484174E+02  0.88484870833E+01 -0.28850649857E+02  0.59301716192E+02  0.49999584480E+02 0.  0.
         12    1    1    2    0    0  0.10299484174E+02 -0.88484870833E+01  0.28850649857E+02  0.31886283808E+02  0.00000000000E+00 0. -1.
         11    1    3    3    0    0  0.25822457800E+01  0.79040814246E+01  0.32728375363E+01  0.89361044217E+01  0.51100000000E-03 0. -1.
        -11    1    3    3    0    0 -0.11518648757E+02 -0.10604852433E+02 -0.35037499068E+02  0.38376666160E+02  0.51100000000E-03 0.  1.
        -12    1    3    3    0    0 -0.13630811960E+01  0.11549258092E+02  0.29140116745E+01  0.11988945611E+02  0.00000000000E+00 0.  1.
</event>
<event>
 7    1  0.7457761E-012  0.5930196E+02  0.7816164E-02  0.1266605E+00
        -11   -1    0    0    0    0  0.00000000000E+00  0.00000000000E+00  0.45593999997E+02  0.45594000000E+02  0.51100000000E-03 0.  1.
         11   -1    0    0    0    0 -0.00000000000E+00 -0.00000000000E+00 -0.45593999997E+02  0.45594000000E+02  0.51100000000E-03 0. -1.
    9900012    2    1    2    0    0 -0.15666926354E+02 -0.14566860233E+02  0.23644740893E+02  0.59301956496E+02  0.50000022740E+02 0.  0.
         12    1    1    2    0    0  0.15666926354E+02  0.14566860233E+02 -0.23644740893E+02  0.31886043504E+02  0.00000000000E+00 0. -1.
         11    1    3    3    0    0 -0.12740329236E+02  0.14810472093E+02  0.14490688668E+01  0.19589943172E+02  0.51100000000E-03 0. -1.
        -11    1    3    3    0    0 -0.80773200531E+01 -0.19745225865E+02  0.18326039753E+02  0.28124024907E+02  0.51100000000E-03 0.  1.
         12    1    3    3    0    0  0.51507229353E+01 -0.96321064602E+01  0.38696322739E+01  0.11587988417E+02  0.00000000000E+00 0. -1.
</event>
<event>
 7    1  0.7457761E-012  0.5930195E+02  0.7816164E-02  0.1266605E+00
        -11   -1    0    0    0    0  0.00000000000E+00  0.00000000000E+00  0.45593999997E+02  0.45594000000E+02  0.51100000000E-03 0.  1.
         11   -1    0    0    0    0 -0.00000000000E+00 -0.00000000000E+00 -0.45593999997E+02  0.45594000000E+02  0.51100000000E-03 0. -1.
    9900012    2    1    2    0    0  0.15012664390E+02  0.24556789067E+02  0.13722402351E+02  0.59301948071E+02  0.50000007374E+02 0.  0.
         12    1    1    2    0    0 -0.15012664390E+02 -0.24556789067E+02 -0.13722402351E+02  0.31886051929E+02  0.00000000000E+00 0. -1.
         11    1    3    3    0    0  0.12840831877E+02 -0.86388491344E+01 -0.21718029331E+01  0.15627968707E+02  0.51100000000E-03 0. -1.
        -11    1    3    3    0    0  0.78233113325E+01  0.95610417996E+01  0.14896509409E+02  0.19352615155E+02  0.51100000000E-03 0.  1.
         12    1    3    3    0    0 -0.56514788203E+01  0.23634596401E+02  0.99769587519E+00  0.24321364209E+02  0.00000000000E+00 0. -1.
</event>
<event>
 7    1  0.7457761E-012  0.5930192E+02  0.7816164E-02  0.1266605E+00
        -11   -1    0    0    0    0  0.00000000000E+00  0.00000000000E+00  0.45593999997E+02  0.45594000000E+02  0.51100000000E-03 0.  1.
         11   -1    0    0    0    0 -0.00000000000E+00 -0.00000000000E+00 -0.45593999997E+02  0.45594000000E+02  0.51100000000E-03 0. -1.
    9900012    2    1    2    0    0 -0.19415596521E+02  0.12427841112E+02  0.22029645440E+02  0.59301923083E+02  0.49999961801E+02 0.  0.
         12    1    1    2    0    0  0.19415596521E+02 -0.12427841112E+02 -0.22029645440E+02  0.31886076917E+02  0.00000000000E+00 0. -1.
         11    1    3    3    0    0 -0.33149114953E+02  0.19599662473E+02  0.17315586771E+02  0.42223691652E+02  0.51100000000E-03 0. -1.
        -11    1    3    3    0    0  0.80901487429E+00 -0.25680196809E+01  0.66740933386E+00  0.27739260315E+01  0.51100000000E-03 0.  1.
         12    1    3    3    0    0  0.12924503558E+02 -0.46038016804E+01  0.40466493354E+01  0.14304305400E+02  0.00000000000E+00 0. -1.
</event>
<event>
 7    1  0.7457761E-012  0.5930193E+02  0.7816164E-02  0.1266605E+00
        -11   -1    0    0    0    0  0.00000000000E+00  0.00000000000E+00  0.45593999997E+02  0.45594000000E+02  0.51100000000E-03 0.  1.
         11   -1    0    0    0    0 -0.00000000000E+00 -0.00000000000E+00 -0.45593999997E+02  0.45594000000E+02  0.51100000000E-03 0. -1.
    9900012    2    1    2    0    0 -0.21583036984E+01 -0.19964733619E+02  0.24768378455E+02  0.59301930399E+02  0.49999975144E+02 0.  0.
         12    1    1    2    0    0  0.21583036984E+01  0.19964733619E+02 -0.24768378455E+02  0.31886069601E+02  0.00000000000E+00 0. -1.
         11    1    3    3    0    0 -0.11601333306E+00 -0.19313807316E+02 -0.46792438511E+01  0.19872894490E+02  0.51100000000E-03 0. -1.
        -11    1    3    3    0    0 -0.10917199858E+02  0.25015794655E+01  0.27661533556E+02  0.29842982282E+02  0.51100000000E-03 0.  1.
        -12    1    3    3    0    0  0.88749094922E+01 -0.31525057689E+01  0.17860887501E+01  0.95860536270E+01  0.00000000000E+00 0.  1.
</event>
<event>
 7    1  0.7457761E-012  0.5930190E+02  0.7816164E-02  0.1266605E+00
        -11   -1    0    0    0    0  0.00000000000E+00  0.00000000000E+00  0.45593999997E+02  0.45594000000E+02  0.51100000000E-03 0.  1.
         11   -1    0    0    0    0 -0.00000000000E+00 -0.00000000000E+00 -0.45593999997E+02  0.45594000000E+02  0.51100000000E-03 0. -1.
    9900012    2    1    2    0    0  0.19800749069E+02  0.15414754725E+02  0.19673309616E+02  0.59301898981E+02  0.49999917846E+02 0.  0.
         12    1    1    2    0    0 -0.19800749069E+02 -0.15414754725E+02 -0.19673309616E+02  0.31886101019E+02  0.00000000000E+00 0. -1.
         11    1    3    3    0    0  0.41816170119E+01 -0.37021779337E+01 -0.14378012031E+02  0.15424632006E+02  0.51100000000E-03 0. -1.
        -11    1    3    3    0    0  0.59896802354E+01  0.16701165725E+02  0.22019628986E+02  0.28278424052E+02  0.51100000000E-03 0.  1.
         12    1    3    3    0    0  0.96294518221E+01  0.24157669338E+01  0.12031692661E+02  0.15598842924E+02  0.00000000000E+00 0. -1.
</event>
<event>
 7    1  0.7457761E-012  0.5930183E+02  0.7816164E-02  0.1266605E+00
        -11   -1    0    0    0    0  0.00000000000E+00  0.00000000000E+00  0.45593999997E+02  0.45594000000E+02  0.51100000000E-03 0.  1.
         11   -1    0    0    0    0 -0.00000000000E+00 -0.00000000000E+00 -0.45593999997E+02  0.45594000000E+02  0.51100000000E-03 0. -1.
    9900012    2    1    2    0    0  0.67967685088E+01 -0.88993687822E+00  0.31140645688E+02  0.59301829586E+02  0.49999791285E+02 0.  0.
         12    1    1    2    0    0 -0.67967685088E+01  0.88993687822E+00 -0.31140645688E+02  0.31886170414E+02  0.00000000000E+00 0. -1.
         11    1    3    3    0    0  0.26098379334E+01 -0.21015344011E+01  0.27395194027E+01  0.43281251942E+01  0.51100000000E-03 0. -1.
        -11    1    3    3    0    0  0.40366066548E+01  0.15208582431E+02  0.35825546497E+02  0.39128825115E+02  0.51100000000E-03 0.  1.
        -12    1    3    3    0    0  0.15032392052E+00 -0.13996984908E+02 -0.74244202114E+01  0.15844879276E+02  0.00000000000E+00 0.  1.
</event>
<event>
 7    1  0.7457761E-012  0.5930195E+02  0.7816164E-02  0.1266605E+00
        -11   -1    0    0    0    0  0.00000000000E+00  0.00000000000E+00  0.45593999997E+02  0.45594000000E+02  0.51100000000E-03 0. -1.
         11   -1    0    0    0    0 -0.00000000000E+00 -0.00000000000E+00 -0.45593999997E+02  0.45594000000E+02  0.51100000000E-03 0.  1.
    9900012    2    1    2    0    0 -0.17262412327E+02 -0.63262706809E+01 -0.26052014874E+02  0.59301951968E+02  0.50000014482E+02 0.  0.
         12    1    1    2    0    0  0.17262412327E+02  0.63262706809E+01  0.26052014874E+02  0.31886048032E+02  0.00000000000E+00 0. -1.
         11    1    3    3    0    0  0.13763105139E+02 -0.38496647100E+01  0.18528565530E+01  0.14410970096E+02  0.51100000000E-03 0. -1.
        -11    1    3    3    0    0 -0.66939015993E+01  0.91361806866E+00 -0.16453360841E+02  0.17786402104E+02  0.51100000000E-03 0.  1.
         12    1    3    3    0    0 -0.24331615866E+02 -0.33902240395E+01 -0.11451510587E+02  0.27104579768E+02  0.00000000000E+00 0. -1.
</event>
<event>
 7    1  0.7457761E-012  0.5930194E+02  0.7816164E-02  0.1266605E+00
        -11   -1    0    0    0    0  0.00000000000E+00  0.00000000000E+00  0.45593999997E+02  0.45594000000E+02  0.51100000000E-03 0. -1.
         11   -1    0    0    0    0 -0.00000000000E+00 -0.00000000000E+00 -0.45593999997E+02  0.45594000000E+02  0.51100000000E-03 0.  1.
    9900012    2    1    2    0    0 -0.22534431974E+02 -0.47970347603E+01 -0.22043342828E+02  0.59301935177E+02  0.49999983858E+02 0.  0.
         12    1    1    2    0    0  0.22534431974E+02  0.47970347603E+01  0.22043342828E+02  0.31886064823E+02  0.00000000000E+00 0. -1.
         11    1    3    3    0    0 -0.14166768630E+02 -0.51368276793E+01  0.14618214770E+02  0.20994678739E+02  0.51100000000E-03 0. -1.
        -11    1    3    3    0    0 -0.68072612387E+01  0.14333786562E+01 -0.14697331065E+02  0.16260532606E+02  0.51100000000E-03 0.  1.
         12    1    3    3    0    0 -0.15604021049E+01 -0.10935857372E+01 -0.21964226533E+02  0.22046723832E+02  0.00000000000E+00 0. -1.
</event>
<event>
 7    1  0.7457761E-012  0.5930196E+02  0.7816164E-02  0.1266605E+00
        -11   -1    0    0    0    0  0.00000000000E+00  0.00000000000E+00  0.45593999997E+02  0.45594000000E+02  0.51100000000E-03 0. -1.
         11   -1    0    0    0    0 -0.00000000000E+00 -0.00000000000E+00 -0.45593999997E+02  0.45594000000E+02  0.51100000000E-03 0.  1.
    9900012    2    1    2    0    0  0.26122981932E+02  0.16157077784E+02 -0.85591189797E+01  0.59301955008E+02  0.50000020026E+02 0.  0.
         12    1    1    2    0    0 -0.26122981932E+02 -0.16157077784E+02  0.85591189797E+01  0.31886044992E+02  0.00000000000E+00 0. -1.
         11    1    3    3    0    0 -0.40844378025E+01  0.16260370304E+02  0.47489530910E+01  0.17425120668E+02  0.51100000000E-03 0. -1.
        -11    1    3    3    0    0  0.21991121896E+02 -0.40520266064E+01 -0.20445388251E+02  0.30299212248E+02  0.51100000000E-03 0.  1.
         12    1    3    3    0    0  0.82162978378E+01  0.39487340864E+01  0.71373161800E+01  0.11577622092E+02  0.00000000000E+00 0. -1.
</event>
<event>
 7    1  0.7457761E-012  0.5930195E+02  0.7816164E-02  0.1266605E+00
        -11   -1    0    0    0    0  0.00000000000E+00  0.00000000000E+00  0.45593999997E+02  0.45594000000E+02  0.51100000000E-03 0.  1.
         11   -1    0    0    0    0 -0.00000000000E+00 -0.00000000000E+00 -0.45593999997E+02  0.45594000000E+02  0.51100000000E-03 0. -1.
    9900012    2    1    2    0    0 -0.29669944523E+02 -0.33125585432E+01  0.11200078124E+02  0.59301946590E+02  0.50000004673E+02 0.  0.
         12    1    1    2    0    0  0.29669944523E+02  0.33125585432E+01 -0.11200078124E+02  0.31886053410E+02  0.00000000000E+00 0. -1.
         11    1    3    3    0    0 -0.69185775017E+01  0.83033818937E+01  0.94575398001E+01  0.14361682522E+02  0.51100000000E-03 0.  1.
        -11    1    3    3    0    0 -0.10138272504E+02 -0.18431034767E+02 -0.12714976440E+02  0.24579630552E+02  0.51100000000E-03 0. -1.
         12    1    3    3    0    0 -0.12613094517E+02  0.68150943301E+01  0.14457514764E+02  0.20360633516E+02  0.00000000000E+00 0. -1.
</event>
<event>
 7    1  0.7457761E-012  0.5930194E+02  0.7816164E-02  0.1266605E+00
        -11   -1    0    0    0    0  0.00000000000E+00  0.00000000000E+00  0.45593999997E+02  0.45594000000E+02  0.51100000000E-03 0. -1.
         11   -1    0    0    0    0 -0.00000000000E+00 -0.00000000000E+00 -0.45593999997E+02  0.45594000000E+02  0.51100000000E-03 0.  1.
    9900012    2    1    2    0    0  0.10534316350E+02  0.21896928881E+02 -0.20646393334E+02  0.59301939204E+02  0.49999991203E+02 0.  0.
         12    1    1    2    0    0 -0.10534316350E+02 -0.21896928881E+02  0.20646393334E+02  0.31886060796E+02  0.00000000000E+00 0. -1.
         11    1    3    3    0    0  0.93318939186E+01 -0.11531463559E+01 -0.64692190932E+01  0.11413360003E+02  0.51100000000E-03 0. -1.
        -11    1    3    3    0    0 -0.13367349625E+02  0.96259657012E+01  0.78631907688E+01  0.18253082507E+02  0.51100000000E-03 0.  1.
        -12    1    3    3    0    0  0.14569772056E+02  0.13424109535E+02 -0.22040365010E+02  0.29635496694E+02  0.00000000000E+00 0.  1.
</event>
<event>
 7    1  0.7457761E-012  0.5930195E+02  0.7816164E-02  0.1266605E+00
        -11   -1    0    0    0    0  0.00000000000E+00  0.00000000000E+00  0.45593999997E+02  0.45594000000E+02  0.51100000000E-03 0.  1.
         11   -1    0    0    0    0 -0.00000000000E+00 -0.00000000000E+00 -0.45593999997E+02  0.45594000000E+02  0.51100000000E-03 0. -1.
    9900012    2    1    2    0    0 -0.29516935109E+02 -0.10255312392E+02 -0.63481637160E+01  0.59301951749E+02  0.50000014081E+02 0.  0.
         12    1    1    2    0    0  0.29516935109E+02  0.10255312392E+02  0.63481637160E+01  0.31886048251E+02  0.00000000000E+00 0. -1.
         11    1    3    3    0    0 -0.84527676450E+01  0.37499356093E+01 -0.12200150335E+02  0.15308656584E+02  0.51100000000E-03 0. -1.
        -11    1    3    3    0    0 -0.80012816864E+01  0.38537961707E+01  0.17027711611E+02  0.19204562388E+02  0.51100000000E-03 0.  1.
        -12    1    3    3    0    0 -0.13062885778E+02 -0.17859044172E+02 -0.11175724992E+02  0.24788732777E+02  0.00000000000E+00 0.  1.
</event>
<event>
 7    1  0.7457761E-012  0.5930231E+02  0.7816164E-02  0.1266603E+00
        -11   -1    0    0    0    0  0.00000000000E+00  0.00000000000E+00  0.45593999997E+02  0.45594000000E+02  0.51100000000E-03 0.  1.
         11   -1    0    0    0    0 -0.00000000000E+00 -0.00000000000E+00 -0.45593999997E+02  0.45594000000E+02  0.51100000000E-03 0. -1.
    9900012    2    1    2    0    0  0.14913145417E+02 -0.28080572766E+02 -0.24034754815E+01  0.59302310930E+02  0.50000669137E+02 0.  0.
         12    1    1    2    0    0 -0.14913145417E+02  0.28080572766E+02  0.24034754815E+01  0.31885689070E+02  0.00000000000E+00 0. -1.
         11    1    3    3    0    0 -0.69001903780E+01 -0.23403340956E+01 -0.19515230494E+02  0.20831082843E+02  0.51100000000E-03 0. -1.
        -11    1    3    3    0    0  0.43697720226E+01 -0.99692768970E+01  0.64371988255E+01  0.12645905201E+02  0.51100000000E-03 0.  1.
         12    1    3    3    0    0  0.17443563772E+02 -0.15770961774E+02  0.10674556187E+02  0.25825322885E+02  0.00000000000E+00 0. -1.
</event>
<event>
 7    1  0.7457761E-012  0.5930196E+02  0.7816164E-02  0.1266605E+00
        -11   -1    0    0    0    0  0.00000000000E+00  0.00000000000E+00  0.45593999997E+02  0.45594000000E+02  0.51100000000E-03 0.  1.
         11   -1    0    0    0    0 -0.00000000000E+00 -0.00000000000E+00 -0.45593999997E+02  0.45594000000E+02  0.51100000000E-03 0. -1.
    9900012    2    1    2    0    0  0.27331313021E+02  0.10731730145E+02 -0.12431759811E+02  0.59301963004E+02  0.50000034608E+02 0.  0.
         12    1    1    2    0    0 -0.27331313021E+02 -0.10731730145E+02  0.12431759811E+02  0.31886036996E+02  0.00000000000E+00 0. -1.
         11    1    3    3    0    0  0.76466358594E+01 -0.47704039662E+01 -0.22602155642E+02  0.24332801604E+02  0.51100000000E-03 0. -1.
        -11    1    3    3    0    0  0.22915372806E+02  0.11165116208E+02  0.25403973179E+01  0.25616942627E+02  0.51100000000E-03 0.  1.
        -12    1    3    3    0    0 -0.32306956450E+01  0.43370179034E+01  0.76299985136E+01  0.93522187721E+01  0.00000000000E+00 0.  1.
</event>
<event>
 7    1  0.7457761E-012  0.5930204E+02  0.7816164E-02  0.1266604E+00
        -11   -1    0    0    0    0  0.00000000000E+00  0.00000000000E+00  0.45593999997E+02  0.45594000000E+02  0.51100000000E-03 0.  1.
         11   -1    0    0    0    0 -0.00000000000E+00 -0.00000000000E+00 -0.45593999997E+02  0.45594000000E+02  0.51100000000E-03 0. -1.
    9900012    2    1    2    0    0 -0.26552855612E+02  0.73068604026E+01  0.16070781963E+02  0.59302040974E+02  0.50000176806E+02 0.  0.
         12    1    1    2    0    0  0.26552855612E+02 -0.73068604026E+01 -0.16070781963E+02  0.31885959026E+02  0.00000000000E+00 0. -1.
         11    1    3    3    0    0 -0.80474132887E+01 -0.74951320087E+01 -0.14623314956E+02  0.18296972565E+02  0.51100000000E-03 0. -1.
        -11    1    3    3    0    0 -0.10118852412E+02  0.18116430239E+00  0.14062823096E+02  0.17325905123E+02  0.51100000000E-03 0.  1.
         12    1    3    3    0    0 -0.83865899117E+01  0.14620828109E+02  0.16631273824E+02  0.23679163286E+02  0.00000000000E+00 0. -1.
</event>
<event>
 7    1  0.7457761E-012  0.5930195E+02  0.7816164E-02  0.1266605E+00
        -11   -1    0    0    0    0  0.00000000000E+00  0.00000000000E+00  0.45593999997E+02  0.45594000000E+02  0.51100000000E-03 0.  1.
         11   -1    0    0    0    0 -0.00000000000E+00 -0.00000000000E+00 -0.45593999997E+02  0.45594000000E+02  0.51100000000E-03 0. -1.
    9900012    2    1    2    0    0  0.72021377220E+01 -0.16287943008E+02  0.26449056560E+02  0.59301945554E+02  0.50000002784E+02 0.  0.
         12    1    1    2    0    0 -0.72021377220E+01  0.16287943008E+02 -0.26449056560E+02  0.31886054446E+02  0.00000000000E+00 0. -1.
         11    1    3    3    0    0 -0.14352055775E+02 -0.13706278606E+02  0.92239322117E+01  0.21884343808E+02  0.51100000000E-03 0. -1.
        -11    1    3    3    0    0  0.12172340871E+02  0.80006190261E+01 -0.70268337007E+00  0.14583194138E+02  0.51100000000E-03 0.  1.
        -12    1    3    3    0    0  0.93818526254E+01 -0.10582283428E+02  0.17927807719E+02  0.22834407608E+02  0.00000000000E+00 0.  1.
</event>
<event>
 7    1  0.7457761E-012  0.5930194E+02  0.7816164E-02  0.1266605E+00
        -11   -1    0    0    0    0  0.00000000000E+00  0.00000000000E+00  0.45593999997E+02  0.45594000000E+02  0.51100000000E-03 0.  1.
         11   -1    0    0    0    0 -0.00000000000E+00 -0.00000000000E+00 -0.45593999997E+02  0.45594000000E+02  0.51100000000E-03 0. -1.
    9900012    2    1    2    0    0 -0.25289128604E+02  0.18553460375E+02  0.57402160937E+01  0.59301937242E+02  0.49999987624E+02 0.  0.
         12    1    1    2    0    0  0.25289128604E+02 -0.18553460375E+02 -0.57402160937E+01  0.31886062758E+02  0.00000000000E+00 0. -1.
         11    1    3    3    0    0 -0.29062002046E+02  0.30445679197E+02 -0.34529362798E+01  0.42231056273E+02  0.51100000000E-03 0. -1.
        -11    1    3    3    0    0 -0.75830869565E-01 -0.96469526442E+01  0.77890132782E+01  0.12399119878E+02  0.51100000000E-03 0.  1.
         12    1    3    3    0    0  0.38487043122E+01 -0.22452661782E+01  0.14041390952E+01  0.46717610911E+01  0.00000000000E+00 0. -1.
</event>
<event>
 7    1  0.7457761E-012  0.5930196E+02  0.7816164E-02  0.1266605E+00
        -11   -1    0    0    0    0  0.00000000000E+00  0.00000000000E+00  0.45593999997E+02  0.45594000000E+02  0.51100000000E-03 0.  1.
         11   -1    0    0    0    0 -0.00000000000E+00 -0.00000000000E+00 -0.45593999997E+02  0.45594000000E+02  0.51100000000E-03 0. -1.
    9900012    2    1    2    0    0  0.21911746995E+02  0.22994525296E+02  0.28012461936E+01  0.59301955558E+02  0.50000021028E+02 0.  0.
         12    1    1    2    0    0 -0.21911746995E+02 -0.22994525296E+02 -0.28012461936E+01  0.31886044442E+02  0.00000000000E+00 0. -1.
         11    1    3    3    0    0 -0.94315871575E+01  0.11438280926E+02 -0.87219712311E+01  0.17200636304E+02  0.51100000000E-03 0. -1.
        -11    1    3    3    0    0  0.33025180134E+02  0.11403050083E+02  0.49170550791E+01  0.35282708300E+02  0.51100000000E-03 0.  1.
        -12    1    3    3    0    0 -0.16818459812E+01  0.15319428635E+00  0.66061623457E+01  0.68186109532E+01  0.00000000000E+00 0.  1.
</event>
<event>
 7    1  0.7457761E-012  0.5930197E+02  0.7816164E-02  0.1266605E+00
        -11   -1    0    0    0    0  0.00000000000E+00  0.00000000000E+00  0.45593999997E+02  0.45594000000E+02  0.51100000000E-03 0.  1.
         11   -1    0    0    0    0 -0.00000000000E+00 -0.00000000000E+00 -0.45593999997E+02  0.45594000000E+02  0.51100000000E-03 0. -1.
    9900012    2    1    2    0    0 -0.22021112800E+02  0.57675316405E+01  0.22327677457E+02  0.59301968407E+02  0.50000044461E+02 0.  0.
         12    1    1    2    0    0  0.22021112800E+02 -0.57675316405E+01 -0.22327677457E+02  0.31886031593E+02  0.00000000000E+00 0. -1.
         11    1    3    3    0    0 -0.18430999909E+01 -0.11710014194E+02 -0.90490365741E+01  0.14913299875E+02  0.51100000000E-03 0. -1.
        -11    1    3    3    0    0 -0.21434538692E+02  0.99248114039E+01  0.21957923322E+02  0.32250453132E+02  0.51100000000E-03 0.  1.
         12    1    3    3    0    0  0.12565258829E+01  0.75527344304E+01  0.94187907088E+01  0.12138215400E+02  0.00000000000E+00 0. -1.
</event>
<event>
 7    1  0.7457761E-012  0.5930194E+02  0.7816164E-02  0.1266605E+00
        -11   -1    0    0    0    0  0.00000000000E+00  0.00000000000E+00  0.45593999997E+02  0.45594000000E+02  0.51100000000E-03 0. -1.
         11   -1    0    0    0    0 -0.00000000000E+00 -0.00000000000E+00 -0.45593999997E+02  0.45594000000E+02  0.51100000000E-03 0.  1.
    9900012    2    1    2    0    0  0.24354848584E+02 -0.82945283324E+01 -0.18835157515E+02  0.59301937082E+02  0.49999987333E+02 0.  0.
         12    1    1    2    0    0 -0.24354848584E+02  0.82945283324E+01  0.18835157515E+02  0.31886062918E+02  0.00000000000E+00 0. -1.
         11    1    3    3    0    0  0.16788675821E+00 -0.44088311601E+01  0.76442350548E+01  0.88261151135E+01  0.51100000000E-03 0. -1.
        -11    1    3    3    0    0  0.10423417881E+02  0.10328968516E+02 -0.26947734456E+02  0.30684126572E+02  0.51100000000E-03 0.  1.
        -12    1    3    3    0    0  0.13763543945E+02 -0.14214665688E+02  0.46834188642E+00  0.19791695397E+02  0.00000000000E+00 0.  1.
</event>
<event>
 7    1  0.7457761E-012  0.5930188E+02  0.7816164E-02  0.1266605E+00
        -11   -1    0    0    0    0  0.00000000000E+00  0.00000000000E+00  0.45593999997E+02  0.45594000000E+02  0.51100000000E-03 0.  1.
         11   -1    0    0    0    0 -0.00000000000E+00 -0.00000000000E+00 -0.45593999997E+02  0.45594000000E+02  0.51100000000E-03 0. -1.
    9900012    2    1    2    0    0 -0.29686174624E+02 -0.10086055109E+02  0.58074935677E+01  0.59301883068E+02  0.49999888823E+02 0.  0.
         12    1    1    2    0    0  0.29686174624E+02  0.10086055109E+02 -0.58074935677E+01  0.31886116932E+02  0.00000000000E+00 0. -1.
         11    1    3    3    0    0 -0.15596889537E+02 -0.15593417686E+02 -0.80298039589E+01  0.23471160820E+02  0.51100000000E-03 0. -1.
        -11    1    3    3    0    0  0.87927190499E+01  0.10600415952E+01  0.76762243919E+01  0.11720069012E+02  0.51100000000E-03 0.  1.
        -12    1    3    3    0    0 -0.22882004137E+02  0.44473209820E+01  0.61610731348E+01  0.24110653235E+02  0.00000000000E+00 0.  1.
</event>
<event>
 7    1  0.7457761E-012  0.5930193E+02  0.7816164E-02  0.1266605E+00
        -11   -1    0    0    0    0  0.00000000000E+00  0.00000000000E+00  0.45593999997E+02  0.45594000000E+02  0.51100000000E-03 0. -1.
         11   -1    0    0    0    0 -0.00000000000E+00 -0.00000000000E+00 -0.45593999997E+02  0.45594000000E+02  0.51100000000E-03 0.  1.
    9900012    2    1    2    0    0 -0.82248649874E+01 -0.23323931107E+02  0.20126289430E+02  0.59301926354E+02  0.49999967767E+02 0.  0.
         12    1    1    2    0    0  0.82248649874E+01  0.23323931107E+02 -0.20126289430E+02  0.31886073646E+02  0.00000000000E+00 0. -1.
         11    1    3    3    0    0 -0.18554459444E+02  0.16734916550E+01  0.18422067670E+02  0.26200021319E+02  0.51100000000E-03 0. -1.
        -11    1    3    3    0    0 -0.49252212353E+01 -0.10593505150E+02 -0.18326749620E+01  0.11825347917E+02  0.51100000000E-03 0.  1.
         12    1    3    3    0    0  0.15254815692E+02 -0.14403917612E+02  0.35368967219E+01  0.21276557118E+02  0.00000000000E+00 0. -1.
</event>
<event>
 7    1  0.7457761E-012  0.5930194E+02  0.7816164E-02  0.1266605E+00
        -11   -1    0    0    0    0  0.00000000000E+00  0.00000000000E+00  0.45593999997E+02  0.45594000000E+02  0.51100000000E-03 0.  1.
         11   -1    0    0    0    0 -0.00000000000E+00 -0.00000000000E+00 -0.45593999997E+02  0.45594000000E+02  0.51100000000E-03 0. -1.
    9900012    2    1    2    0    0  0.22871640415E+02  0.53085992870E+01  0.21573768616E+02  0.59301942641E+02  0.49999997470E+02 0.  0.
         12    1    1    2    0    0 -0.22871640415E+02 -0.53085992870E+01 -0.21573768616E+02  0.31886057359E+02  0.00000000000E+00 0. -1.
         11    1    3    3    0    0 -0.25137304735E+01 -0.23320213852E+01  0.63229674311E+01  0.71928493680E+01  0.51100000000E-03 0. -1.
        -11    1    3    3    0    0  0.15900756132E+02  0.23804946669E+02  0.16986513064E+02  0.33287402389E+02  0.51100000000E-03 0.  1.
        -12    1    3    3    0    0  0.94846147561E+01 -0.16164325997E+02 -0.17357118793E+01  0.18821690884E+02  0.00000000000E+00 0.  1.
</event>
<event>
 7    1  0.7457761E-012  0.5930201E+02  0.7816164E-02  0.1266605E+00
        -11   -1    0    0    0    0  0.00000000000E+00  0.00000000000E+00  0.45593999997E+02  0.45594000000E+02  0.51100000000E-03 0. -1.
         11   -1    0    0    0    0 -0.00000000000E+00 -0.00000000000E+00 -0.45593999997E+02  0.45594000000E+02  0.51100000000E-03 0.  1.
    9900012    2    1    2    0    0 -0.11452600219E+02  0.28879436158E+02  0.71785959855E+01  0.59302013660E+02  0.50000126992E+02 0.  0.
         12    1    1    2    0    0  0.11452600219E+02 -0.28879436158E+02 -0.71785959855E+01  0.31885986340E+02  0.00000000000E+00 0. -1.
         11    1    3    3    0    0  0.15033188832E+02  0.35989518319E+01 -0.26079681559E+01  0.15676438336E+02  0.51100000000E-03 0. -1.
        -11    1    3    3    0    0 -0.20009070724E+02  0.20299864582E+02 -0.27776137146E+01  0.28638480259E+02  0.51100000000E-03 0.  1.
         12    1    3    3    0    0 -0.64767183263E+01  0.49806197433E+01  0.12564177856E+02  0.14987095065E+02  0.00000000000E+00 0. -1.
</event>
<event>
 7    1  0.7457761E-012  0.5930194E+02  0.7816164E-02  0.1266605E+00
        -11   -1    0    0    0    0  0.00000000000E+00  0.00000000000E+00  0.45593999997E+02  0.45594000000E+02  0.51100000000E-03 0.  1.
         11   -1    0    0    0    0 -0.00000000000E+00 -0.00000000000E+00 -0.45593999997E+02  0.45594000000E+02  0.51100000000E-03 0. -1.
    9900012    2    1    2    0    0 -0.13883983537E+02 -0.19466012492E+02  0.21095734645E+02  0.59301942523E+02  0.49999997256E+02 0.  0.
         12    1    1    2    0    0  0.13883983537E+02  0.19466012492E+02 -0.21095734645E+02  0.31886057477E+02  0.00000000000E+00 0. -1.
         11    1    3    3    0    0 -0.16873720582E+02 -0.19176833123E+02 -0.26522764838E+01  0.25680886778E+02  0.51100000000E-03 0. -1.
        -11    1    3    3    0    0  0.48020490443E+01  0.89791982641E+01  0.26741910075E+01  0.10527914052E+02  0.51100000000E-03 0.  1.
         12    1    3    3    0    0 -0.18123119996E+01 -0.92683776329E+01  0.21073820121E+02  0.23093141693E+02  0.00000000000E+00 0. -1.
</event>
<event>
 7    1  0.7457761E-012  0.5930195E+02  0.7816164E-02  0.1266605E+00
        -11   -1    0    0    0    0  0.00000000000E+00  0.00000000000E+00  0.45593999997E+02  0.45594000000E+02  0.51100000000E-03 0.  1.
         11   -1    0    0    0    0 -0.00000000000E+00 -0.00000000000E+00 -0.45593999997E+02  0.45594000000E+02  0.51100000000E-03 0. -1.
    9900012    2    1    2    0    0 -0.26462811835E+02  0.71874356892E+01  0.16272084167E+02  0.59301947169E+02  0.50000005730E+02 0.  0.
         12    1    1    2    0    0  0.26462811835E+02 -0.71874356892E+01 -0.16272084167E+02  0.31886052831E+02  0.00000000000E+00 0. -1.
         11    1    3    3    0    0  0.78270413127E+01  0.12830495685E+02  0.47072558939E+00  0.15036814093E+02  0.51100000000E-03 0. -1.
        -11    1    3    3    0    0 -0.25214830499E+02  0.50192036825E+01  0.15964167718E+02  0.30262761504E+02  0.51100000000E-03 0.  1.
         12    1    3    3    0    0 -0.90750226485E+01 -0.10662263678E+02 -0.16280913981E+00  0.14002371572E+02  0.00000000000E+00 0. -1.
</event>
<event>
 7    1  0.7457761E-012  0.5930217E+02  0.7816164E-02  0.1266604E+00
        -11   -1    0    0    0    0  0.00000000000E+00  0.00000000000E+00  0.45593999997E+02  0.45594000000E+02  0.51100000000E-03 0.  1.
         11   -1    0    0    0    0 -0.00000000000E+00 -0.00000000000E+00 -0.45593999997E+02  0.45594000000E+02  0.51100000000E-03 0. -1.
    9900012    2    1    2    0    0 -0.24019397407E+02  0.11117065445E+02 -0.17781608108E+02  0.59302169560E+02  0.50000411316E+02 0.  0.
         12    1    1    2    0    0  0.24019397407E+02 -0.11117065445E+02  0.17781608108E+02  0.31885830440E+02  0.00000000000E+00 0. -1.
         11    1    3    3    0    0  0.35102844174E+01 -0.94576727796E+01 -0.76790842998E+01  0.12678249368E+02  0.51100000000E-03 0. -1.
        -11    1    3    3    0    0 -0.31707900094E+02  0.24273878063E+02 -0.90454901615E+01  0.40944266719E+02  0.51100000000E-03 0.  1.
        -12    1    3    3    0    0  0.41782182695E+01 -0.36991398382E+01 -0.10570336467E+01  0.56796534736E+01  0.00000000000E+00 0.  1.
</event>
<event>
 7    1  0.7457761E-012  0.5930195E+02  0.7816164E-02  0.1266605E+00
        -11   -1    0    0    0    0  0.00000000000E+00  0.00000000000E+00  0.45593999997E+02  0.45594000000E+02  0.51100000000E-03 0.  1.
         11   -1    0    0    0    0 -0.00000000000E+00 -0.00000000000E+00 -0.45593999997E+02  0.45594000000E+02  0.51100000000E-03 0. -1.
    9900012    2    1    2    0    0  0.17438767689E+02 -0.19599737205E+02  0.18123453771E+02  0.59301954563E+02  0.50000019214E+02 0.  0.
         12    1    1    2    0    0 -0.17438767689E+02  0.19599737205E+02 -0.18123453771E+02  0.31886045437E+02  0.00000000000E+00 0. -1.
         11    1    3    3    0    0 -0.12506743142E+02 -0.18142927339E+02  0.29461871043E+00  0.22037949925E+02  0.51100000000E-03 0. -1.
        -11    1    3    3    0    0  0.11614418170E+02  0.47161249626E+00  0.14415791913E+02  0.18518428241E+02  0.51100000000E-03 0.  1.
         12    1    3    3    0    0  0.18331092661E+02 -0.19284223616E+01  0.34130431479E+01  0.18745576397E+02  0.00000000000E+00 0. -1.
</event>
<event>
 7    1  0.7457761E-012  0.5930196E+02  0.7816164E-02  0.1266605E+00
        -11   -1    0    0    0    0  0.00000000000E+00  0.00000000000E+00  0.45593999997E+02  0.45594000000E+02  0.51100000000E-03 0.  1.
         11   -1    0    0    0    0 -0.00000000000E+00 -0.00000000000E+00 -0.45593999997E+02  0.45594000000E+02  0.51100000000E-03 0. -1.
    9900012    2    1    2    0    0 -0.27695102542E+02  0.55614933163E+01  0.14790897972E+02  0.59301959551E+02  0.50000028310E+02 0.  0.
         12    1    1    2    0    0  0.27695102542E+02 -0.55614933163E+01 -0.14790897972E+02  0.31886040449E+02  0.00000000000E+00 0. -1.
         11    1    3    3    0    0 -0.24156370638E+02 -0.65144652682E+01 -0.75631227854E+01  0.26137508042E+02  0.51100000000E-03 0. -1.
        -11    1    3    3    0    0 -0.46771990259E+01  0.15304061445E+02  0.70580964799E+01  0.17490203361E+02  0.51100000000E-03 0.  1.
         12    1    3    3    0    0  0.11384671220E+01 -0.32281028604E+01  0.15295924278E+02  0.15674248147E+02  0.00000000000E+00 0. -1.
</event>
<event>
 7    1  0.7457761E-012  0.5930194E+02  0.7816164E-02  0.1266605E+00
        -11   -1    0    0    0    0  0.00000000000E+00  0.00000000000E+00  0.45593999997E+02  0.45594000000E+02  0.51100000000E-03 0.  1.
         11   -1    0    0    0    0 -0.00000000000E+00 -0.00000000000E+00 -0.45593999997E+02  0.45594000000E+02  0.51100000000E-03 0. -1.
    9900012    2    1    2    0    0  0.14188167891E+02  0.71907157099E+00  0.28546449620E+02  0.59301937873E+02  0.49999988776E+02 0.  0.
         12    1    1    2    0    0 -0.14188167891E+02 -0.71907157099E+00 -0.28546449620E+02  0.31886062127E+02  0.00000000000E+00 0. -1.
         11    1    3    3    0    0 -0.56551748526E+01  0.58026484908E+01  0.14043376557E+02  0.16213209352E+02  0.51100000000E-03 0. -1.
        -11    1    3    3    0    0  0.25204619414E+02 -0.81819492515E+01  0.21223304423E+02  0.33950637465E+02  0.51100000000E-03 0.  1.
        -12    1    3    3    0    0 -0.53612766700E+01  0.30983723317E+01 -0.67202313595E+01  0.91380910568E+01  0.00000000000E+00 0.  1.
</event>
<event>
 7    1  0.7457761E-012  0.5930194E+02  0.7816164E-02  0.1266605E+00
        -11   -1    0    0    0    0  0.00000000000E+00  0.00000000000E+00  0.45593999997E+02  0.45594000000E+02  0.51100000000E-03 0.  1.
         11   -1    0    0    0    0 -0.00000000000E+00 -0.00000000000E+00 -0.45593999997E+02  0.45594000000E+02  0.51100000000E-03 0. -1.
    9900012    2    1    2    0    0 -0.22621114832E+02  0.22428962394E+02  0.13956735253E+01  0.59301935726E+02  0.49999984859E+02 0.  0.
         12    1    1    2    0    0  0.22621114832E+02 -0.22428962394E+02 -0.13956735253E+01  0.31886064274E+02  0.00000000000E+00 0. -1.
         11    1    3    3    0    0  0.10024830431E+02 -0.50047554787E+01  0.79400174071E+01  0.13732759346E+02  0.51100000000E-03 0. -1.
        -11    1    3    3    0    0 -0.16372283938E+02  0.51781377801E+01  0.25079226268E+00  0.17173458861E+02  0.51100000000E-03 0.  1.
         12    1    3    3    0    0 -0.16273661325E+02  0.22255580093E+02 -0.67951361444E+01  0.28395717519E+02  0.00000000000E+00 0. -1.
</event>
<event>
 7    1  0.7457761E-012  0.5930192E+02  0.7816164E-02  0.1266605E+00
        -11   -1    0    0    0    0  0.00000000000E+00  0.00000000000E+00  0.45593999997E+02  0.45594000000E+02  0.51100000000E-03 0.  1.
         11   -1    0    0    0    0 -0.00000000000E+00 -0.00000000000E+00 -0.45593999997E+02  0.45594000000E+02  0.51100000000E-03 0. -1.
    9900012    2    1    2    0    0  0.19728180579E+02  0.21434625290E+02  0.12964483680E+02  0.59301919850E+02  0.49999955905E+02 0.  0.
         12    1    1    2    0    0 -0.19728180579E+02 -0.21434625290E+02 -0.12964483680E+02  0.31886080150E+02  0.00000000000E+00 0. -1.
         11    1    3    3    0    0  0.18609459016E+02  0.33538452726E+02  0.18573655760E+02  0.42615964903E+02  0.51100000000E-03 0. -1.
        -11    1    3    3    0    0 -0.22727830560E+01 -0.43213890398E+01  0.20088217565E+01  0.52797074885E+01  0.51100000000E-03 0.  1.
         12    1    3    3    0    0  0.33915046189E+01 -0.77824383955E+01 -0.76179938372E+01  0.11406247458E+02  0.00000000000E+00 0. -1.
</event>
<event>
 7    1  0.7457761E-012  0.5930195E+02  0.7816164E-02  0.1266605E+00
        -11   -1    0    0    0    0  0.00000000000E+00  0.00000000000E+00  0.45593999997E+02  0.45594000000E+02  0.51100000000E-03 0.  1.
         11   -1    0    0    0    0 -0.00000000000E+00 -0.00000000000E+00 -0.45593999997E+02  0.45594000000E+02  0.51100000000E-03 0. -1.
    9900012    2    1    2    0    0 -0.54901058299E+01 -0.94996511132E+01  0.29938863454E+02  0.59301950100E+02  0.50000011075E+02 0.  0.
         12    1    1    2    0    0  0.54901058299E+01  0.94996511132E+01 -0.29938863454E+02  0.31886049900E+02  0.00000000000E+00 0. -1.
         11    1    3    3    0    0  0.25944021563E+00 -0.19964686761E+02  0.10084915206E+02  0.22368762631E+02  0.51100000000E-03 0.  1.
        -11    1    3    3    0    0 -0.17363820189E+01  0.16760144119E+02  0.23264518691E+02  0.28725516245E+02  0.51100000000E-03 0. -1.
         12    1    3    3    0    0 -0.40131640266E+01 -0.62951084711E+01 -0.34105704429E+01  0.82076712235E+01  0.00000000000E+00 0. -1.
</event>
<event>
 7    1  0.7457761E-012  0.5930191E+02  0.7816164E-02  0.1266605E+00
        -11   -1    0    0    0    0  0.00000000000E+00  0.00000000000E+00  0.45593999997E+02  0.45594000000E+02  0.51100000000E-03 0.  1.
         11   -1    0    0    0    0 -0.00000000000E+00 -0.00000000000E+00 -0.45593999997E+02  0.45594000000E+02  0.51100000000E-03 0. -1.
    9900012    2    1    2    0    0  0.14565460415E+01  0.57688017496E+01  0.31326057794E+02  0.59301913741E+02  0.49999944764E+02 0.  0.
         12    1    1    2    0    0 -0.14565460415E+01 -0.57688017496E+01 -0.31326057794E+02  0.31886086259E+02  0.00000000000E+00 0. -1.
         11    1    3    3    0    0  0.33741358560E+01  0.14360073838E+02 -0.42975698897E+01  0.15364427117E+02  0.51100000000E-03 0. -1.
        -11    1    3    3    0    0 -0.43874595465E+01 -0.16279214287E+02  0.28769206377E+02  0.33345612229E+02  0.51100000000E-03 0.  1.
        -12    1    3    3    0    0  0.24698697319E+01  0.76879421986E+01  0.68544213074E+01  0.10591874395E+02  0.00000000000E+00 0.  1.
</event>
<event>
 7    1  0.7457761E-012  0.5930194E+02  0.7816164E-02  0.1266605E+00
        -11   -1    0    0    0    0  0.00000000000E+00  0.00000000000E+00  0.45593999997E+02  0.45594000000E+02  0.51100000000E-03 0. -1.
         11   -1    0    0    0    0 -0.00000000000E+00 -0.00000000000E+00 -0.45593999997E+02  0.45594000000E+02  0.51100000000E-03 0.  1.
    9900012    2    1    2    0    0 -0.21255039246E+02  0.20289092492E+02 -0.12381301316E+02  0.59301943647E+02  0.49999999306E+02 0.  0.
         12    1    1    2    0    0  0.21255039246E+02 -0.20289092492E+02  0.12381301316E+02  0.31886056353E+02  0.00000000000E+00 0. -1.
         11    1    3    3    0    0 -0.62486570136E+01 -0.67444846632E+01 -0.98919737065E+01  0.13504996554E+02  0.51100000000E-03 0. -1.
        -11    1    3    3    0    0 -0.16510165032E+02  0.25920014544E+02  0.10650274468E+02  0.32524775938E+02  0.51100000000E-03 0.  1.
        -12    1    3    3    0    0  0.15037827995E+01  0.11135626107E+01 -0.13139602078E+02  0.13272171155E+02  0.00000000000E+00 0.  1.
</event>
<event>
 7    1  0.7457761E-012  0.5930182E+02  0.7816164E-02  0.1266605E+00
        -11   -1    0    0    0    0  0.00000000000E+00  0.00000000000E+00  0.45593999997E+02  0.45594000000E+02  0.51100000000E-03 0. -1.
         11   -1    0    0    0    0 -0.00000000000E+00 -0.00000000000E+00 -0.45593999997E+02  0.45594000000E+02  0.51100000000E-03 0.  1.
    9900012    2    1    2    0    0  0.16063376243E+02 -0.22707381952E+02 -0.15590739352E+02  0.59301821098E+02  0.49999775805E+02 0.  0.
         12    1    1    2    0    0 -0.16063376243E+02  0.22707381952E+02  0.15590739352E+02  0.31886178902E+02  0.00000000000E+00 0. -1.
         11    1    3    3    0    0  0.30138672734E+02 -0.53061391366E+01 -0.77902118509E+01  0.31578190379E+02  0.51100000000E-03 0. -1.
        -11    1    3    3    0    0 -0.64581327548E+01 -0.12706403813E+02 -0.11225150483E+02  0.18142882356E+02  0.51100000000E-03 0.  1.
         12    1    3    3    0    0 -0.76171637357E+01 -0.46948390019E+01  0.34246229816E+01  0.95807483631E+01  0.00000000000E+00 0. -1.
</event>
<event>
 7    1  0.7457761E-012  0.5930193E+02  0.7816164E-02  0.1266605E+00
        -11   -1    0    0    0    0  0.00000000000E+00  0.00000000000E+00  0.45593999997E+02  0.45594000000E+02  0.51100000000E-03 0.  1.
         11   -1    0    0    0    0 -0.00000000000E+00 -0.00000000000E+00 -0.45593999997E+02  0.45594000000E+02  0.51100000000E-03 0. -1.
    9900012    2    1    2    0    0  0.66375488074E+01  0.22487214042E+02  0.21609937510E+02  0.59301933313E+02  0.49999980460E+02 0.  0.
         12    1    1    2    0    0 -0.66375488074E+01 -0.22487214042E+02 -0.21609937510E+02  0.31886066687E+02  0.00000000000E+00 0. -1.
         11    1    3    3    0    0  0.47889990289E+00 -0.11063555197E+02 -0.37525854521E+01  0.11692454684E+02  0.51100000000E-03 0. -1.
        -11    1    3    3    0    0 -0.54882251367E+01  0.14445916845E+02  0.25623349744E+01  0.15664312606E+02  0.51100000000E-03 0.  1.
         12    1    3    3    0    0  0.11646874041E+02  0.19104852394E+02  0.22800187988E+02  0.31945166022E+02  0.00000000000E+00 0. -1.
</event>
<event>
 7    1  0.7457761E-012  0.5930196E+02  0.7816164E-02  0.1266605E+00
        -11   -1    0    0    0    0  0.00000000000E+00  0.00000000000E+00  0.45593999997E+02  0.45594000000E+02  0.51100000000E-03 0. -1.
         11   -1    0    0    0    0 -0.00000000000E+00 -0.00000000000E+00 -0.45593999997E+02  0.45594000000E+02  0.51100000000E-03 0.  1.
    9900012    2    1    2    0    0 -0.30972188236E+02  0.71182285046E+01 -0.26026268161E+01  0.59301964067E+02  0.50000036548E+02 0.  0.
         12    1    1    2    0    0  0.30972188236E+02 -0.71182285046E+01  0.26026268161E+01  0.31886035933E+02  0.00000000000E+00 0. -1.
         11    1    3    3    0    0 -0.65806995483E+01 -0.11527658957E+02  0.16898041009E+02  0.21488050581E+02  0.51100000000E-03 0. -1.
        -11    1    3    3    0    0 -0.17213011477E+02  0.98952145129E+01 -0.17189985932E+02  0.26262114366E+02  0.51100000000E-03 0.  1.
         12    1    3    3    0    0 -0.71784772106E+01  0.87506729482E+01 -0.23106818935E+01  0.11551799121E+02  0.00000000000E+00 0. -1.
</event>
<event>
 7    1  0.7457761E-012  0.5930194E+02  0.7816164E-02  0.1266605E+00
        -11   -1    0    0    0    0  0.00000000000E+00  0.00000000000E+00  0.45593999997E+02  0.45594000000E+02  0.51100000000E-03 0.  1.
         11   -1    0    0    0    0 -0.00000000000E+00 -0.00000000000E+00 -0.45593999997E+02  0.45594000000E+02  0.51100000000E-03 0. -1.
    9900012    2    1    2    0    0 -0.13090156162E+02  0.25700552648E+02  0.13595961653E+02  0.59301940851E+02  0.49999994207E+02 0.  0.
         12    1    1    2    0    0  0.13090156162E+02 -0.25700552648E+02 -0.13595961653E+02  0.31886059149E+02  0.00000000000E+00 0. -1.
         11    1    3    3    0    0  0.13471936919E+02  0.20290364242E+02 -0.51571059262E+01  0.24895535889E+02  0.51100000000E-03 0. -1.
        -11    1    3    3    0    0 -0.21467003545E+02  0.82685994573E+01  0.14936073324E+02  0.27427873866E+02  0.51100000000E-03 0.  1.
         12    1    3    3    0    0 -0.50950895361E+01 -0.28584110518E+01  0.38169942554E+01  0.69785310968E+01  0.00000000000E+00 0. -1.
</event>
<event>
 7    1  0.7457761E-012  0.5930192E+02  0.7816164E-02  0.1266605E+00
        -11   -1    0    0    0    0  0.00000000000E+00  0.00000000000E+00  0.45593999997E+02  0.45594000000E+02  0.51100000000E-03 0.  1.
         11   -1    0    0    0    0 -0.00000000000E+00 -0.00000000000E+00 -0.45593999997E+02  0.45594000000E+02  0.51100000000E-03 0. -1.
    9900012    2    1    2    0    0 -0.90601578284E+01  0.23512033679E+01  0.30481267357E+02  0.59301917192E+02  0.49999951058E+02 0.  0.
         12    1    1    2    0    0  0.90601578284E+01 -0.23512033679E+01 -0.30481267357E+02  0.31886082808E+02  0.00000000000E+00 0. -1.
         11    1    3    3    0    0  0.11286218988E+01  0.96587656592E+01  0.10256407787E+01  0.97784191318E+01  0.51100000000E-03 0. -1.
        -11    1    3    3    0    0 -0.18409389850E+02 -0.12562495221E+01  0.33737666643E+02  0.38454049829E+02  0.51100000000E-03 0.  1.
        -12    1    3    3    0    0  0.82206101230E+01 -0.60513127691E+01 -0.42820400645E+01  0.11069448231E+02  0.00000000000E+00 0.  1.
</event>
<event>
 7    1  0.7457761E-012  0.5930201E+02  0.7816164E-02  0.1266605E+00
        -11   -1    0    0    0    0  0.00000000000E+00  0.00000000000E+00  0.45593999997E+02  0.45594000000E+02  0.51100000000E-03 0.  1.
         11   -1    0    0    0    0 -0.00000000000E+00 -0.00000000000E+00 -0.45593999997E+02  0.45594000000E+02  0.51100000000E-03 0. -1.
    9900012    2    1    2    0    0 -0.27968722549E+02 -0.69874347460E+01 -0.13625069181E+02  0.59302012552E+02  0.50000124971E+02 0.  0.
         12    1    1    2    0    0  0.27968722549E+02  0.69874347460E+01  0.13625069181E+02  0.31885987448E+02  0.00000000000E+00 0. -1.
         11    1    3    3    0    0 -0.28890417438E+01  0.13687525989E+02 -0.17625013829E+02  0.22501911977E+02  0.51100000000E-03 0. -1.
        -11    1    3    3    0    0 -0.11284258673E+02 -0.61516927615E+01 -0.62586364066E+01  0.14295046259E+02  0.51100000000E-03 0.  1.
         12    1    3    3    0    0 -0.13795422133E+02 -0.14523267974E+02  0.10258581055E+02  0.22505054315E+02  0.00000000000E+00 0. -1.
</event>
<event>
 7    1  0.7457761E-012  0.5930199E+02  0.7816164E-02  0.1266605E+00
        -11   -1    0    0    0    0  0.00000000000E+00  0.00000000000E+00  0.45593999997E+02  0.45594000000E+02  0.51100000000E-03 0. -1.
         11   -1    0    0    0    0 -0.00000000000E+00 -0.00000000000E+00 -0.45593999997E+02  0.45594000000E+02  0.51100000000E-03 0.  1.
    9900012    2    1    2    0    0  0.65144698117E+01 -0.14089962502E+02 -0.27852325264E+02  0.59301993934E+02  0.50000091017E+02 0.  0.
         12    1    1    2    0    0 -0.65144698117E+01  0.14089962502E+02  0.27852325264E+02  0.31886006066E+02  0.00000000000E+00 0. -1.
         11    1    3    3    0    0  0.11257817337E+02 -0.14497011594E+02 -0.72195334111E+01  0.19723677631E+02  0.51100000000E-03 0. -1.
        -11    1    3    3    0    0 -0.16888653707E+02 -0.48918811636E+01 -0.35145908734E+01  0.17930685281E+02  0.51100000000E-03 0.  1.
        -12    1    3    3    0    0  0.12145306182E+02  0.52989302557E+01 -0.17118200979E+02  0.21647631022E+02  0.00000000000E+00 0.  1.
</event>
<event>
 7    1  0.7457761E-012  0.5930199E+02  0.7816164E-02  0.1266605E+00
        -11   -1    0    0    0    0  0.00000000000E+00  0.00000000000E+00  0.45593999997E+02  0.45594000000E+02  0.51100000000E-03 0.  1.
         11   -1    0    0    0    0 -0.00000000000E+00 -0.00000000000E+00 -0.45593999997E+02  0.45594000000E+02  0.51100000000E-03 0. -1.
    9900012    2    1    2    0    0 -0.77933116874E+00 -0.31453828914E+02 -0.51737007591E+01  0.59301985982E+02  0.50000076514E+02 0.  0.
         12    1    1    2    0    0  0.77933116874E+00  0.31453828914E+02  0.51737007591E+01  0.31886014018E+02  0.00000000000E+00 0. -1.
         11    1    3    3    0    0  0.59059038786E+01 -0.16370380140E+02 -0.24388901965E+02  0.29961434977E+02  0.51100000000E-03 0. -1.
        -11    1    3    3    0    0 -0.10933235214E+02 -0.88957784928E+01  0.92267136024E+01  0.16846446254E+02  0.51100000000E-03 0.  1.
         12    1    3    3    0    0  0.42480001664E+01 -0.61876702809E+01  0.99884876036E+01  0.12494104751E+02  0.00000000000E+00 0. -1.
</event>
<event>
 7    1  0.7457761E-012  0.5930195E+02  0.7816164E-02  0.1266605E+00
        -11   -1    0    0    0    0  0.00000000000E+00  0.00000000000E+00  0.45593999997E+02  0.45594000000E+02  0.51100000000E-03 0. -1.
         11   -1    0    0    0    0 -0.00000000000E+00 -0.00000000000E+00 -0.45593999997E+02  0.45594000000E+02  0.51100000000E-03 0.  1.
    9900012    2    1    2    0    0  0.61040124920E+01 -0.24578035206E+02 -0.19374767972E+02  0.59301946355E+02  0.50000004244E+02 0.  0.
         12    1    1    2    0    0 -0.61040124920E+01  0.24578035206E+02  0.19374767972E+02  0.31886053645E+02  0.00000000000E+00 0. -1.
         11    1    3    3    0    0 -0.60702354549E+01  0.59135003823E+01  0.10006560986E+02  0.13112913798E+02  0.51100000000E-03 0. -1.
        -11    1    3    3    0    0 -0.12557520795E-01 -0.11061146573E+02 -0.16555146971E+02  0.19910349386E+02  0.51100000000E-03 0.  1.
         12    1    3    3    0    0  0.12186805468E+02 -0.19430389015E+02 -0.12826181988E+02  0.26278683170E+02  0.00000000000E+00 0. -1.
</event>
<event>
 7    1  0.7457761E-012  0.5930206E+02  0.7816164E-02  0.1266604E+00
        -11   -1    0    0    0    0  0.00000000000E+00  0.00000000000E+00  0.45593999997E+02  0.45594000000E+02  0.51100000000E-03 0. -1.
         11   -1    0    0    0    0 -0.00000000000E+00 -0.00000000000E+00 -0.45593999997E+02  0.45594000000E+02  0.51100000000E-03 0.  1.
    9900012    2    1    2    0    0  0.23297178909E+02 -0.61700779749E+01 -0.20877856648E+02  0.59302057870E+02  0.50000207620E+02 0.  0.
         12    1    1    2    0    0 -0.23297178909E+02  0.61700779749E+01  0.20877856648E+02  0.31885942130E+02  0.00000000000E+00 0. -1.
         11    1    3    3    0    0 -0.15807680918E+01 -0.16973614141E+02 -0.21642422544E+02  0.27549897615E+02  0.51100000000E-03 0. -1.
        -11    1    3    3    0    0  0.19576151598E+02  0.51698036728E+01 -0.63727577313E+01  0.21226507550E+02  0.51100000000E-03 0.  1.
         12    1    3    3    0    0  0.53017954027E+01  0.56337324937E+01  0.71373236272E+01  0.10525652705E+02  0.00000000000E+00 0. -1.
</event>
<event>
 7    1  0.7457761E-012  0.5930190E+02  0.7816164E-02  0.1266605E+00
        -11   -1    0    0    0    0  0.00000000000E+00  0.00000000000E+00  0.45593999997E+02  0.45594000000E+02  0.51100000000E-03 0.  1.
         11   -1    0    0    0    0 -0.00000000000E+00 -0.00000000000E+00 -0.45593999997E+02  0.45594000000E+02  0.51100000000E-03 0. -1.
    9900012    2    1    2    0    0 -0.19653692512E+02 -0.38932006813E+01 -0.24805209975E+02  0.59301904554E+02  0.49999928009E+02 0.  0.
         12    1    1    2    0    0  0.19653692512E+02  0.38932006813E+01  0.24805209975E+02  0.31886095446E+02  0.00000000000E+00 0. -1.
         11    1    3    3    0    0 -0.51440176100E+00 -0.17924216892E+02 -0.61539992353E+01  0.18958213714E+02  0.51100000000E-03 0. -1.
        -11    1    3    3    0    0 -0.77356392714E+01  0.19949612256E+02 -0.17123446162E+02  0.27405100854E+02  0.51100000000E-03 0.  1.
        -12    1    3    3    0    0 -0.11403651479E+02 -0.59185960453E+01 -0.15277645783E+01  0.12938589986E+02  0.00000000000E+00 0.  1.
</event>
<event>
 7    1  0.7457761E-012  0.5930179E+02  0.7816164E-02  0.1266605E+00
        -11   -1    0    0    0    0  0.00000000000E+00  0.00000000000E+00  0.45593999997E+02  0.45594000000E+02  0.51100000000E-03 0.  1.
         11   -1    0    0    0    0 -0.00000000000E+00 -0.00000000000E+00 -0.45593999997E+02  0.45594000000E+02  0.51100000000E-03 0. -1.
    9900012    2    1    2    0    0 -0.86254018575E+01 -0.13374518369E+02  0.27630693691E+02  0.59301787734E+02  0.49999714957E+02 0.  0.
         12    1    1    2    0    0  0.86254018575E+01  0.13374518369E+02 -0.27630693691E+02  0.31886212266E+02  0.00000000000E+00 0. -1.
         11    1    3    3    0    0 -0.77654764854E+01 -0.24328291556E+02  0.13808490065E+02  0.29031754911E+02  0.51100000000E-03 0. -1.
        -11    1    3    3    0    0  0.94965069078E+01  0.13232020991E+02  0.75739468478E+01  0.17962034798E+02  0.51100000000E-03 0.  1.
         12    1    3    3    0    0 -0.10356432280E+02 -0.22782478037E+01  0.62482567786E+01  0.12307998026E+02  0.00000000000E+00 0. -1.
</event>
<event>
 7    1  0.7457761E-012  0.5930195E+02  0.7816164E-02  0.1266605E+00
        -11   -1    0    0    0    0  0.00000000000E+00  0.00000000000E+00  0.45593999997E+02  0.45594000000E+02  0.51100000000E-03 0.  1.
         11   -1    0    0    0    0 -0.00000000000E+00 -0.00000000000E+00 -0.45593999997E+02  0.45594000000E+02  0.51100000000E-03 0. -1.
    9900012    2    1    2    0    0 -0.30806033932E+02 -0.23518303970E+01 -0.78852788070E+01  0.59301945765E+02  0.50000003168E+02 0.  0.
         12    1    1    2    0    0  0.30806033932E+02  0.23518303970E+01  0.78852788070E+01  0.31886054235E+02  0.00000000000E+00 0. -1.
         11    1    3    3    0    0 -0.22792940938E+02 -0.13559016343E+02 -0.16479855100E+02  0.31224200633E+02  0.51100000000E-03 0. -1.
        -11    1    3    3    0    0  0.54425798931E+01 -0.23660062145E+01  0.65775856097E+01  0.88591361889E+01  0.51100000000E-03 0.  1.
         12    1    3    3    0    0 -0.13455672887E+02  0.13573192161E+02  0.20169906831E+01  0.19218608943E+02  0.00000000000E+00 0. -1.
</event>
<event>
 7    1  0.7457761E-012  0.5930212E+02  0.7816164E-02  0.1266604E+00
        -11   -1    0    0    0    0  0.00000000000E+00  0.00000000000E+00  0.45593999997E+02  0.45594000000E+02  0.51100000000E-03 0.  1.
         11   -1    0    0    0    0 -0.00000000000E+00 -0.00000000000E+00 -0.45593999997E+02  0.45594000000E+02  0.51100000000E-03 0. -1.
    9900012    2    1    2    0    0 -0.12368173193E+02  0.28930334690E+02 -0.51743015673E+01  0.59302119581E+02  0.50000320166E+02 0.  0.
         12    1    1    2    0    0  0.12368173193E+02 -0.28930334690E+02  0.51743015673E+01  0.31885880419E+02  0.00000000000E+00 0. -1.
         11    1    3    3    0    0  0.53263639530E+00 -0.30833647447E+01  0.13606797314E+02  0.13961940162E+02  0.51100000000E-03 0. -1.
        -11    1    3    3    0    0 -0.18948884818E+02  0.19670463333E+02 -0.14615904600E+02  0.30977605317E+02  0.51100000000E-03 0.  1.
        -12    1    3    3    0    0  0.60480752301E+01  0.12343236101E+02 -0.41651942813E+01  0.14362574102E+02  0.00000000000E+00 0.  1.
</event>
<event>
 7    1  0.7457761E-012  0.5930192E+02  0.7816164E-02  0.1266605E+00
        -11   -1    0    0    0    0  0.00000000000E+00  0.00000000000E+00  0.45593999997E+02  0.45594000000E+02  0.51100000000E-03 0.  1.
         11   -1    0    0    0    0 -0.00000000000E+00 -0.00000000000E+00 -0.45593999997E+02  0.45594000000E+02  0.51100000000E-03 0. -1.
    9900012    2    1    2    0    0  0.26223062119E+01 -0.21641630024E+02  0.23269835678E+02  0.59301923219E+02  0.49999962050E+02 0.  0.
         12    1    1    2    0    0 -0.26223062119E+01  0.21641630024E+02 -0.23269835678E+02  0.31886076781E+02  0.00000000000E+00 0. -1.
         11    1    3    3    0    0  0.58927626272E+01 -0.11827891359E+02 -0.38334676268E+01  0.13759329187E+02  0.51100000000E-03 0. -1.
        -11    1    3    3    0    0 -0.41350582748E+00  0.12671822017E+02  0.42931670278E+01  0.13385714164E+02  0.51100000000E-03 0.  1.
        -12    1    3    3    0    0 -0.28569505878E+01 -0.22485560683E+02  0.22810136277E+02  0.32156879868E+02  0.00000000000E+00 0.  1.
</event>
<event>
 7    1  0.7457761E-012  0.5930192E+02  0.7816164E-02  0.1266605E+00
        -11   -1    0    0    0    0  0.00000000000E+00  0.00000000000E+00  0.45593999997E+02  0.45594000000E+02  0.51100000000E-03 0.  1.
         11   -1    0    0    0    0 -0.00000000000E+00 -0.00000000000E+00 -0.45593999997E+02  0.45594000000E+02  0.51100000000E-03 0. -1.
    9900012    2    1    2    0    0  0.22046138258E+02  0.12491456568E+02  0.19355960157E+02  0.59301923213E+02  0.49999962039E+02 0.  0.
         12    1    1    2    0    0 -0.22046138258E+02 -0.12491456568E+02 -0.19355960157E+02  0.31886076787E+02  0.00000000000E+00 0. -1.
         11    1    3    3    0    0 -0.65977804978E+01 -0.92746873104E+00  0.74867613874E+01  0.10022100682E+02  0.51100000000E-03 0. -1.
        -11    1    3    3    0    0  0.24184515001E+02  0.23926316649E+02  0.15383616756E+02  0.37336511071E+02  0.51100000000E-03 0.  1.
        -12    1    3    3    0    0  0.44594037552E+01 -0.10507391350E+02 -0.35144179866E+01  0.11943311460E+02  0.00000000000E+00 0.  1.
</event>
<event>
 7    1  0.7457761E-012  0.5930194E+02  0.7816164E-02  0.1266605E+00
        -11   -1    0    0    0    0  0.00000000000E+00  0.00000000000E+00  0.45593999997E+02  0.45594000000E+02  0.51100000000E-03 0. -1.
         11   -1    0    0    0    0 -0.00000000000E+00 -0.00000000000E+00 -0.45593999997E+02  0.45594000000E+02  0.51100000000E-03 0.  1.
    9900012    2    1    2    0    0  0.25762516923E+02 -0.18448239536E+02  0.35603477013E+01  0.59301938846E+02  0.49999990549E+02 0.  0.
         12    1    1    2    0    0 -0.25762516923E+02  0.18448239536E+02 -0.35603477013E+01  0.31886061154E+02  0.00000000000E+00 0. -1.
         11    1    3    3    0    0  0.21326605210E+01 -0.10396863250E+01  0.31296146437E+01  0.39272988976E+01  0.51100000000E-03 0. -1.
        -11    1    3    3    0    0  0.14899025620E+02 -0.13503586269E+02 -0.22711548130E+02  0.30333846200E+02  0.51100000000E-03 0.  1.
        -12    1    3    3    0    0  0.87308307816E+01 -0.39049669413E+01  0.23142281188E+02  0.25040793748E+02  0.00000000000E+00 0.  1.
</event>
<event>
 7    1  0.7457761E-012  0.5930193E+02  0.7816164E-02  0.1266605E+00
        -11   -1    0    0    0    0  0.00000000000E+00  0.00000000000E+00  0.45593999997E+02  0.45594000000E+02  0.51100000000E-03 0.  1.
         11   -1    0    0    0    0 -0.00000000000E+00 -0.00000000000E+00 -0.45593999997E+02  0.45594000000E+02  0.51100000000E-03 0. -1.
    9900012    2    1    2    0    0  0.67159123228E+01  0.20113235172E+02  0.23813357996E+02  0.59301925822E+02  0.49999966798E+02 0.  0.
         12    1    1    2    0    0 -0.67159123228E+01 -0.20113235172E+02 -0.23813357996E+02  0.31886074178E+02  0.00000000000E+00 0. -1.
         11    1    3    3    0    0 -0.20959586117E+01  0.29981123928E+02  0.31453207861E+02  0.43503621913E+02  0.51100000000E-03 0.  1.
        -11    1    3    3    0    0  0.63036956122E+01 -0.77848961363E+01 -0.36862569614E+01  0.10673784562E+02  0.51100000000E-03 0. -1.
        -12    1    3    3    0    0  0.25081753223E+01 -0.20829926199E+01 -0.39535929034E+01  0.51245193480E+01  0.00000000000E+00 0.  1.
</event>
<event>
 7    1  0.7457761E-012  0.5930197E+02  0.7816164E-02  0.1266605E+00
        -11   -1    0    0    0    0  0.00000000000E+00  0.00000000000E+00  0.45593999997E+02  0.45594000000E+02  0.51100000000E-03 0.  1.
         11   -1    0    0    0    0 -0.00000000000E+00 -0.00000000000E+00 -0.45593999997E+02  0.45594000000E+02  0.51100000000E-03 0. -1.
    9900012    2    1    2    0    0 -0.87283684783E+01 -0.23005275494E+02  0.20280336578E+02  0.59301965933E+02  0.50000039949E+02 0.  0.
         12    1    1    2    0    0  0.87283684783E+01  0.23005275494E+02 -0.20280336578E+02  0.31886034067E+02  0.00000000000E+00 0. -1.
         11    1    3    3    0    0 -0.38556495228E+01 -0.13182268138E+02 -0.69775011752E+01  0.15405315622E+02  0.51100000000E-03 0. -1.
        -11    1    3    3    0    0 -0.46631825055E+01  0.64459436207E+01  0.26434242627E+02  0.27605518357E+02  0.51100000000E-03 0.  1.
        -12    1    3    3    0    0 -0.20953645005E+00 -0.16268950976E+02  0.82359512588E+00  0.16291131954E+02  0.00000000000E+00 0.  1.
</event>
<event>
 7    1  0.7457761E-012  0.5930195E+02  0.7816164E-02  0.1266605E+00
        -11   -1    0    0    0    0  0.00000000000E+00  0.00000000000E+00  0.45593999997E+02  0.45594000000E+02  0.51100000000E-03 0.  1.
         11   -1    0    0    0    0 -0.00000000000E+00 -0.00000000000E+00 -0.45593999997E+02  0.45594000000E+02  0.51100000000E-03 0. -1.
    9900012    2    1    2    0    0  0.33717987096E+01  0.15136910269E+02  0.27860812305E+02  0.59301953815E+02  0.50000017850E+02 0.  0.
         12    1    1    2    0    0 -0.33717987096E+01 -0.15136910269E+02 -0.27860812305E+02  0.31886046185E+02  0.00000000000E+00 0. -1.
         11    1    3    3    0    0  0.80834455595E+01  0.12547594566E+02 -0.11584256723E+02  0.18893893871E+02  0.51100000000E-03 0. -1.
        -11    1    3    3    0    0 -0.20206017551E+01  0.33054980799E+01  0.85386802503E+01  0.93764710679E+01  0.51100000000E-03 0.  1.
         12    1    3    3    0    0 -0.26910450949E+01 -0.71618237699E+00  0.30906388778E+02  0.31031588876E+02  0.00000000000E+00 0. -1.
</event>
<event>
 7    1  0.7457761E-012  0.5930195E+02  0.7816164E-02  0.1266605E+00
        -11   -1    0    0    0    0  0.00000000000E+00  0.00000000000E+00  0.45593999997E+02  0.45594000000E+02  0.51100000000E-03 0. -1.
         11   -1    0    0    0    0 -0.00000000000E+00 -0.00000000000E+00 -0.45593999997E+02  0.45594000000E+02  0.51100000000E-03 0.  1.
    9900012    2    1    2    0    0 -0.13522250731E+02 -0.21019467312E+02 -0.19800278750E+02  0.59301948041E+02  0.50000007319E+02 0.  0.
         12    1    1    2    0    0  0.13522250731E+02  0.21019467312E+02  0.19800278750E+02  0.31886051959E+02  0.00000000000E+00 0. -1.
         11    1    3    3    0    0 -0.19075386395E+02 -0.54336829938E+01  0.20877080239E+01  0.19943765995E+02  0.51100000000E-03 0. -1.
        -11    1    3    3    0    0  0.10516163541E+02 -0.10423211493E+02 -0.26838826299E+02  0.30652171715E+02  0.51100000000E-03 0.  1.
        -12    1    3    3    0    0 -0.49630278766E+01 -0.51625728251E+01  0.49508395251E+01  0.87060103309E+01  0.00000000000E+00 0.  1.
</event>
<event>
 7    1  0.7457761E-012  0.5930195E+02  0.7816164E-02  0.1266605E+00
        -11   -1    0    0    0    0  0.00000000000E+00  0.00000000000E+00  0.45593999997E+02  0.45594000000E+02  0.51100000000E-03 0.  1.
         11   -1    0    0    0    0 -0.00000000000E+00 -0.00000000000E+00 -0.45593999997E+02  0.45594000000E+02  0.51100000000E-03 0. -1.
    9900012    2    1    2    0    0  0.88978319403E+01  0.27338069314E+02  0.13790541612E+02  0.59301945289E+02  0.50000002300E+02 0.  0.
         12    1    1    2    0    0 -0.88978319403E+01 -0.27338069314E+02 -0.13790541612E+02  0.31886054711E+02  0.00000000000E+00 0. -1.
         11    1    3    3    0    0 -0.13484428597E+01 -0.64718169316E+01  0.20404350347E+02  0.21448548340E+02  0.51100000000E-03 0. -1.
        -11    1    3    3    0    0 -0.25326054111E+01  0.77796242160E+01 -0.25658216539E+01  0.85743853500E+01  0.51100000000E-03 0.  1.
         12    1    3    3    0    0  0.12778880211E+02  0.26030262030E+02 -0.40479870814E+01  0.29279011599E+02  0.00000000000E+00 0. -1.
</event>
<event>
 7    1  0.7457761E-012  0.5930197E+02  0.7816164E-02  0.1266605E+00
        -11   -1    0    0    0    0  0.00000000000E+00  0.00000000000E+00  0.45593999997E+02  0.45594000000E+02  0.51100000000E-03 0. -1.
         11   -1    0    0    0    0 -0.00000000000E+00 -0.00000000000E+00 -0.45593999997E+02  0.45594000000E+02  0.51100000000E-03 0.  1.
    9900012    2    1    2    0    0  0.99754786011E+01  0.28699820809E+02 -0.96710408288E+01  0.59301969853E+02  0.50000047100E+02 0.  0.
         12    1    1    2    0    0 -0.99754786011E+01 -0.28699820809E+02  0.96710408288E+01  0.31886030147E+02  0.00000000000E+00 0. -1.
         11    1    3    3    0    0  0.42216245108E+01 -0.33463396228E+01  0.12416334015E+02  0.13534602063E+02  0.51100000000E-03 0. -1.
        -11    1    3    3    0    0  0.27013999808E+00  0.20086468272E+01 -0.14047086057E+02  0.14192542572E+02  0.51100000000E-03 0.  1.
         12    1    3    3    0    0  0.54837140922E+01  0.30037513605E+02 -0.80402887871E+01  0.31574825218E+02  0.00000000000E+00 0. -1.
</event>
<event>
 7    1  0.7457761E-012  0.5930192E+02  0.7816164E-02  0.1266605E+00
        -11   -1    0    0    0    0  0.00000000000E+00  0.00000000000E+00  0.45593999997E+02  0.45594000000E+02  0.51100000000E-03 0. -1.
         11   -1    0    0    0    0 -0.00000000000E+00 -0.00000000000E+00 -0.45593999997E+02  0.45594000000E+02  0.51100000000E-03 0.  1.
    9900012    2    1    2    0    0  0.28675116406E+02 -0.13521399528E+02 -0.34104829087E+01  0.59301922478E+02  0.49999960698E+02 0.  0.
         12    1    1    2    0    0 -0.28675116406E+02  0.13521399528E+02  0.34104829087E+01  0.31886077522E+02  0.00000000000E+00 0. -1.
         11    1    3    3    0    0 -0.12904847681E+02  0.43197495818E+00  0.59399900900E+01  0.14212852583E+02  0.51100000000E-03 0. -1.
        -11    1    3    3    0    0  0.22237183346E+02 -0.90096189008E+01 -0.32430008861E+01  0.24211208374E+02  0.51100000000E-03 0.  1.
         12    1    3    3    0    0  0.19342780740E+02 -0.49437555853E+01 -0.61074721126E+01  0.20877861520E+02  0.00000000000E+00 0. -1.
</event>
<event>
 7    1  0.7457761E-012  0.5930191E+02  0.7816164E-02  0.1266605E+00
        -11   -1    0    0    0    0  0.00000000000E+00  0.00000000000E+00  0.45593999997E+02  0.45594000000E+02  0.51100000000E-03 0.  1.
         11   -1    0    0    0    0 -0.00000000000E+00 -0.00000000000E+00 -0.45593999997E+02  0.45594000000E+02  0.51100000000E-03 0. -1.
    9900012    2    1    2    0    0  0.86972700417E-01 -0.16120901347E+02  0.27510572651E+02  0.59301911622E+02  0.49999940900E+02 0.  0.
         12    1    1    2    0    0 -0.86972700417E-01  0.16120901347E+02 -0.27510572651E+02  0.31886088378E+02  0.00000000000E+00 0. -1.
         11    1    3    3    0    0 -0.91652177695E+01  0.82925458287E+01  0.70413287347E+00  0.12379957045E+02  0.51100000000E-03 0. -1.
        -11    1    3    3    0    0  0.17037043774E+02 -0.81529093187E+01  0.20371280633E+02  0.27779846396E+02  0.51100000000E-03 0.  1.
        -12    1    3    3    0    0 -0.77848533045E+01 -0.16260537857E+02  0.64351591446E+01  0.19142108180E+02  0.00000000000E+00 0.  1.
</event>
<event>
 7    1  0.7457761E-012  0.5930193E+02  0.7816164E-02  0.1266605E+00
        -11   -1    0    0    0    0  0.00000000000E+00  0.00000000000E+00  0.45593999997E+02  0.45594000000E+02  0.51100000000E-03 0. -1.
         11   -1    0    0    0    0 -0.00000000000E+00 -0.00000000000E+00 -0.45593999997E+02  0.45594000000E+02  0.51100000000E-03 0.  1.
    9900012    2    1    2    0    0 -0.19488636860E+02  0.17615896307E+02 -0.18071922819E+02  0.59301934647E+02  0.49999982892E+02 0.  0.
         12    1    1    2    0    0  0.19488636860E+02 -0.17615896307E+02  0.18071922819E+02  0.31886065353E+02  0.00000000000E+00 0. -1.
         11    1    3    3    0    0 -0.12546205471E+02 -0.16330656479E+02 -0.54118527550E+01  0.21292857095E+02  0.51100000000E-03 0. -1.
        -11    1    3    3    0    0 -0.78225412003E+01  0.29630613582E+02 -0.81633416807E+01  0.31714437717E+02  0.51100000000E-03 0.  1.
         12    1    3    3    0    0  0.88010981152E+00  0.43159392043E+01 -0.44967283833E+01  0.62946398347E+01  0.00000000000E+00 0. -1.
</event>
<event>
 7    1  0.7457761E-012  0.5930192E+02  0.7816164E-02  0.1266605E+00
        -11   -1    0    0    0    0  0.00000000000E+00  0.00000000000E+00  0.45593999997E+02  0.45594000000E+02  0.51100000000E-03 0.  1.
         11   -1    0    0    0    0 -0.00000000000E+00 -0.00000000000E+00 -0.45593999997E+02  0.45594000000E+02  0.51100000000E-03 0. -1.
    9900012    2    1    2    0    0 -0.83988030100E+01 -0.20173104663E+02  0.23221279400E+02  0.59301923717E+02  0.49999962958E+02 0.  0.
         12    1    1    2    0    0  0.83988030100E+01  0.20173104663E+02 -0.23221279400E+02  0.31886076283E+02  0.00000000000E+00 0. -1.
         11    1    3    3    0    0  0.12274953416E+02 -0.17517803110E+02 -0.66133158899E+01  0.22389369230E+02  0.51100000000E-03 0. -1.
        -11    1    3    3    0    0 -0.70790340958E+01  0.39106189958E+00  0.14828450041E+02  0.16436197371E+02  0.51100000000E-03 0.  1.
         12    1    3    3    0    0 -0.13594722331E+02 -0.30463634528E+01  0.15006145249E+02  0.20476357117E+02  0.00000000000E+00 0. -1.
</event>
<event>
 7    1  0.7457761E-012  0.5930207E+02  0.7816164E-02  0.1266604E+00
        -11   -1    0    0    0    0  0.00000000000E+00  0.00000000000E+00  0.45593999997E+02  0.45594000000E+02  0.51100000000E-03 0.  1.
         11   -1    0    0    0    0 -0.00000000000E+00 -0.00000000000E+00 -0.45593999997E+02  0.45594000000E+02  0.51100000000E-03 0. -1.
    9900012    2    1    2    0    0 -0.20160981913E+02  0.22041652662E+02  0.11154066554E+02  0.59302065100E+02  0.50000220807E+02 0.  0.
         12    1    1    2    0    0  0.20160981913E+02 -0.22041652662E+02 -0.11154066554E+02  0.31885934900E+02  0.00000000000E+00 0. -1.
         11    1    3    3    0    0 -0.83679843395E+00 -0.50571027937E+01 -0.39519109460E+00  0.51410793174E+01  0.51100000000E-03 0. -1.
        -11    1    3    3    0    0 -0.22794471312E+02  0.28615502779E+02 -0.52327354570E+01  0.36956953910E+02  0.51100000000E-03 0.  1.
        -12    1    3    3    0    0  0.34702878332E+01 -0.15167473232E+01  0.16781993106E+02  0.17204031873E+02  0.00000000000E+00 0.  1.
</event>
<event>
 7    1  0.7457761E-012  0.5930193E+02  0.7816164E-02  0.1266605E+00
        -11   -1    0    0    0    0  0.00000000000E+00  0.00000000000E+00  0.45593999997E+02  0.45594000000E+02  0.51100000000E-03 0.  1.
         11   -1    0    0    0    0 -0.00000000000E+00 -0.00000000000E+00 -0.45593999997E+02  0.45594000000E+02  0.51100000000E-03 0. -1.
    9900012    2    1    2    0    0  0.31025775370E+02  0.29535162758E+01 -0.67379220861E+01  0.59301927966E+02  0.49999970708E+02 0.  0.
         12    1    1    2    0    0 -0.31025775370E+02 -0.29535162758E+01  0.67379220861E+01  0.31886072034E+02  0.00000000000E+00 0. -1.
         11    1    3    3    0    0  0.19071016731E+01 -0.57683643992E+01 -0.27397347786E+01  0.66646238867E+01  0.51100000000E-03 0.  1.
        -11    1    3    3    0    0  0.33516888767E+02  0.11017436822E+02 -0.16675661193E+02  0.39023626474E+02  0.51100000000E-03 0. -1.
        -12    1    3    3    0    0 -0.43982150699E+01 -0.22955561471E+01  0.12677473886E+02  0.13613677605E+02  0.00000000000E+00 0.  1.
</event>
<event>
 7    1  0.7457761E-012  0.5930205E+02  0.7816164E-02  0.1266604E+00
        -11   -1    0    0    0    0  0.00000000000E+00  0.00000000000E+00  0.45593999997E+02  0.45594000000E+02  0.51100000000E-03 0.  1.
         11   -1    0    0    0    0 -0.00000000000E+00 -0.00000000000E+00 -0.45593999997E+02  0.45594000000E+02  0.51100000000E-03 0. -1.
    9900012    2    1    2    0    0 -0.16677495444E+02  0.44824580542E+01  0.26804520255E+02  0.59302053400E+02  0.50000199468E+02 0.  0.
         12    1    1    2    0    0  0.16677495444E+02 -0.44824580542E+01 -0.26804520255E+02  0.31885946600E+02  0.00000000000E+00 0. -1.
         11    1    3    3    0    0  0.11888387205E+02 -0.37921531426E+00  0.28986954889E+00  0.11897965339E+02  0.51100000000E-03 0. -1.
        -11    1    3    3    0    0 -0.32043896381E+02  0.28661073793E+01  0.15556966493E+02  0.35735767426E+02  0.51100000000E-03 0.  1.
        -12    1    3    3    0    0  0.34780137328E+01  0.19955659891E+01  0.10957684213E+02  0.11668320635E+02  0.00000000000E+00 0.  1.
</event>
<event>
 7    1  0.7457761E-012  0.5930194E+02  0.7816164E-02  0.1266605E+00
        -11   -1    0    0    0    0  0.00000000000E+00  0.00000000000E+00  0.45593999997E+02  0.45594000000E+02  0.51100000000E-03 0.  1.
         11   -1    0    0    0    0 -0.00000000000E+00 -0.00000000000E+00 -0.45593999997E+02  0.45594000000E+02  0.51100000000E-03 0. -1.
    9900012    2    1    2    0    0  0.30387758673E+02  0.93718357155E+01  0.23395941147E+01  0.59301939057E+02  0.49999990934E+02 0.  0.
         12    1    1    2    0    0 -0.30387758673E+02 -0.93718357155E+01 -0.23395941147E+01  0.31886060943E+02  0.00000000000E+00 0. -1.
         11    1    3    3    0    0  0.29495805223E+02 -0.41901002712E+01 -0.15236819167E+02  0.33462219362E+02  0.51100000000E-03 0. -1.
        -11    1    3    3    0    0 -0.29571304842E+01 -0.68628818692E+00  0.71546907552E+01  0.77720790166E+01  0.51100000000E-03 0.  1.
         12    1    3    3    0    0  0.38490839342E+01  0.14248224174E+02  0.10421722527E+02  0.18067640678E+02  0.00000000000E+00 0. -1.
</event>
<event>
 7    1  0.7457761E-012  0.5930191E+02  0.7816164E-02  0.1266605E+00
        -11   -1    0    0    0    0  0.00000000000E+00  0.00000000000E+00  0.45593999997E+02  0.45594000000E+02  0.51100000000E-03 0. -1.
         11   -1    0    0    0    0 -0.00000000000E+00 -0.00000000000E+00 -0.45593999997E+02  0.45594000000E+02  0.51100000000E-03 0.  1.
    9900012    2    1    2    0    0  0.20086643784E+02  0.62506893401E+01 -0.23962015648E+02  0.59301912600E+02  0.49999942684E+02 0.  0.
         12    1    1    2    0    0 -0.20086643784E+02 -0.62506893401E+01  0.23962015648E+02  0.31886087400E+02  0.00000000000E+00 0. -1.
         11    1    3    3    0    0 -0.79287449643E+01  0.50920995921E+01 -0.21197502185E+02  0.23197598455E+02  0.51100000000E-03 0. -1.
        -11    1    3    3    0    0  0.25333741360E+02  0.61192466171E+01 -0.91161362112E+01  0.27610642334E+02  0.51100000000E-03 0.  1.
        -12    1    3    3    0    0  0.26816473889E+01 -0.49606568691E+01  0.63516227480E+01  0.84936718105E+01  0.00000000000E+00 0.  1.
</event>
<event>
 7    1  0.7457761E-012  0.5930194E+02  0.7816164E-02  0.1266605E+00
        -11   -1    0    0    0    0  0.00000000000E+00  0.00000000000E+00  0.45593999997E+02  0.45594000000E+02  0.51100000000E-03 0.  1.
         11   -1    0    0    0    0 -0.00000000000E+00 -0.00000000000E+00 -0.45593999997E+02  0.45594000000E+02  0.51100000000E-03 0. -1.
    9900012    2    1    2    0    0  0.65401371016E+01 -0.83279305411E+01  0.30076451869E+02  0.59301940704E+02  0.49999993938E+02 0.  0.
         12    1    1    2    0    0 -0.65401371016E+01  0.83279305411E+01 -0.30076451869E+02  0.31886059296E+02  0.00000000000E+00 0. -1.
         11    1    3    3    0    0 -0.30078425918E-02 -0.21814533574E+01 -0.84463163266E+00  0.23392628441E+01  0.51100000000E-03 0. -1.
        -11    1    3    3    0    0  0.24295748256E+02  0.85354791621E+00  0.28911725652E+02  0.37774327364E+02  0.51100000000E-03 0.  1.
        -12    1    3    3    0    0 -0.17752603312E+02 -0.70000250998E+01  0.20093578495E+01  0.19188350495E+02  0.00000000000E+00 0.  1.
</event>
<event>
 7    1  0.7457761E-012  0.5930184E+02  0.7816164E-02  0.1266605E+00
        -11   -1    0    0    0    0  0.00000000000E+00  0.00000000000E+00  0.45593999997E+02  0.45594000000E+02  0.51100000000E-03 0. -1.
         11   -1    0    0    0    0 -0.00000000000E+00 -0.00000000000E+00 -0.45593999997E+02  0.45594000000E+02  0.51100000000E-03 0.  1.
    9900012    2    1    2    0    0 -0.25992991925E+02  0.17901421227E+02 -0.45421336274E+01  0.59301835460E+02  0.49999801998E+02 0.  0.
         12    1    1    2    0    0  0.25992991925E+02 -0.17901421227E+02  0.45421336274E+01  0.31886164540E+02  0.00000000000E+00 0. -1.
         11    1    3    3    0    0 -0.86200795676E+01 -0.87762300970E+00 -0.26346439105E+01  0.90563426776E+01  0.51100000000E-03 0. -1.
        -11    1    3    3    0    0 -0.15975881778E+02  0.20770625061E+02  0.16965347511E+02  0.31216512945E+02  0.51100000000E-03 0.  1.
        -12    1    3    3    0    0 -0.13970305798E+01 -0.19915808242E+01 -0.18872837228E+02  0.19028979838E+02  0.00000000000E+00 0.  1.
</event>
<event>
 7    1  0.7457761E-012  0.5930194E+02  0.7816164E-02  0.1266605E+00
        -11   -1    0    0    0    0  0.00000000000E+00  0.00000000000E+00  0.45593999997E+02  0.45594000000E+02  0.51100000000E-03 0. -1.
         11   -1    0    0    0    0 -0.00000000000E+00 -0.00000000000E+00 -0.45593999997E+02  0.45594000000E+02  0.51100000000E-03 0.  1.
    9900012    2    1    2    0    0 -0.29767495262E+02  0.17476062040E+01  0.11294372814E+02  0.59301940995E+02  0.49999994468E+02 0.  0.
         12    1    1    2    0    0  0.29767495262E+02 -0.17476062040E+01 -0.11294372814E+02  0.31886059005E+02  0.00000000000E+00 0. -1.
         11    1    3    3    0    0  0.67600576349E+01  0.11476017797E+02  0.17784201981E+01  0.13437266923E+02  0.51100000000E-03 0.  1.
        -11    1    3    3    0    0 -0.17463982921E+02 -0.17570448503E+01  0.16463374704E+02  0.24064924952E+02  0.51100000000E-03 0. -1.
         12    1    3    3    0    0 -0.19063569977E+02 -0.79713667426E+01 -0.69474220875E+01  0.21799749119E+02  0.00000000000E+00 0. -1.
</event>
<event>
 7    1  0.7457761E-012  0.5930192E+02  0.7816164E-02  0.1266605E+00
        -11   -1    0    0    0    0  0.00000000000E+00  0.00000000000E+00  0.45593999997E+02  0.45594000000E+02  0.51100000000E-03 0.  1.
         11   -1    0    0    0    0 -0.00000000000E+00 -0.00000000000E+00 -0.45593999997E+02  0.45594000000E+02  0.51100000000E-03 0. -1.
    9900012    2    1    2    0    0 -0.63544695092E+01  0.86324833247E+01  0.30030366070E+02  0.59301922515E+02  0.49999960766E+02 0.  0.
         12    1    1    2    0    0  0.63544695092E+01 -0.86324833247E+01 -0.30030366070E+02  0.31886077485E+02  0.00000000000E+00 0. -1.
         11    1    3    3    0    0 -0.51920788353E+01 -0.79843737588E+01 -0.15287952062E+01  0.96459899438E+01  0.51100000000E-03 0. -1.
        -11    1    3    3    0    0  0.56687611529E+01  0.19324146841E+02  0.32380761420E+01  0.20397123363E+02  0.51100000000E-03 0.  1.
        -12    1    3    3    0    0 -0.68311518267E+01 -0.27072897575E+01  0.28321085134E+02  0.29258809208E+02  0.00000000000E+00 0.  1.
</event>
<event>
 7    1  0.7457761E-012  0.5930195E+02  0.7816164E-02  0.1266605E+00
        -11   -1    0    0    0    0  0.00000000000E+00  0.00000000000E+00  0.45593999997E+02  0.45594000000E+02  0.51100000000E-03 0.  1.
         11   -1    0    0    0    0 -0.00000000000E+00 -0.00000000000E+00 -0.45593999997E+02  0.45594000000E+02  0.51100000000E-03 0. -1.
    9900012    2    1    2    0    0  0.11266458729E+01  0.25855952205E+02  0.18625796683E+02  0.59301954503E+02  0.50000019105E+02 0.  0.
         12    1    1    2    0    0 -0.11266458729E+01 -0.25855952205E+02 -0.18625796683E+02  0.31886045497E+02  0.00000000000E+00 0. -1.
         11    1    3    3    0    0  0.56144745210E+01 -0.43274431932E+01 -0.13166480019E+02  0.14953437234E+02  0.51100000000E-03 0. -1.
        -11    1    3    3    0    0  0.51060511209E+00  0.13295812784E+02  0.13401184860E+02  0.18884679269E+02  0.51100000000E-03 0.  1.
         12    1    3    3    0    0 -0.49984337602E+01  0.16887582614E+02  0.18391091842E+02  0.25463838001E+02  0.00000000000E+00 0. -1.
</event>
<event>
 7    1  0.7457761E-012  0.5930188E+02  0.7816164E-02  0.1266605E+00
        -11   -1    0    0    0    0  0.00000000000E+00  0.00000000000E+00  0.45593999997E+02  0.45594000000E+02  0.51100000000E-03 0.  1.
         11   -1    0    0    0    0 -0.00000000000E+00 -0.00000000000E+00 -0.45593999997E+02  0.45594000000E+02  0.51100000000E-03 0. -1.
    9900012    2    1    2    0    0  0.15915120472E+02  0.18822133760E+02  0.20227721281E+02  0.59301882532E+02  0.49999887847E+02 0.  0.
         12    1    1    2    0    0 -0.15915120472E+02 -0.18822133760E+02 -0.20227721281E+02  0.31886117468E+02  0.00000000000E+00 0. -1.
         11    1    3    3    0    0 -0.47177423035E+01  0.13245705084E+01  0.55041116599E+01  0.73693164472E+01  0.51100000000E-03 0.  1.
        -11    1    3    3    0    0  0.14556511758E+02  0.28569901312E+02 -0.60591867935E+00  0.32070210995E+02  0.51100000000E-03 0. -1.
        -12    1    3    3    0    0  0.60763510176E+01 -0.11072338060E+02  0.15329528301E+02  0.19862355091E+02  0.00000000000E+00 0.  1.
</event>
<event>
 7    1  0.7457761E-012  0.5930196E+02  0.7816164E-02  0.1266605E+00
        -11   -1    0    0    0    0  0.00000000000E+00  0.00000000000E+00  0.45593999997E+02  0.45594000000E+02  0.51100000000E-03 0. -1.
         11   -1    0    0    0    0 -0.00000000000E+00 -0.00000000000E+00 -0.45593999997E+02  0.45594000000E+02  0.51100000000E-03 0.  1.
    9900012    2    1    2    0    0 -0.18577893062E+02  0.13731765031E+02 -0.21977724270E+02  0.59301955316E+02  0.50000020588E+02 0.  0.
         12    1    1    2    0    0  0.18577893062E+02 -0.13731765031E+02  0.21977724270E+02  0.31886044684E+02  0.00000000000E+00 0. -1.
         11    1    3    3    0    0  0.14666350366E+01  0.24944552475E+02 -0.14350180280E+02  0.28815089638E+02  0.51100000000E-03 0. -1.
        -11    1    3    3    0    0 -0.18728103968E+02 -0.32802739650E+01 -0.10772299555E+02  0.21852791892E+02  0.51100000000E-03 0.  1.
        -12    1    3    3    0    0 -0.13164241306E+01 -0.79325134795E+01  0.31447555644E+01  0.86340737867E+01  0.00000000000E+00 0.  1.
</event>
<event>
 7    1  0.7457761E-012  0.5930191E+02  0.7816164E-02  0.1266605E+00
        -11   -1    0    0    0    0  0.00000000000E+00  0.00000000000E+00  0.45593999997E+02  0.45594000000E+02  0.51100000000E-03 0.  1.
         11   -1    0    0    0    0 -0.00000000000E+00 -0.00000000000E+00 -0.45593999997E+02  0.45594000000E+02  0.51100000000E-03 0. -1.
    9900012    2    1    2    0    0  0.87666851096E+01 -0.28069895312E+02  0.12326744662E+02  0.59301914875E+02  0.49999946832E+02 0.  0.
         12    1    1    2    0    0 -0.87666851096E+01  0.28069895312E+02 -0.12326744662E+02  0.31886085125E+02  0.00000000000E+00 0. -1.
         11    1    3    3    0    0  0.13216866749E+02  0.12296428837E+01  0.85854486107E+01  0.15808463442E+02  0.51100000000E-03 0. -1.
        -11    1    3    3    0    0  0.86254910607E+00 -0.31650853383E+02  0.11599782943E+02  0.33720549750E+02  0.51100000000E-03 0.  1.
        -12    1    3    3    0    0 -0.53127307457E+01  0.23513151873E+01 -0.78584868910E+01  0.97729016828E+01  0.00000000000E+00 0.  1.
</event>
<event>
 7    1  0.7457761E-012  0.5930197E+02  0.7816164E-02  0.1266605E+00
        -11   -1    0    0    0    0  0.00000000000E+00  0.00000000000E+00  0.45593999997E+02  0.45594000000E+02  0.51100000000E-03 0. -1.
         11   -1    0    0    0    0 -0.00000000000E+00 -0.00000000000E+00 -0.45593999997E+02  0.45594000000E+02  0.51100000000E-03 0.  1.
    9900012    2    1    2    0    0 -0.26695355403E+01 -0.23736890685E+02 -0.21122322765E+02  0.59301969856E+02  0.50000047104E+02 0.  0.
         12    1    1    2    0    0  0.26695355403E+01  0.23736890685E+02  0.21122322765E+02  0.31886030144E+02  0.00000000000E+00 0. -1.
         11    1    3    3    0    0 -0.50703281708E+01 -0.19133641413E+01  0.11072259970E+02  0.12327373248E+02  0.51100000000E-03 0. -1.
        -11    1    3    3    0    0 -0.71041689754E+01  0.22100588606E-01 -0.17737662052E+02  0.19107442545E+02  0.51100000000E-03 0.  1.
         12    1    3    3    0    0  0.95049616059E+01 -0.21845627132E+02 -0.14456920683E+02  0.27867154062E+02  0.00000000000E+00 0. -1.
</event>
<event>
 7    1  0.7457761E-012  0.5930194E+02  0.7816164E-02  0.1266605E+00
        -11   -1    0    0    0    0  0.00000000000E+00  0.00000000000E+00  0.45593999997E+02  0.45594000000E+02  0.51100000000E-03 0. -1.
         11   -1    0    0    0    0 -0.00000000000E+00 -0.00000000000E+00 -0.45593999997E+02  0.45594000000E+02  0.51100000000E-03 0.  1.
    9900012    2    1    2    0    0 -0.24303095082E+02 -0.13873420069E+02 -0.15284260384E+02  0.59301939872E+02  0.49999992421E+02 0.  0.
         12    1    1    2    0    0  0.24303095082E+02  0.13873420069E+02  0.15284260384E+02  0.31886060128E+02  0.00000000000E+00 0. -1.
         11    1    3    3    0    0 -0.18167817603E+02 -0.67091479551E+01  0.10698374996E+02  0.22125494131E+02  0.51100000000E-03 0. -1.
        -11    1    3    3    0    0 -0.57481435848E+01 -0.10489565327E+02 -0.29792937139E+02  0.32104380372E+02  0.51100000000E-03 0.  1.
        -12    1    3    3    0    0 -0.38713389402E+00  0.33252932132E+01  0.38103017595E+01  0.50720653686E+01  0.00000000000E+00 0.  1.
</event>
<event>
 7    1  0.7457761E-012  0.5930198E+02  0.7816164E-02  0.1266605E+00
        -11   -1    0    0    0    0  0.00000000000E+00  0.00000000000E+00  0.45593999997E+02  0.45594000000E+02  0.51100000000E-03 0.  1.
         11   -1    0    0    0    0 -0.00000000000E+00 -0.00000000000E+00 -0.45593999997E+02  0.45594000000E+02  0.51100000000E-03 0. -1.
    9900012    2    1    2    0    0  0.11074321304E+02 -0.28012921990E+02  0.10457249537E+02  0.59301977065E+02  0.50000060251E+02 0.  0.
         12    1    1    2    0    0 -0.11074321304E+02  0.28012921990E+02 -0.10457249537E+02  0.31886022935E+02  0.00000000000E+00 0. -1.
         11    1    3    3    0    0  0.17190610439E+02  0.11991691431E+01  0.12226968151E+02  0.21129454426E+02  0.51100000000E-03 0. -1.
        -11    1    3    3    0    0 -0.15282115512E+02 -0.19319243837E+02 -0.16075724015E+01  0.24685228908E+02  0.51100000000E-03 0.  1.
         12    1    3    3    0    0  0.91658263771E+01 -0.98928472960E+01 -0.16214621288E+00  0.13487293731E+02  0.00000000000E+00 0. -1.
</event>
<event>
 7    1  0.7457761E-012  0.5930197E+02  0.7816164E-02  0.1266605E+00
        -11   -1    0    0    0    0  0.00000000000E+00  0.00000000000E+00  0.45593999997E+02  0.45594000000E+02  0.51100000000E-03 0.  1.
         11   -1    0    0    0    0 -0.00000000000E+00 -0.00000000000E+00 -0.45593999997E+02  0.45594000000E+02  0.51100000000E-03 0. -1.
    9900012    2    1    2    0    0  0.22085069884E+02 -0.12167853032E+02  0.19516958318E+02  0.59301974516E+02  0.50000055603E+02 0.  0.
         12    1    1    2    0    0 -0.22085069884E+02  0.12167853032E+02 -0.19516958318E+02  0.31886025484E+02  0.00000000000E+00 0. -1.
         11    1    3    3    0    0 -0.12886406102E+02 -0.40930794758E+01  0.17949366089E+01  0.13639448651E+02  0.51100000000E-03 0. -1.
        -11    1    3    3    0    0  0.32265234110E+02 -0.44126841448E+01  0.22091519557E+02  0.39351649903E+02  0.51100000000E-03 0.  1.
        -12    1    3    3    0    0  0.27062418767E+01 -0.36620894117E+01 -0.43694978479E+01  0.63108759611E+01  0.00000000000E+00 0.  1.
</event>
<event>
 7    1  0.7457761E-012  0.5930191E+02  0.7816164E-02  0.1266605E+00
        -11   -1    0    0    0    0  0.00000000000E+00  0.00000000000E+00  0.45593999997E+02  0.45594000000E+02  0.51100000000E-03 0.  1.
         11   -1    0    0    0    0 -0.00000000000E+00 -0.00000000000E+00 -0.45593999997E+02  0.45594000000E+02  0.51100000000E-03 0. -1.
    9900012    2    1    2    0    0 -0.17718031090E+02 -0.24004578752E+02  0.11250516410E+02  0.59301912967E+02  0.49999943353E+02 0.  0.
         12    1    1    2    0    0  0.17718031090E+02  0.24004578752E+02 -0.11250516410E+02  0.31886087033E+02  0.00000000000E+00 0. -1.
         11    1    3    3    0    0  0.13906585422E+02 -0.63696448972E+01  0.79544881641E+01  0.17240631555E+02  0.51100000000E-03 0. -1.
        -11    1    3    3    0    0 -0.27008552453E+02 -0.56607891093E+01  0.74310862807E+01  0.28578444369E+02  0.51100000000E-03 0.  1.
         12    1    3    3    0    0 -0.46160640584E+01 -0.11974144746E+02 -0.41350580350E+01  0.13482837043E+02  0.00000000000E+00 0. -1.
</event>
<event>
 7    1  0.7457761E-012  0.5930195E+02  0.7816164E-02  0.1266605E+00
        -11   -1    0    0    0    0  0.00000000000E+00  0.00000000000E+00  0.45593999997E+02  0.45594000000E+02  0.51100000000E-03 0.  1.
         11   -1    0    0    0    0 -0.00000000000E+00 -0.00000000000E+00 -0.45593999997E+02  0.45594000000E+02  0.51100000000E-03 0. -1.
    9900012    2    1    2    0    0 -0.47367523498E+01 -0.24900167920E+02  0.19345932909E+02  0.59301948106E+02  0.50000007437E+02 0.  0.
         12    1    1    2    0    0  0.47367523498E+01  0.24900167920E+02 -0.19345932909E+02  0.31886051894E+02  0.00000000000E+00 0. -1.
         11    1    3    3    0    0  0.71108416687E+01 -0.61508801074E+01 -0.25359087238E+01  0.97379786737E+01  0.51100000000E-03 0. -1.
        -11    1    3    3    0    0 -0.81585002919E+01  0.11291263904E+02  0.95090692996E+01  0.16866421279E+02  0.51100000000E-03 0.  1.
        -12    1    3    3    0    0 -0.36890937265E+01 -0.30040551717E+02  0.12372772333E+02  0.32697548153E+02  0.00000000000E+00 0.  1.
</event>
<event>
 7    1  0.7457761E-012  0.5930192E+02  0.7816164E-02  0.1266605E+00
        -11   -1    0    0    0    0  0.00000000000E+00  0.00000000000E+00  0.45593999997E+02  0.45594000000E+02  0.51100000000E-03 0.  1.
         11   -1    0    0    0    0 -0.00000000000E+00 -0.00000000000E+00 -0.45593999997E+02  0.45594000000E+02  0.51100000000E-03 0. -1.
    9900012    2    1    2    0    0  0.27186861433E+02 -0.11014010102E+02  0.12501520863E+02  0.59301923462E+02  0.49999962493E+02 0.  0.
         12    1    1    2    0    0 -0.27186861433E+02  0.11014010102E+02 -0.12501520863E+02  0.31886076538E+02  0.00000000000E+00 0. -1.
         11    1    3    3    0    0 -0.10166225648E+02 -0.80457156892E+01 -0.73006076797E+01  0.14878997198E+02  0.51100000000E-03 0. -1.
        -11    1    3    3    0    0  0.18069786787E+02  0.51205670053E+01  0.80304619238E+01  0.20426103886E+02  0.51100000000E-03 0.  1.
         12    1    3    3    0    0  0.19283300294E+02 -0.80888614182E+01  0.11771666619E+02  0.23996822378E+02  0.00000000000E+00 0. -1.
</event>
<event>
 7    1  0.7457761E-012  0.5930197E+02  0.7816164E-02  0.1266605E+00
        -11   -1    0    0    0    0  0.00000000000E+00  0.00000000000E+00  0.45593999997E+02  0.45594000000E+02  0.51100000000E-03 0. -1.
         11   -1    0    0    0    0 -0.00000000000E+00 -0.00000000000E+00 -0.45593999997E+02  0.45594000000E+02  0.51100000000E-03 0.  1.
    9900012    2    1    2    0    0  0.85884069010E+01  0.77859441505E+01 -0.29704160674E+02  0.59301971386E+02  0.50000049895E+02 0.  0.
         12    1    1    2    0    0 -0.85884069010E+01 -0.77859441505E+01  0.29704160674E+02  0.31886028614E+02  0.00000000000E+00 0. -1.
         11    1    3    3    0    0  0.58796924192E+01 -0.13808172647E+02 -0.23285727153E+02  0.27703095569E+02  0.51100000000E-03 0. -1.
        -11    1    3    3    0    0  0.46222416953E+01  0.48913400636E+01  0.72789789657E+01  0.99133173535E+01  0.51100000000E-03 0.  1.
         12    1    3    3    0    0 -0.19135272135E+01  0.16702776734E+02 -0.13697412487E+02  0.21685558463E+02  0.00000000000E+00 0. -1.
</event>
<event>
 7    1  0.7457761E-012  0.5930195E+02  0.7816164E-02  0.1266605E+00
        -11   -1    0    0    0    0  0.00000000000E+00  0.00000000000E+00  0.45593999997E+02  0.45594000000E+02  0.51100000000E-03 0.  1.
         11   -1    0    0    0    0 -0.00000000000E+00 -0.00000000000E+00 -0.45593999997E+02  0.45594000000E+02  0.51100000000E-03 0. -1.
    9900012    2    1    2    0    0  0.60415661406E+00  0.31267275038E+02  0.62219529459E+01  0.59301949885E+02  0.50000010682E+02 0.  0.
         12    1    1    2    0    0 -0.60415661406E+00 -0.31267275038E+02 -0.62219529459E+01  0.31886050115E+02  0.00000000000E+00 0. -1.
         11    1    3    3    0    0  0.13235523509E+02  0.30208443362E+02  0.14166158377E-01  0.32980741863E+02  0.51100000000E-03 0. -1.
        -11    1    3    3    0    0 -0.10618923337E+02  0.83759692442E+01  0.10924752459E+02  0.17385873869E+02  0.51100000000E-03 0.  1.
         12    1    3    3    0    0 -0.20124435574E+01 -0.73171375687E+01 -0.47169656718E+01  0.89353341526E+01  0.00000000000E+00 0. -1.
</event>
<event>
 7    1  0.7457761E-012  0.5930193E+02  0.7816164E-02  0.1266605E+00
        -11   -1    0    0    0    0  0.00000000000E+00  0.00000000000E+00  0.45593999997E+02  0.45594000000E+02  0.51100000000E-03 0.  1.
         11   -1    0    0    0    0 -0.00000000000E+00 -0.00000000000E+00 -0.45593999997E+02  0.45594000000E+02  0.51100000000E-03 0. -1.
    9900012    2    1    2    0    0 -0.24420023314E+01 -0.35816544912E+01  0.31590025146E+02  0.59301932305E+02  0.49999978621E+02 0.  0.
         12    1    1    2    0    0  0.24420023314E+01  0.35816544912E+01 -0.31590025146E+02  0.31886067695E+02  0.00000000000E+00 0. -1.
         11    1    3    3    0    0  0.15064168577E+02  0.11180858685E+02  0.68882087204E+01  0.19984699034E+02  0.51100000000E-03 0. -1.
        -11    1    3    3    0    0 -0.19747808520E+01 -0.61787805351E+01  0.19904293017E+02  0.20934611749E+02  0.51100000000E-03 0.  1.
         12    1    3    3    0    0 -0.15531390057E+02 -0.85837326411E+01  0.47975234087E+01  0.18382621522E+02  0.00000000000E+00 0. -1.
</event>
<event>
 7    1  0.7457761E-012  0.5930194E+02  0.7816164E-02  0.1266605E+00
        -11   -1    0    0    0    0  0.00000000000E+00  0.00000000000E+00  0.45593999997E+02  0.45594000000E+02  0.51100000000E-03 0. -1.
         11   -1    0    0    0    0 -0.00000000000E+00 -0.00000000000E+00 -0.45593999997E+02  0.45594000000E+02  0.51100000000E-03 0.  1.
    9900012    2    1    2    0    0  0.31299525213E+02  0.47942117054E+01 -0.37517728200E+01  0.59301944369E+02  0.50000000622E+02 0.  0.
         12    1    1    2    0    0 -0.31299525213E+02 -0.47942117054E+01  0.37517728200E+01  0.31886055631E+02  0.00000000000E+00 0. -1.
         11    1    3    3    0    0 -0.52138992322E+01  0.11902120118E+02  0.49233854645E+01  0.13895500466E+02  0.51100000000E-03 0. -1.
        -11    1    3    3    0    0  0.35551415826E+02  0.18126401355E+01 -0.68808718648E+01  0.36256519819E+02  0.51100000000E-03 0.  1.
         12    1    3    3    0    0  0.96200861947E+00 -0.89205485482E+01 -0.17942864197E+01  0.91499240838E+01  0.00000000000E+00 0. -1.
</event>
<event>
 7    1  0.7457761E-012  0.5930197E+02  0.7816164E-02  0.1266605E+00
        -11   -1    0    0    0    0  0.00000000000E+00  0.00000000000E+00  0.45593999997E+02  0.45594000000E+02  0.51100000000E-03 0.  1.
         11   -1    0    0    0    0 -0.00000000000E+00 -0.00000000000E+00 -0.45593999997E+02  0.45594000000E+02  0.51100000000E-03 0. -1.
    9900012    2    1    2    0    0  0.77033812594E+01 -0.37938663690E+01  0.30708032444E+02  0.59301972317E+02  0.50000051592E+02 0.  0.
         12    1    1    2    0    0 -0.77033812594E+01  0.37938663690E+01 -0.30708032444E+02  0.31886027683E+02  0.00000000000E+00 0. -1.
         11    1    3    3    0    0  0.16621409961E+02 -0.12898028522E+00 -0.63018475603E+01  0.17776422248E+02  0.51100000000E-03 0. -1.
        -11    1    3    3    0    0 -0.46457998040E+01 -0.98413707600E+01  0.17356972122E+02  0.20486593562E+02  0.51100000000E-03 0.  1.
         12    1    3    3    0    0 -0.42722288972E+01  0.61764846762E+01  0.19652907882E+02  0.21038956508E+02  0.00000000000E+00 0. -1.
</event>
<event>
 7    1  0.7457761E-012  0.5930194E+02  0.7816164E-02  0.1266605E+00
        -11   -1    0    0    0    0  0.00000000000E+00  0.00000000000E+00  0.45593999997E+02  0.45594000000E+02  0.51100000000E-03 0. -1.
         11   -1    0    0    0    0 -0.00000000000E+00 -0.00000000000E+00 -0.45593999997E+02  0.45594000000E+02  0.51100000000E-03 0.  1.
    9900012    2    1    2    0    0 -0.22696358250E+02  0.21898303988E+02 -0.46968476059E+01  0.59301940776E+02  0.49999994070E+02 0.  0.
         12    1    1    2    0    0  0.22696358250E+02 -0.21898303988E+02  0.46968476059E+01  0.31886059224E+02  0.00000000000E+00 0. -1.
         11    1    3    3    0    0 -0.23307363700E+02  0.55836196812E+01  0.15592665677E+02  0.28592677988E+02  0.51100000000E-03 0. -1.
        -11    1    3    3    0    0  0.13800922478E+01  0.11742555552E+02 -0.22617369603E+02  0.25521318021E+02  0.51100000000E-03 0.  1.
         12    1    3    3    0    0 -0.76908679864E+00  0.45721287550E+01  0.23278563200E+01  0.51879447667E+01  0.00000000000E+00 0. -1.
</event>
<event>
 7    1  0.7457761E-012  0.5930193E+02  0.7816164E-02  0.1266605E+00
        -11   -1    0    0    0    0  0.00000000000E+00  0.00000000000E+00  0.45593999997E+02  0.45594000000E+02  0.51100000000E-03 0.  1.
         11   -1    0    0    0    0 -0.00000000000E+00 -0.00000000000E+00 -0.45593999997E+02  0.45594000000E+02  0.51100000000E-03 0. -1.
    9900012    2    1    2    0    0  0.30931344100E+01 -0.57532611335E+01  0.31209833916E+02  0.59301933651E+02  0.49999981075E+02 0.  0.
         12    1    1    2    0    0 -0.30931344100E+01  0.57532611335E+01 -0.31209833916E+02  0.31886066349E+02  0.00000000000E+00 0. -1.
         11    1    3    3    0    0  0.16892027307E-03 -0.22652688798E+01 -0.96499262403E+01  0.99122409086E+01  0.51100000000E-03 0. -1.
        -11    1    3    3    0    0 -0.10565483637E+02  0.49448833506E+01  0.18303756920E+02  0.21705041660E+02  0.51100000000E-03 0.  1.
         12    1    3    3    0    0  0.13658449127E+02 -0.84328756042E+01  0.22556003237E+02  0.27684651082E+02  0.00000000000E+00 0. -1.
</event>
<event>
 7    1  0.7457761E-012  0.5930194E+02  0.7816164E-02  0.1266605E+00
        -11   -1    0    0    0    0  0.00000000000E+00  0.00000000000E+00  0.45593999997E+02  0.45594000000E+02  0.51100000000E-03 0. -1.
         11   -1    0    0    0    0 -0.00000000000E+00 -0.00000000000E+00 -0.45593999997E+02  0.45594000000E+02  0.51100000000E-03 0.  1.
    9900012    2    1    2    0    0  0.98371388519E+01 -0.47290444931E+01 -0.29959772275E+02  0.59301935373E+02  0.49999984216E+02 0.  0.
         12    1    1    2    0    0 -0.98371388519E+01  0.47290444931E+01  0.29959772275E+02  0.31886064627E+02  0.00000000000E+00 0. -1.
         11    1    3    3    0    0  0.67720281850E+01  0.81344483432E+01  0.21283755064E+01  0.10796277050E+02  0.51100000000E-03 0. -1.
        -11    1    3    3    0    0  0.14201177681E+02 -0.18403696818E+02 -0.16227538600E+02  0.28349647500E+02  0.51100000000E-03 0.  1.
        -12    1    3    3    0    0 -0.11136067014E+02  0.55402039817E+01 -0.15860609181E+02  0.20156010823E+02  0.00000000000E+00 0.  1.
</event>
<event>
 7    1  0.7457761E-012  0.5930193E+02  0.7816164E-02  0.1266605E+00
        -11   -1    0    0    0    0  0.00000000000E+00  0.00000000000E+00  0.45593999997E+02  0.45594000000E+02  0.51100000000E-03 0. -1.
         11   -1    0    0    0    0 -0.00000000000E+00 -0.00000000000E+00 -0.45593999997E+02  0.45594000000E+02  0.51100000000E-03 0.  1.
    9900012    2    1    2    0    0  0.27131789558E+02 -0.16486290155E+01  0.16669411432E+02  0.59301933141E+02  0.49999980145E+02 0.  0.
         12    1    1    2    0    0 -0.27131789558E+02  0.16486290155E+01 -0.16669411432E+02  0.31886066859E+02  0.00000000000E+00 0. -1.
         11    1    3    3    0    0 -0.24048724489E+00 -0.38291361823E+00  0.14212847041E+02  0.14220037912E+02  0.51100000000E-03 0. -1.
        -11    1    3    3    0    0  0.13358904600E+02 -0.14455481745E+02 -0.10080338811E+02  0.22114124794E+02  0.51100000000E-03 0.  1.
        -12    1    3    3    0    0  0.14013372203E+02  0.13189766348E+02  0.12536903202E+02  0.22967770434E+02  0.00000000000E+00 0.  1.
</event>
<event>
 7    1  0.7457761E-012  0.5930194E+02  0.7816164E-02  0.1266605E+00
        -11   -1    0    0    0    0  0.00000000000E+00  0.00000000000E+00  0.45593999997E+02  0.45594000000E+02  0.51100000000E-03 0. -1.
         11   -1    0    0    0    0 -0.00000000000E+00 -0.00000000000E+00 -0.45593999997E+02  0.45594000000E+02  0.51100000000E-03 0.  1.
    9900012    2    1    2    0    0  0.25851201053E+02 -0.16186856731E+02 -0.92963404119E+01  0.59301939225E+02  0.49999991241E+02 0.  0.
         12    1    1    2    0    0 -0.25851201053E+02  0.16186856731E+02  0.92963404119E+01  0.31886060775E+02  0.00000000000E+00 0. -1.
         11    1    3    3    0    0  0.21405265562E+02 -0.11634469154E+02  0.62168699543E+01  0.25143502910E+02  0.51100000000E-03 0. -1.
        -11    1    3    3    0    0 -0.18829391280E+01 -0.59426274493E+00 -0.23293076430E+02  0.23376612625E+02  0.51100000000E-03 0.  1.
         12    1    3    3    0    0  0.63288746189E+01 -0.39581248321E+01  0.77798660636E+01  0.10781823691E+02  0.00000000000E+00 0. -1.
</event>
<event>
 7    1  0.7457761E-012  0.5930195E+02  0.7816164E-02  0.1266605E+00
        -11   -1    0    0    0    0  0.00000000000E+00  0.00000000000E+00  0.45593999997E+02  0.45594000000E+02  0.51100000000E-03 0.  1.
         11   -1    0    0    0    0 -0.00000000000E+00 -0.00000000000E+00 -0.45593999997E+02  0.45594000000E+02  0.51100000000E-03 0. -1.
    9900012    2    1    2    0    0  0.86750079507E+01 -0.11887287544E+02  0.28287041854E+02  0.59301951249E+02  0.50000013170E+02 0.  0.
         12    1    1    2    0    0 -0.86750079507E+01  0.11887287544E+02 -0.28287041854E+02  0.31886048751E+02  0.00000000000E+00 0. -1.
         11    1    3    3    0    0 -0.10875278907E+02 -0.21246017007E+02  0.20106862509E+02  0.31208185628E+02  0.51100000000E-03 0.  1.
        -11    1    3    3    0    0  0.12358992573E+02  0.91348373987E+01  0.12404980216E+02  0.19750278128E+02  0.51100000000E-03 0. -1.
         12    1    3    3    0    0  0.71912942850E+01  0.22389206495E+00 -0.42248008706E+01  0.83434874930E+01  0.00000000000E+00 0. -1.
</event>
<event>
 7    1  0.7457761E-012  0.5930195E+02  0.7816164E-02  0.1266605E+00
        -11   -1    0    0    0    0  0.00000000000E+00  0.00000000000E+00  0.45593999997E+02  0.45594000000E+02  0.51100000000E-03 0.  1.
         11   -1    0    0    0    0 -0.00000000000E+00 -0.00000000000E+00 -0.45593999997E+02  0.45594000000E+02  0.51100000000E-03 0. -1.
    9900012    2    1    2    0    0 -0.72771268879E+01  0.29340109660E+02  0.10145040626E+02  0.59301945683E+02  0.50000003019E+02 0.  0.
         12    1    1    2    0    0  0.72771268879E+01 -0.29340109660E+02 -0.10145040626E+02  0.31886054317E+02  0.00000000000E+00 0. -1.
         11    1    3    3    0    0  0.17742298909E+02  0.90384991483E+01 -0.29022914954E+01  0.20122299411E+02  0.51100000000E-03 0. -1.
        -11    1    3    3    0    0 -0.19872727221E+02  0.22021067231E+02  0.15214364924E+02  0.33336610348E+02  0.51100000000E-03 0.  1.
         12    1    3    3    0    0 -0.51466985753E+01 -0.17194567187E+01 -0.21670328033E+01  0.58430359235E+01  0.00000000000E+00 0. -1.
</event>
<event>
 7    1  0.7457761E-012  0.5930179E+02  0.7816164E-02  0.1266605E+00
        -11   -1    0    0    0    0  0.00000000000E+00  0.00000000000E+00  0.45593999997E+02  0.45594000000E+02  0.51100000000E-03 0. -1.
         11   -1    0    0    0    0 -0.00000000000E+00 -0.00000000000E+00 -0.45593999997E+02  0.45594000000E+02  0.51100000000E-03 0.  1.
    9900012    2    1    2    0    0 -0.15319871091E+02 -0.72458724918E+01 -0.27009797557E+02  0.59301791657E+02  0.49999722111E+02 0.  0.
         12    1    1    2    0    0  0.15319871091E+02  0.72458724918E+01  0.27009797557E+02  0.31886208343E+02  0.00000000000E+00 0. -1.
         11    1    3    3    0    0 -0.19032391506E+02 -0.17083714965E+02 -0.43278695519E+01  0.25938691150E+02  0.51100000000E-03 0. -1.
        -11    1    3    3    0    0 -0.69441925505E+01 -0.12651390663E+00 -0.15744138377E+02  0.17208012943E+02  0.51100000000E-03 0.  1.
         12    1    3    3    0    0  0.10656712965E+02  0.99643563799E+01 -0.69377896282E+01  0.16155087564E+02  0.00000000000E+00 0. -1.
</event>
<event>
 7    1  0.7457761E-012  0.5930196E+02  0.7816164E-02  0.1266605E+00
        -11   -1    0    0    0    0  0.00000000000E+00  0.00000000000E+00  0.45593999997E+02  0.45594000000E+02  0.51100000000E-03 0.  1.
         11   -1    0    0    0    0 -0.00000000000E+00 -0.00000000000E+00 -0.45593999997E+02  0.45594000000E+02  0.51100000000E-03 0. -1.
    9900012    2    1    2    0    0  0.17261113699E+02  0.19279915918E+02  0.18629495843E+02  0.59301963569E+02  0.50000035639E+02 0.  0.
         12    1    1    2    0    0 -0.17261113699E+02 -0.19279915918E+02 -0.18629495843E+02  0.31886036431E+02  0.00000000000E+00 0. -1.
         11    1    3    3    0    0  0.19717566887E+02  0.46599767469E+01 -0.91592809036E+01  0.22234888220E+02  0.51100000000E-03 0. -1.
        -11    1    3    3    0    0  0.65879152736E+01  0.13989127972E+02  0.17718468506E+02  0.23516812189E+02  0.51100000000E-03 0.  1.
        -12    1    3    3    0    0 -0.90443684620E+01  0.63081119896E+00  0.10070308241E+02  0.13550263160E+02  0.00000000000E+00 0.  1.
</event>
<event>
 7    1  0.7457761E-012  0.5930193E+02  0.7816164E-02  0.1266605E+00
        -11   -1    0    0    0    0  0.00000000000E+00  0.00000000000E+00  0.45593999997E+02  0.45594000000E+02  0.51100000000E-03 0. -1.
         11   -1    0    0    0    0 -0.00000000000E+00 -0.00000000000E+00 -0.45593999997E+02  0.45594000000E+02  0.51100000000E-03 0.  1.
    9900012    2    1    2    0    0  0.73735618304E+01  0.27896350237E+02 -0.13570025886E+02  0.59301931363E+02  0.49999976902E+02 0.  0.
         12    1    1    2    0    0 -0.73735618304E+01 -0.27896350237E+02  0.13570025886E+02  0.31886068637E+02  0.00000000000E+00 0. -1.
         11    1    3    3    0    0 -0.66599188316E+01  0.11240013688E+01  0.42331471982E+01  0.79710371585E+01  0.51100000000E-03 0. -1.
        -11    1    3    3    0    0  0.81330827794E+01  0.36121603700E+02 -0.14804778134E+02  0.39876042246E+02  0.51100000000E-03 0.  1.
        -12    1    3    3    0    0  0.59003978826E+01 -0.93492548326E+01 -0.29983949505E+01  0.11454851958E+02  0.00000000000E+00 0.  1.
</event>
<event>
 7    1  0.7457761E-012  0.5930195E+02  0.7816164E-02  0.1266605E+00
        -11   -1    0    0    0    0  0.00000000000E+00  0.00000000000E+00  0.45593999997E+02  0.45594000000E+02  0.51100000000E-03 0.  1.
         11   -1    0    0    0    0 -0.00000000000E+00 -0.00000000000E+00 -0.45593999997E+02  0.45594000000E+02  0.51100000000E-03 0. -1.
    9900012    2    1    2    0    0 -0.31453376049E+02 -0.27433178512E+01  0.44586175636E+01  0.59301954019E+02  0.50000018222E+02 0.  0.
         12    1    1    2    0    0  0.31453376049E+02  0.27433178512E+01 -0.44586175636E+01  0.31886045981E+02  0.00000000000E+00 0. -1.
         11    1    3    3    0    0  0.14198905122E+01  0.12369704907E+02  0.69272028267E+01  0.14248221918E+02  0.51100000000E-03 0. -1.
        -11    1    3    3    0    0 -0.28409717308E+02 -0.83404679428E+01  0.90544453814E+01  0.30962209618E+02  0.51100000000E-03 0.  1.
         12    1    3    3    0    0 -0.44635492534E+01 -0.67725548157E+01 -0.11523030644E+02  0.14091522483E+02  0.00000000000E+00 0. -1.
</event>
<event>
 7    1  0.7457761E-012  0.5930193E+02  0.7816164E-02  0.1266605E+00
        -11   -1    0    0    0    0  0.00000000000E+00  0.00000000000E+00  0.45593999997E+02  0.45594000000E+02  0.51100000000E-03 0.  1.
         11   -1    0    0    0    0 -0.00000000000E+00 -0.00000000000E+00 -0.45593999997E+02  0.45594000000E+02  0.51100000000E-03 0. -1.
    9900012    2    1    2    0    0 -0.52455828392E+00 -0.31809350345E+02  0.21474087570E+01  0.59301932586E+02  0.49999979133E+02 0.  0.
         12    1    1    2    0    0  0.52455828392E+00  0.31809350345E+02 -0.21474087570E+01  0.31886067414E+02  0.00000000000E+00 0. -1.
         11    1    3    3    0    0  0.19868770673E+02 -0.18388532459E+02  0.68998020065E+01  0.27937670663E+02  0.51100000000E-03 0. -1.
        -11    1    3    3    0    0 -0.19084054738E+02 -0.13874104663E+02  0.27326748242E+01  0.23752040700E+02  0.51100000000E-03 0.  1.
         12    1    3    3    0    0 -0.13092742191E+01  0.45328677775E+00 -0.74850680737E+01  0.76122212232E+01  0.00000000000E+00 0. -1.
</event>
<event>
 7    1  0.7457761E-012  0.5930193E+02  0.7816164E-02  0.1266605E+00
        -11   -1    0    0    0    0  0.00000000000E+00  0.00000000000E+00  0.45593999997E+02  0.45594000000E+02  0.51100000000E-03 0.  1.
         11   -1    0    0    0    0 -0.00000000000E+00 -0.00000000000E+00 -0.45593999997E+02  0.45594000000E+02  0.51100000000E-03 0. -1.
    9900012    2    1    2    0    0 -0.66491898353E+01  0.28802766503E+02  0.11954506199E+02  0.59301932476E+02  0.49999978932E+02 0.  0.
         12    1    1    2    0    0  0.66491898353E+01 -0.28802766503E+02 -0.11954506199E+02  0.31886067524E+02  0.00000000000E+00 0. -1.
         11    1    3    3    0    0 -0.43442848763E+01 -0.98400728913E+01 -0.50358674763E+01  0.11876860153E+02  0.51100000000E-03 0. -1.
        -11    1    3    3    0    0  0.34548620476E+01  0.33640176529E+02  0.19925688304E+02  0.39250867549E+02  0.51100000000E-03 0.  1.
         12    1    3    3    0    0 -0.57597670066E+01  0.50026628651E+01 -0.29353146291E+01  0.81742047738E+01  0.00000000000E+00 0. -1.
</event>
<event>
 7    1  0.7457761E-012  0.5930194E+02  0.7816164E-02  0.1266605E+00
        -11   -1    0    0    0    0  0.00000000000E+00  0.00000000000E+00  0.45593999997E+02  0.45594000000E+02  0.51100000000E-03 0.  1.
         11   -1    0    0    0    0 -0.00000000000E+00 -0.00000000000E+00 -0.45593999997E+02  0.45594000000E+02  0.51100000000E-03 0. -1.
    9900012    2    1    2    0    0 -0.27686214962E+02  0.25462282936E+01  0.15611241065E+02  0.59301943094E+02  0.49999998297E+02 0.  0.
         12    1    1    2    0    0  0.27686214962E+02 -0.25462282936E+01 -0.15611241065E+02  0.31886056906E+02  0.00000000000E+00 0. -1.
         11    1    3    3    0    0 -0.29225986833E+02  0.18540908090E+02  0.16308457386E+01  0.34649433433E+02  0.51100000000E-03 0. -1.
        -11    1    3    3    0    0  0.69001776280E+01 -0.88366606619E+01  0.62752868428E+01  0.12848278024E+02  0.51100000000E-03 0.  1.
        -12    1    3    3    0    0 -0.53604057564E+01 -0.71580191341E+01  0.77051084838E+01  0.11804231637E+02  0.00000000000E+00 0.  1.
</event>
<event>
 7    1  0.7457761E-012  0.5930202E+02  0.7816164E-02  0.1266605E+00
        -11   -1    0    0    0    0  0.00000000000E+00  0.00000000000E+00  0.45593999997E+02  0.45594000000E+02  0.51100000000E-03 0.  1.
         11   -1    0    0    0    0 -0.00000000000E+00 -0.00000000000E+00 -0.45593999997E+02  0.45594000000E+02  0.51100000000E-03 0. -1.
    9900012    2    1    2    0    0 -0.62197365834E+00 -0.23990760991E+02  0.20994584181E+02  0.59302015162E+02  0.50000129732E+02 0.  0.
         12    1    1    2    0    0  0.62197365834E+00  0.23990760991E+02 -0.20994584181E+02  0.31885984838E+02  0.00000000000E+00 0. -1.
         11    1    3    3    0    0  0.28788273280E+01 -0.91132097044E+01 -0.14424045582E+02  0.17302928339E+02  0.51100000000E-03 0. -1.
        -11    1    3    3    0    0  0.33742652136E+01 -0.14692115924E+02  0.28514134266E+02  0.32253678694E+02  0.51100000000E-03 0.  1.
         12    1    3    3    0    0 -0.68750662000E+01 -0.18543536196E+00  0.69044954974E+01  0.97454081290E+01  0.00000000000E+00 0. -1.
</event>
<event>
 7    1  0.7457761E-012  0.5930192E+02  0.7816164E-02  0.1266605E+00
        -11   -1    0    0    0    0  0.00000000000E+00  0.00000000000E+00  0.45593999997E+02  0.45594000000E+02  0.51100000000E-03 0.  1.
         11   -1    0    0    0    0 -0.00000000000E+00 -0.00000000000E+00 -0.45593999997E+02  0.45594000000E+02  0.51100000000E-03 0. -1.
    9900012    2    1    2    0    0 -0.17992125752E+02 -0.19913721085E+02  0.17217693489E+02  0.59301923954E+02  0.49999963390E+02 0.  0.
         12    1    1    2    0    0  0.17992125752E+02  0.19913721085E+02 -0.17217693489E+02  0.31886076046E+02  0.00000000000E+00 0. -1.
         11    1    3    3    0    0  0.62084340560E+00  0.55144123792E+01  0.15468774995E+02  0.16434025391E+02  0.51100000000E-03 0. -1.
        -11    1    3    3    0    0 -0.23252532700E+02 -0.17245075630E+02  0.97203192009E+01  0.30537804703E+02  0.51100000000E-03 0.  1.
         12    1    3    3    0    0  0.46395635419E+01 -0.81830578343E+01 -0.79714007069E+01  0.12330093861E+02  0.00000000000E+00 0. -1.
</event>
<event>
 7    1  0.7457761E-012  0.5930193E+02  0.7816164E-02  0.1266605E+00
        -11   -1    0    0    0    0  0.00000000000E+00  0.00000000000E+00  0.45593999997E+02  0.45594000000E+02  0.51100000000E-03 0.  1.
         11   -1    0    0    0    0 -0.00000000000E+00 -0.00000000000E+00 -0.45593999997E+02  0.45594000000E+02  0.51100000000E-03 0. -1.
    9900012    2    1    2    0    0  0.29392593360E+02 -0.53229233300E+00  0.12349631975E+02  0.59301932675E+02  0.49999979296E+02 0.  0.
         12    1    1    2    0    0 -0.29392593360E+02  0.53229233300E+00 -0.12349631975E+02  0.31886067325E+02  0.00000000000E+00 0. -1.
         11    1    3    3    0    0  0.19188949401E+02  0.14461211906E+02 -0.96889547268E+01  0.25907880516E+02  0.51100000000E-03 0. -1.
        -11    1    3    3    0    0  0.14278437978E+02 -0.79776986591E+01  0.11066256208E+02  0.19747898463E+02  0.51100000000E-03 0.  1.
         12    1    3    3    0    0 -0.40747940193E+01 -0.70158055796E+01  0.10972330493E+02  0.13646153696E+02  0.00000000000E+00 0. -1.
</event>
<event>
 7    1  0.7457761E-012  0.5930196E+02  0.7816164E-02  0.1266605E+00
        -11   -1    0    0    0    0  0.00000000000E+00  0.00000000000E+00  0.45593999997E+02  0.45594000000E+02  0.51100000000E-03 0.  1.
         11   -1    0    0    0    0 -0.00000000000E+00 -0.00000000000E+00 -0.45593999997E+02  0.45594000000E+02  0.51100000000E-03 0. -1.
    9900012    2    1    2    0    0  0.76857325491E+01 -0.30898901058E+02 -0.17049698970E+01  0.59301960833E+02  0.50000030649E+02 0.  0.
         12    1    1    2    0    0 -0.76857325491E+01  0.30898901058E+02  0.17049698970E+01  0.31886039167E+02  0.00000000000E+00 0. -1.
         11    1    3    3    0    0  0.86550281567E+01 -0.19119550573E+02 -0.21355892027E+02  0.29942292014E+02  0.51100000000E-03 0. -1.
        -11    1    3    3    0    0 -0.88471616909E+01 -0.78967036339E+01  0.15836376843E+02  0.19784363271E+02  0.51100000000E-03 0.  1.
        -12    1    3    3    0    0  0.78778660833E+01 -0.38826468507E+01  0.38145452874E+01  0.95753055483E+01  0.00000000000E+00 0.  1.
</event>
<event>
 7    1  0.7457761E-012  0.5930193E+02  0.7816164E-02  0.1266605E+00
        -11   -1    0    0    0    0  0.00000000000E+00  0.00000000000E+00  0.45593999997E+02  0.45594000000E+02  0.51100000000E-03 0. -1.
         11   -1    0    0    0    0 -0.00000000000E+00 -0.00000000000E+00 -0.45593999997E+02  0.45594000000E+02  0.51100000000E-03 0.  1.
    9900012    2    1    2    0    0  0.10854998456E+02  0.19057531587E+01 -0.29920873261E+02  0.59301928695E+02  0.49999972037E+02 0.  0.
         12    1    1    2    0    0 -0.10854998456E+02 -0.19057531587E+01  0.29920873261E+02  0.31886071305E+02  0.00000000000E+00 0. -1.
         11    1    3    3    0    0 -0.11689931758E+01  0.31262856878E+01 -0.11964158956E+01  0.35456478256E+01  0.51100000000E-03 0. -1.
        -11    1    3    3    0    0  0.23092243407E+02 -0.12398779383E+02 -0.30162964769E+02  0.39959803299E+02  0.51100000000E-03 0.  1.
        -12    1    3    3    0    0 -0.11068251775E+02  0.11178246854E+02  0.14385074036E+01  0.15796477571E+02  0.00000000000E+00 0.  1.
</event>
<event>
 7    1  0.7457761E-012  0.5930195E+02  0.7816164E-02  0.1266605E+00
        -11   -1    0    0    0    0  0.00000000000E+00  0.00000000000E+00  0.45593999997E+02  0.45594000000E+02  0.51100000000E-03 0.  1.
         11   -1    0    0    0    0 -0.00000000000E+00 -0.00000000000E+00 -0.45593999997E+02  0.45594000000E+02  0.51100000000E-03 0. -1.
    9900012    2    1    2    0    0 -0.11152191787E+02  0.95295092880E+01  0.28311433808E+02  0.59301949552E+02  0.50000010074E+02 0.  0.
         12    1    1    2    0    0  0.11152191787E+02 -0.95295092880E+01 -0.28311433808E+02  0.31886050448E+02  0.00000000000E+00 0. -1.
         11    1    3    3    0    0  0.15083379358E+02  0.16085793736E+02  0.17809172054E+02  0.28344800272E+02  0.51100000000E-03 0.  1.
        -11    1    3    3    0    0 -0.22393953701E+02 -0.22311577860E+01  0.11186853080E+02  0.25131910184E+02  0.51100000000E-03 0. -1.
        -12    1    3    3    0    0 -0.38416174443E+01 -0.43251266620E+01 -0.68459132537E+00  0.58252390950E+01  0.00000000000E+00 0.  1.
</event>
<event>
 7    1  0.7457761E-012  0.5930193E+02  0.7816164E-02  0.1266605E+00
        -11   -1    0    0    0    0  0.00000000000E+00  0.00000000000E+00  0.45593999997E+02  0.45594000000E+02  0.51100000000E-03 0. -1.
         11   -1    0    0    0    0 -0.00000000000E+00 -0.00000000000E+00 -0.45593999997E+02  0.45594000000E+02  0.51100000000E-03 0.  1.
    9900012    2    1    2    0    0  0.15697848340E+02  0.83796691311E+01 -0.26459030015E+02  0.59301928329E+02  0.49999971370E+02 0.  0.
         12    1    1    2    0    0 -0.15697848340E+02 -0.83796691311E+01  0.26459030015E+02  0.31886071671E+02  0.00000000000E+00 0. -1.
         11    1    3    3    0    0  0.23328011808E+02  0.22992709687E+02 -0.13575899734E+02  0.35456535188E+02  0.51100000000E-03 0. -1.
        -11    1    3    3    0    0 -0.54465626604E+01 -0.13750719904E+01 -0.75428435156E+01  0.94048049610E+01  0.51100000000E-03 0.  1.
         12    1    3    3    0    0 -0.21836008082E+01 -0.13237968566E+02 -0.53402867660E+01  0.14440588180E+02  0.00000000000E+00 0. -1.
</event>
<event>
 7    1  0.7457761E-012  0.5930193E+02  0.7816164E-02  0.1266605E+00
        -11   -1    0    0    0    0  0.00000000000E+00  0.00000000000E+00  0.45593999997E+02  0.45594000000E+02  0.51100000000E-03 0. -1.
         11   -1    0    0    0    0 -0.00000000000E+00 -0.00000000000E+00 -0.45593999997E+02  0.45594000000E+02  0.51100000000E-03 0.  1.
    9900012    2    1    2    0    0  0.22008833623E+02 -0.10895192491E+02 -0.20337831263E+02  0.59301931610E+02  0.49999977354E+02 0.  0.
         12    1    1    2    0    0 -0.22008833623E+02  0.10895192491E+02  0.20337831263E+02  0.31886068390E+02  0.00000000000E+00 0. -1.
         11    1    3    3    0    0 -0.32142133324E+01  0.50752036330E+01 -0.12260103293E+02  0.13652801628E+02  0.51100000000E-03 0. -1.
        -11    1    3    3    0    0  0.15104287140E+02 -0.35981796965E+01  0.12259137840E+02  0.19783145553E+02  0.51100000000E-03 0.  1.
        -12    1    3    3    0    0  0.10118759816E+02 -0.12372216428E+02 -0.20336865810E+02  0.25865984430E+02  0.00000000000E+00 0.  1.
</event>
<event>
 7    1  0.7457761E-012  0.5930190E+02  0.7816164E-02  0.1266605E+00
        -11   -1    0    0    0    0  0.00000000000E+00  0.00000000000E+00  0.45593999997E+02  0.45594000000E+02  0.51100000000E-03 0.  1.
         11   -1    0    0    0    0 -0.00000000000E+00 -0.00000000000E+00 -0.45593999997E+02  0.45594000000E+02  0.51100000000E-03 0. -1.
    9900012    2    1    2    0    0  0.21623197010E+02 -0.16070587472E+02  0.17055691888E+02  0.59301904968E+02  0.49999928764E+02 0.  0.
         12    1    1    2    0    0 -0.21623197010E+02  0.16070587472E+02 -0.17055691888E+02  0.31886095032E+02  0.00000000000E+00 0. -1.
         11    1    3    3    0    0  0.82333895496E+01  0.10719712631E+02 -0.59020056759E+01  0.14749054669E+02  0.51100000000E-03 0. -1.
        -11    1    3    3    0    0  0.13715413836E+02 -0.29195945841E+02  0.25439311740E+02  0.41081314637E+02  0.51100000000E-03 0.  1.
        -12    1    3    3    0    0 -0.32560637508E+00  0.24056457382E+01 -0.24816141761E+01  0.34715356614E+01  0.00000000000E+00 0.  1.
</event>
<event>
 7    1  0.7457761E-012  0.5930194E+02  0.7816164E-02  0.1266605E+00
        -11   -1    0    0    0    0  0.00000000000E+00  0.00000000000E+00  0.45593999997E+02  0.45594000000E+02  0.51100000000E-03 0.  1.
         11   -1    0    0    0    0 -0.00000000000E+00 -0.00000000000E+00 -0.45593999997E+02  0.45594000000E+02  0.51100000000E-03 0. -1.
    9900012    2    1    2    0    0  0.76529028237E+01  0.30670716313E+02 -0.41786811731E+01  0.59301935064E+02  0.49999983652E+02 0.  0.
         12    1    1    2    0    0 -0.76529028237E+01 -0.30670716313E+02  0.41786811731E+01  0.31886064936E+02  0.00000000000E+00 0. -1.
         11    1    3    3    0    0 -0.58557541065E+00 -0.43344503830E+01 -0.18266353701E+02  0.18782705781E+02  0.51100000000E-03 0. -1.
        -11    1    3    3    0    0 -0.11847081926E+01  0.19283235067E+02  0.99377187347E+01  0.21725674720E+02  0.51100000000E-03 0.  1.
         12    1    3    3    0    0  0.94231864269E+01  0.15721931629E+02  0.41499537930E+01  0.18793554562E+02  0.00000000000E+00 0. -1.
</event>
<event>
 7    1  0.7457761E-012  0.5930191E+02  0.7816164E-02  0.1266605E+00
        -11   -1    0    0    0    0  0.00000000000E+00  0.00000000000E+00  0.45593999997E+02  0.45594000000E+02  0.51100000000E-03 0.  1.
         11   -1    0    0    0    0 -0.00000000000E+00 -0.00000000000E+00 -0.45593999997E+02  0.45594000000E+02  0.51100000000E-03 0. -1.
    9900012    2    1    2    0    0 -0.48670758698E+01  0.40474600378E+01  0.31251434277E+02  0.59301913620E+02  0.49999944543E+02 0.  0.
         12    1    1    2    0    0  0.48670758698E+01 -0.40474600378E+01 -0.31251434277E+02  0.31886086380E+02  0.00000000000E+00 0. -1.
         11    1    3    3    0    0  0.17996578132E+01 -0.17990725304E+01 -0.44165441961E+01  0.50971848222E+01  0.51100000000E-03 0. -1.
        -11    1    3    3    0    0  0.66630071316E+01  0.19653930211E+02  0.24068175665E+02  0.31779706054E+02  0.51100000000E-03 0.  1.
        -12    1    3    3    0    0 -0.13329740815E+02 -0.13807397643E+02  0.11599802808E+02  0.22425022743E+02  0.00000000000E+00 0.  1.
</event>
<event>
 7    1  0.7457761E-012  0.5930195E+02  0.7816164E-02  0.1266605E+00
        -11   -1    0    0    0    0  0.00000000000E+00  0.00000000000E+00  0.45593999997E+02  0.45594000000E+02  0.51100000000E-03 0. -1.
         11   -1    0    0    0    0 -0.00000000000E+00 -0.00000000000E+00 -0.45593999997E+02  0.45594000000E+02  0.51100000000E-03 0.  1.
    9900012    2    1    2    0    0 -0.21813946952E+02  0.19796048520E+02 -0.12206072351E+02  0.59301952568E+02  0.50000015575E+02 0.  0.
         12    1    1    2    0    0  0.21813946952E+02 -0.19796048520E+02  0.12206072351E+02  0.31886047432E+02  0.00000000000E+00 0. -1.
         11    1    3    3    0    0 -0.25622586441E+02  0.28057325815E+02 -0.11284051836E+02  0.39636602956E+02  0.51100000000E-03 0. -1.
        -11    1    3    3    0    0  0.17285543285E+01 -0.13620489247E+02 -0.18096963393E+01  0.13848488310E+02  0.51100000000E-03 0.  1.
        -12    1    3    3    0    0  0.20800851612E+01  0.53592119524E+01  0.88767582382E+00  0.58168613012E+01  0.00000000000E+00 0.  1.
</event>
<event>
 7    1  0.7457761E-012  0.5930193E+02  0.7816164E-02  0.1266605E+00
        -11   -1    0    0    0    0  0.00000000000E+00  0.00000000000E+00  0.45593999997E+02  0.45594000000E+02  0.51100000000E-03 0.  1.
         11   -1    0    0    0    0 -0.00000000000E+00 -0.00000000000E+00 -0.45593999997E+02  0.45594000000E+02  0.51100000000E-03 0. -1.
    9900012    2    1    2    0    0  0.21928543214E+02 -0.57989486814E+01  0.22410547123E+02  0.59301930382E+02  0.49999975114E+02 0.  0.
         12    1    1    2    0    0 -0.21928543214E+02  0.57989486814E+01 -0.22410547123E+02  0.31886069618E+02  0.00000000000E+00 0. -1.
         11    1    3    3    0    0 -0.67568314758E+01 -0.65875495704E+01  0.15558662249E+02  0.18196773125E+02  0.51100000000E-03 0. -1.
        -11    1    3    3    0    0  0.30944572617E+02 -0.60283455331E+01  0.51960373127E+00  0.31530580594E+02  0.51100000000E-03 0.  1.
         12    1    3    3    0    0 -0.22591979271E+01  0.68169464221E+01  0.63322811435E+01  0.95745766631E+01  0.00000000000E+00 0. -1.
</event>
<event>
 7    1  0.7457761E-012  0.5930195E+02  0.7816164E-02  0.1266605E+00
        -11   -1    0    0    0    0  0.00000000000E+00  0.00000000000E+00  0.45593999997E+02  0.45594000000E+02  0.51100000000E-03 0. -1.
         11   -1    0    0    0    0 -0.00000000000E+00 -0.00000000000E+00 -0.45593999997E+02  0.45594000000E+02  0.51100000000E-03 0.  1.
    9900012    2    1    2    0    0  0.77680852121E+01 -0.70571433978E+01 -0.30109365483E+02  0.59301948024E+02  0.50000007288E+02 0.  0.
         12    1    1    2    0    0 -0.77680852121E+01  0.70571433978E+01  0.30109365483E+02  0.31886051976E+02  0.00000000000E+00 0. -1.
         11    1    3    3    0    0  0.15070736926E+01  0.20263892821E+01  0.23665253099E+00  0.25364402849E+01  0.51100000000E-03 0. -1.
        -11    1    3    3    0    0  0.17910101519E+02 -0.18395134008E+02 -0.32798303110E+02  0.41651907265E+02  0.51100000000E-03 0.  1.
        -12    1    3    3    0    0 -0.11649089999E+02  0.93116013284E+01  0.24522850961E+01  0.15113600474E+02  0.00000000000E+00 0.  1.
</event>
<event>
 7    1  0.7457761E-012  0.5930194E+02  0.7816164E-02  0.1266605E+00
        -11   -1    0    0    0    0  0.00000000000E+00  0.00000000000E+00  0.45593999997E+02  0.45594000000E+02  0.51100000000E-03 0.  1.
         11   -1    0    0    0    0 -0.00000000000E+00 -0.00000000000E+00 -0.45593999997E+02  0.45594000000E+02  0.51100000000E-03 0. -1.
    9900012    2    1    2    0    0 -0.26382943582E+02  0.10151197240E+02  0.14751762935E+02  0.59301936789E+02  0.49999986798E+02 0.  0.
         12    1    1    2    0    0  0.26382943582E+02 -0.10151197240E+02 -0.14751762935E+02  0.31886063211E+02  0.00000000000E+00 0. -1.
         11    1    3    3    0    0 -0.26752382134E+01 -0.10579804764E+02  0.76077610876E+01  0.13302901840E+02  0.51100000000E-03 0. -1.
        -11    1    3    3    0    0 -0.29938192764E+02  0.23783618312E+02  0.78235132871E+01  0.39027724074E+02  0.51100000000E-03 0.  1.
        -12    1    3    3    0    0  0.62304873961E+01 -0.30526163086E+01 -0.67951144021E+00  0.69713108751E+01  0.00000000000E+00 0.  1.
</event>
<event>
 7    1  0.7457761E-012  0.5930194E+02  0.7816164E-02  0.1266605E+00
        -11   -1    0    0    0    0  0.00000000000E+00  0.00000000000E+00  0.45593999997E+02  0.45594000000E+02  0.51100000000E-03 0. -1.
         11   -1    0    0    0    0 -0.00000000000E+00 -0.00000000000E+00 -0.45593999997E+02  0.45594000000E+02  0.51100000000E-03 0.  1.
    9900012    2    1    2    0    0 -0.31005480228E+02 -0.72691687472E+01 -0.15937073407E+01  0.59301944717E+02  0.50000001256E+02 0.  0.
         12    1    1    2    0    0  0.31005480228E+02  0.72691687472E+01  0.15937073407E+01  0.31886055283E+02  0.00000000000E+00 0. -1.
         11    1    3    3    0    0 -0.12012690549E+02  0.91639350354E+01  0.56394392441E+01  0.16127173181E+02  0.51100000000E-03 0. -1.
        -11    1    3    3    0    0 -0.15195529873E+02 -0.65911324113E+01 -0.20416509615E+02  0.26290321788E+02  0.51100000000E-03 0.  1.
        -12    1    3    3    0    0 -0.37972598064E+01 -0.98419713712E+01  0.13183363030E+02  0.16884449748E+02  0.00000000000E+00 0.  1.
</event>
<event>
 7    1  0.7457761E-012  0.5930192E+02  0.7816164E-02  0.1266605E+00
        -11   -1    0    0    0    0  0.00000000000E+00  0.00000000000E+00  0.45593999997E+02  0.45594000000E+02  0.51100000000E-03 0.  1.
         11   -1    0    0    0    0 -0.00000000000E+00 -0.00000000000E+00 -0.45593999997E+02  0.45594000000E+02  0.51100000000E-03 0. -1.
    9900012    2    1    2    0    0 -0.30568171937E+01 -0.24560642244E+02  0.20103545529E+02  0.59301924331E+02  0.49999964077E+02 0.  0.
         12    1    1    2    0    0  0.30568171937E+01  0.24560642244E+02 -0.20103545529E+02  0.31886075669E+02  0.00000000000E+00 0. -1.
         11    1    3    3    0    0 -0.12499732203E+02 -0.31148716082E+01  0.18615637881E+02  0.22638191276E+02  0.51100000000E-03 0.  1.
        -11    1    3    3    0    0  0.41251629748E+01 -0.25502183088E+02 -0.61049420456E+01  0.26545218581E+02  0.51100000000E-03 0. -1.
         12    1    3    3    0    0  0.53177520348E+01  0.40564124531E+01  0.75928496932E+01  0.10118514474E+02  0.00000000000E+00 0. -1.
</event>
<event>
 7    1  0.7457761E-012  0.5930195E+02  0.7816164E-02  0.1266605E+00
        -11   -1    0    0    0    0  0.00000000000E+00  0.00000000000E+00  0.45593999997E+02  0.45594000000E+02  0.51100000000E-03 0. -1.
         11   -1    0    0    0    0 -0.00000000000E+00 -0.00000000000E+00 -0.45593999997E+02  0.45594000000E+02  0.51100000000E-03 0.  1.
    9900012    2    1    2    0    0 -0.13859198506E+02 -0.25675332293E+02 -0.12861573460E+02  0.59301950645E+02  0.50000012069E+02 0.  0.
         12    1    1    2    0    0  0.13859198506E+02  0.25675332293E+02  0.12861573460E+02  0.31886049355E+02  0.00000000000E+00 0. -1.
         11    1    3    3    0    0 -0.17407767015E+02 -0.21438339770E+01  0.10518155724E+02  0.20451356352E+02  0.51100000000E-03 0. -1.
        -11    1    3    3    0    0 -0.77768466626E+01 -0.11732227996E+02 -0.70638152354E+01  0.15748714351E+02  0.51100000000E-03 0.  1.
         12    1    3    3    0    0  0.11325415171E+02 -0.11799270320E+02 -0.16315913948E+02  0.23101879942E+02  0.00000000000E+00 0. -1.
</event>
<event>
 7    1  0.7457761E-012  0.5930194E+02  0.7816164E-02  0.1266605E+00
        -11   -1    0    0    0    0  0.00000000000E+00  0.00000000000E+00  0.45593999997E+02  0.45594000000E+02  0.51100000000E-03 0. -1.
         11   -1    0    0    0    0 -0.00000000000E+00 -0.00000000000E+00 -0.45593999997E+02  0.45594000000E+02  0.51100000000E-03 0.  1.
    9900012    2    1    2    0    0 -0.45935232707E+01 -0.30430283225E+02 -0.83437653440E+01  0.59301937005E+02  0.49999987192E+02 0.  0.
         12    1    1    2    0    0  0.45935232707E+01  0.30430283225E+02  0.83437653440E+01  0.31886062995E+02  0.00000000000E+00 0. -1.
         11    1    3    3    0    0  0.49939650462E+01 -0.13976322776E+02 -0.15305314814E+02  0.21319707949E+02  0.51100000000E-03 0.  1.
        -11    1    3    3    0    0  0.72524740231E+01 -0.65349456667E+01  0.14121907247E+02  0.17167765110E+02  0.51100000000E-03 0. -1.
        -12    1    3    3    0    0 -0.16839962340E+02 -0.99190147821E+01 -0.71603577770E+01  0.20814463946E+02  0.00000000000E+00 0.  1.
</event>
<event>
 7    1  0.7457761E-012  0.5930187E+02  0.7816164E-02  0.1266605E+00
        -11   -1    0    0    0    0  0.00000000000E+00  0.00000000000E+00  0.45593999997E+02  0.45594000000E+02  0.51100000000E-03 0. -1.
         11   -1    0    0    0    0 -0.00000000000E+00 -0.00000000000E+00 -0.45593999997E+02  0.45594000000E+02  0.51100000000E-03 0.  1.
    9900012    2    1    2    0    0  0.19341291880E+02 -0.98464740641E+01 -0.23359940856E+02  0.59301867279E+02  0.49999860029E+02 0.  0.
         12    1    1    2    0    0 -0.19341291880E+02  0.98464740641E+01  0.23359940856E+02  0.31886132721E+02  0.00000000000E+00 0. -1.
         11    1    3    3    0    0 -0.98475638102E+01 -0.15296210543E+02 -0.23068457483E+02  0.29378602772E+02  0.51100000000E-03 0. -1.
        -11    1    3    3    0    0  0.98136021127E+01  0.22811478312E+01 -0.17920331327E+01  0.10233367230E+02  0.51100000000E-03 0.  1.
         12    1    3    3    0    0  0.19375253577E+02  0.31685886473E+01  0.15005497592E+01  0.19689897277E+02  0.00000000000E+00 0. -1.
</event>
<event>
 7    1  0.7457761E-012  0.5930183E+02  0.7816164E-02  0.1266605E+00
        -11   -1    0    0    0    0  0.00000000000E+00  0.00000000000E+00  0.45593999997E+02  0.45594000000E+02  0.51100000000E-03 0. -1.
         11   -1    0    0    0    0 -0.00000000000E+00 -0.00000000000E+00 -0.45593999997E+02  0.45594000000E+02  0.51100000000E-03 0.  1.
    9900012    2    1    2    0    0 -0.63499516647E+00 -0.31832203126E+02 -0.17422869274E+01  0.59301828413E+02  0.49999789146E+02 0.  0.
         12    1    1    2    0    0  0.63499516647E+00  0.31832203126E+02  0.17422869274E+01  0.31886171587E+02  0.00000000000E+00 0. -1.
         11    1    3    3    0    0 -0.19607026672E+02 -0.20135349873E+02  0.25127364064E+01  0.28216691052E+02  0.51100000000E-03 0. -1.
        -11    1    3    3    0    0  0.40110460080E+01  0.53887525351E+01 -0.49818983684E+01  0.83633997619E+01  0.51100000000E-03 0.  1.
         12    1    3    3    0    0  0.14960985497E+02 -0.17085605788E+02  0.72687503459E+00  0.22721737599E+02  0.00000000000E+00 0. -1.
</event>
<event>
 7    1  0.7457761E-012  0.5930192E+02  0.7816164E-02  0.1266605E+00
        -11   -1    0    0    0    0  0.00000000000E+00  0.00000000000E+00  0.45593999997E+02  0.45594000000E+02  0.51100000000E-03 0. -1.
         11   -1    0    0    0    0 -0.00000000000E+00 -0.00000000000E+00 -0.45593999997E+02  0.45594000000E+02  0.51100000000E-03 0.  1.
    9900012    2    1    2    0    0 -0.28404697666E+01 -0.22188077237E+02 -0.22723179766E+02  0.59301922495E+02  0.49999960730E+02 0.  0.
         12    1    1    2    0    0  0.28404697666E+01  0.22188077237E+02  0.22723179766E+02  0.31886077505E+02  0.00000000000E+00 0. -1.
         11    1    3    3    0    0  0.14322312874E+02  0.49873510318E+01 -0.13017301574E+02  0.19986306735E+02  0.51100000000E-03 0.  1.
        -11    1    3    3    0    0 -0.17594103255E+02 -0.19133418348E+02  0.88781670328E+00  0.26008236884E+02  0.51100000000E-03 0. -1.
        -12    1    3    3    0    0  0.43132061455E+00 -0.80420099206E+01 -0.10593694895E+02  0.13307378877E+02  0.00000000000E+00 0.  1.
</event>
<event>
 7    1  0.7457761E-012  0.5930194E+02  0.7816164E-02  0.1266605E+00
        -11   -1    0    0    0    0  0.00000000000E+00  0.00000000000E+00  0.45593999997E+02  0.45594000000E+02  0.51100000000E-03 0.  1.
         11   -1    0    0    0    0 -0.00000000000E+00 -0.00000000000E+00 -0.45593999997E+02  0.45594000000E+02  0.51100000000E-03 0. -1.
    9900012    2    1    2    0    0  0.82078162919E+01 -0.30201506825E+00  0.30810088480E+02  0.59301937001E+02  0.49999987185E+02 0.  0.
         12    1    1    2    0    0 -0.82078162919E+01  0.30201506825E+00 -0.30810088480E+02  0.31886062999E+02  0.00000000000E+00 0. -1.
         11    1    3    3    0    0  0.14664781933E+02 -0.15603554355E+02  0.26507968823E+02  0.34076372298E+02  0.51100000000E-03 0.  1.
        -11    1    3    3    0    0 -0.12685923513E+02  0.10366233776E+02  0.43731987459E+00  0.16388493128E+02  0.51100000000E-03 0. -1.
        -12    1    3    3    0    0  0.62289578721E+01  0.49353055111E+01  0.38647997833E+01  0.88370715752E+01  0.00000000000E+00 0.  1.
</event>
<event>
 7    1  0.7457761E-012  0.5930196E+02  0.7816164E-02  0.1266605E+00
        -11   -1    0    0    0    0  0.00000000000E+00  0.00000000000E+00  0.45593999997E+02  0.45594000000E+02  0.51100000000E-03 0.  1.
         11   -1    0    0    0    0 -0.00000000000E+00 -0.00000000000E+00 -0.45593999997E+02  0.45594000000E+02  0.51100000000E-03 0. -1.
    9900012    2    1    2    0    0 -0.16015364742E+02  0.15071214277E+02  0.23088659219E+02  0.59301959290E+02  0.50000027834E+02 0.  0.
         12    1    1    2    0    0  0.16015364742E+02 -0.15071214277E+02 -0.23088659219E+02  0.31886040710E+02  0.00000000000E+00 0. -1.
         11    1    3    3    0    0 -0.45993179869E+01 -0.12036020616E+02 -0.98704856547E+00  0.12922607452E+02  0.51100000000E-03 0. -1.
        -11    1    3    3    0    0 -0.41902073444E+01  0.30990910659E+02  0.17297319586E+02  0.35737818151E+02  0.51100000000E-03 0.  1.
         12    1    3    3    0    0 -0.72258394111E+01 -0.38836757655E+01  0.67783881983E+01  0.10641533687E+02  0.00000000000E+00 0. -1.
</event>
<event>
 7    1  0.7457761E-012  0.5930194E+02  0.7816164E-02  0.1266605E+00
        -11   -1    0    0    0    0  0.00000000000E+00  0.00000000000E+00  0.45593999997E+02  0.45594000000E+02  0.51100000000E-03 0.  1.
         11   -1    0    0    0    0 -0.00000000000E+00 -0.00000000000E+00 -0.45593999997E+02  0.45594000000E+02  0.51100000000E-03 0. -1.
    9900012    2    1    2    0    0  0.11268520757E+02 -0.40698667856E+00  0.29825756804E+02  0.59301937729E+02  0.49999988513E+02 0.  0.
         12    1    1    2    0    0 -0.11268520757E+02  0.40698667856E+00 -0.29825756804E+02  0.31886062271E+02  0.00000000000E+00 0. -1.
         11    1    3    3    0    0  0.58075551186E+00  0.18284038290E+02  0.26733739809E+01  0.18487570469E+02  0.51100000000E-03 0. -1.
        -11    1    3    3    0    0  0.91602960614E+01 -0.15493591104E+01  0.20236435218E+02  0.22267124829E+02  0.51100000000E-03 0.  1.
         12    1    3    3    0    0  0.15274691836E+01 -0.17141665858E+02  0.69159476054E+01  0.18547242431E+02  0.00000000000E+00 0. -1.
</event>
<event>
 7    1  0.7457761E-012  0.5930195E+02  0.7816164E-02  0.1266605E+00
        -11   -1    0    0    0    0  0.00000000000E+00  0.00000000000E+00  0.45593999997E+02  0.45594000000E+02  0.51100000000E-03 0. -1.
         11   -1    0    0    0    0 -0.00000000000E+00 -0.00000000000E+00 -0.45593999997E+02  0.45594000000E+02  0.51100000000E-03 0.  1.
    9900012    2    1    2    0    0 -0.11090010146E+02 -0.26208816419E+02 -0.14381587179E+02  0.59301946106E+02  0.50000003791E+02 0.  0.
         12    1    1    2    0    0  0.11090010146E+02  0.26208816419E+02  0.14381587179E+02  0.31886053894E+02  0.00000000000E+00 0. -1.
         11    1    3    3    0    0  0.76487436026E+01 -0.48842144605E+01  0.12781052850E+02  0.15675271666E+02  0.51100000000E-03 0. -1.
        -11    1    3    3    0    0 -0.11941316766E+02 -0.23613663584E+02 -0.24226345212E+02  0.35876398321E+02  0.51100000000E-03 0.  1.
         12    1    3    3    0    0 -0.67974369829E+01  0.22890616252E+01 -0.29362948178E+01  0.77502761188E+01  0.00000000000E+00 0. -1.
</event>
<event>
 7    1  0.7457761E-012  0.5930196E+02  0.7816164E-02  0.1266605E+00
        -11   -1    0    0    0    0  0.00000000000E+00  0.00000000000E+00  0.45593999997E+02  0.45594000000E+02  0.51100000000E-03 0.  1.
         11   -1    0    0    0    0 -0.00000000000E+00 -0.00000000000E+00 -0.45593999997E+02  0.45594000000E+02  0.51100000000E-03 0. -1.
    9900012    2    1    2    0    0 -0.83678587395E+00  0.31577599196E+02  0.43444913528E+01  0.59301959376E+02  0.50000027991E+02 0.  0.
         12    1    1    2    0    0  0.83678587395E+00 -0.31577599196E+02 -0.43444913528E+01  0.31886040624E+02  0.00000000000E+00 0. -1.
         11    1    3    3    0    0 -0.16585962364E+02  0.23092700197E+02  0.10021993907E+02  0.30146431167E+02  0.51100000000E-03 0.  1.
        -11    1    3    3    0    0  0.61754653440E+01  0.26073833019E+01 -0.13766881868E+02  0.15312147352E+02  0.51100000000E-03 0. -1.
         12    1    3    3    0    0  0.95737111463E+01  0.58775156966E+01  0.80893793137E+01  0.13843380857E+02  0.00000000000E+00 0. -1.
</event>
<event>
 7    1  0.7457761E-012  0.5930189E+02  0.7816164E-02  0.1266605E+00
        -11   -1    0    0    0    0  0.00000000000E+00  0.00000000000E+00  0.45593999997E+02  0.45594000000E+02  0.51100000000E-03 0.  1.
         11   -1    0    0    0    0 -0.00000000000E+00 -0.00000000000E+00 -0.45593999997E+02  0.45594000000E+02  0.51100000000E-03 0. -1.
    9900012    2    1    2    0    0 -0.23106122377E+02  0.18353376853E+02  0.12082400524E+02  0.59301894317E+02  0.49999909339E+02 0.  0.
         12    1    1    2    0    0  0.23106122377E+02 -0.18353376853E+02 -0.12082400524E+02  0.31886105683E+02  0.00000000000E+00 0. -1.
         11    1    3    3    0    0 -0.21255905332E+02  0.13474084176E+02  0.27712580129E+02  0.37434630404E+02  0.51100000000E-03 0.  1.
        -11    1    3    3    0    0  0.14464901204E+00  0.67569144612E+01 -0.17358730056E+02  0.18627998438E+02  0.51100000000E-03 0. -1.
         12    1    3    3    0    0 -0.19948660574E+01 -0.18776217839E+01  0.17285504516E+01  0.32392654744E+01  0.00000000000E+00 0. -1.
</event>
<event>
 7    1  0.7457761E-012  0.5930196E+02  0.7816164E-02  0.1266605E+00
        -11   -1    0    0    0    0  0.00000000000E+00  0.00000000000E+00  0.45593999997E+02  0.45594000000E+02  0.51100000000E-03 0. -1.
         11   -1    0    0    0    0 -0.00000000000E+00 -0.00000000000E+00 -0.45593999997E+02  0.45594000000E+02  0.51100000000E-03 0.  1.
    9900012    2    1    2    0    0 -0.12835497017E+02  0.15101001963E+02 -0.24978575823E+02  0.59301960828E+02  0.50000030639E+02 0.  0.
         12    1    1    2    0    0  0.12835497017E+02 -0.15101001963E+02  0.24978575823E+02  0.31886039172E+02  0.00000000000E+00 0. -1.
         11    1    3    3    0    0  0.14812553023E+01 -0.40240810014E+01  0.10860647730E+02  0.11676515514E+02  0.51100000000E-03 0. -1.
        -11    1    3    3    0    0 -0.12014135602E+02 -0.71374962240E-01 -0.12997753420E+02  0.17699891042E+02  0.51100000000E-03 0.  1.
         12    1    3    3    0    0 -0.23026167173E+01  0.19196457926E+02 -0.22841470132E+02  0.29925554272E+02  0.00000000000E+00 0. -1.
</event>
<event>
 7    1  0.7457761E-012  0.5930194E+02  0.7816164E-02  0.1266605E+00
        -11   -1    0    0    0    0  0.00000000000E+00  0.00000000000E+00  0.45593999997E+02  0.45594000000E+02  0.51100000000E-03 0. -1.
         11   -1    0    0    0    0 -0.00000000000E+00 -0.00000000000E+00 -0.45593999997E+02  0.45594000000E+02  0.51100000000E-03 0.  1.
    9900012    2    1    2    0    0 -0.23130463706E+02 -0.20124369169E+02  0.87585427186E+01  0.59301942604E+02  0.49999997404E+02 0.  0.
         12    1    1    2    0    0  0.23130463706E+02  0.20124369169E+02 -0.87585427186E+01  0.31886057396E+02  0.00000000000E+00 0. -1.
         11    1    3    3    0    0 -0.21419471700E+02 -0.12322279369E+02  0.84711792164E+01  0.26122657107E+02  0.51100000000E-03 0. -1.
        -11    1    3    3    0    0 -0.17566493141E+01  0.64904186045E+01 -0.12375444910E+02  0.14084139571E+02  0.51100000000E-03 0.  1.
         12    1    3    3    0    0  0.45657308432E-01 -0.14292508404E+02  0.12662808412E+02  0.19095145926E+02  0.00000000000E+00 0. -1.
</event>
<event>
 7    1  0.7457761E-012  0.5930194E+02  0.7816164E-02  0.1266605E+00
        -11   -1    0    0    0    0  0.00000000000E+00  0.00000000000E+00  0.45593999997E+02  0.45594000000E+02  0.51100000000E-03 0.  1.
         11   -1    0    0    0    0 -0.00000000000E+00 -0.00000000000E+00 -0.45593999997E+02  0.45594000000E+02  0.51100000000E-03 0. -1.
    9900012    2    1    2    0    0 -0.26651498546E+02 -0.17333234704E+02 -0.24448603028E+01  0.59301941260E+02  0.49999994953E+02 0.  0.
         12    1    1    2    0    0  0.26651498546E+02  0.17333234704E+02  0.24448603028E+01  0.31886058740E+02  0.00000000000E+00 0. -1.
         11    1    3    3    0    0 -0.14745973295E+02  0.97035158625E+01 -0.16991182037E+01  0.17733836343E+02  0.51100000000E-03 0. -1.
        -11    1    3    3    0    0 -0.11831437103E+01 -0.89652951340E+01  0.13451430215E+02  0.16208557029E+02  0.51100000000E-03 0.  1.
        -12    1    3    3    0    0 -0.10722381541E+02 -0.18071455432E+02 -0.14197172314E+02  0.25359547888E+02  0.00000000000E+00 0.  1.
</event>
<event>
 7    1  0.7457761E-012  0.5930195E+02  0.7816164E-02  0.1266605E+00
        -11   -1    0    0    0    0  0.00000000000E+00  0.00000000000E+00  0.45593999997E+02  0.45594000000E+02  0.51100000000E-03 0.  1.
         11   -1    0    0    0    0 -0.00000000000E+00 -0.00000000000E+00 -0.45593999997E+02  0.45594000000E+02  0.51100000000E-03 0. -1.
    9900012    2    1    2    0    0  0.55252249277E+01 -0.23939012232E+02  0.20325250451E+02  0.59301949397E+02  0.50000009793E+02 0.  0.
         12    1    1    2    0    0 -0.55252249277E+01  0.23939012232E+02 -0.20325250451E+02  0.31886050603E+02  0.00000000000E+00 0. -1.
         11    1    3    3    0    0 -0.43184460043E+01  0.15458201897E+01  0.86585247284E+01  0.97983971487E+01  0.51100000000E-03 0. -1.
        -11    1    3    3    0    0  0.17368913807E+02  0.34927428790E+01  0.10850998859E+01  0.17749813004E+02  0.51100000000E-03 0.  1.
        -12    1    3    3    0    0 -0.75252428753E+01 -0.28977575301E+02  0.10581625836E+02  0.31753739244E+02  0.00000000000E+00 0.  1.
</event>
<event>
 7    1  0.7457761E-012  0.5930195E+02  0.7816164E-02  0.1266605E+00
        -11   -1    0    0    0    0  0.00000000000E+00  0.00000000000E+00  0.45593999997E+02  0.45594000000E+02  0.51100000000E-03 0.  1.
         11   -1    0    0    0    0 -0.00000000000E+00 -0.00000000000E+00 -0.45593999997E+02  0.45594000000E+02  0.51100000000E-03 0. -1.
    9900012    2    1    2    0    0  0.16151252846E+02 -0.90496008715E+01  0.25960772594E+02  0.59301953552E+02  0.50000017370E+02 0.  0.
         12    1    1    2    0    0 -0.16151252846E+02  0.90496008715E+01 -0.25960772594E+02  0.31886046448E+02  0.00000000000E+00 0. -1.
         11    1    3    3    0    0 -0.76961048134E+00  0.85502850241E+01 -0.69742629028E+01  0.11060742181E+02  0.51100000000E-03 0. -1.
        -11    1    3    3    0    0  0.20156894591E+02 -0.72655501243E+01  0.11720302012E+02  0.24422409744E+02  0.51100000000E-03 0.  1.
         12    1    3    3    0    0 -0.32360312638E+01 -0.10334335771E+02  0.21214733484E+02  0.23818801628E+02  0.00000000000E+00 0. -1.
</event>
<event>
 7    1  0.7457761E-012  0.5930192E+02  0.7816164E-02  0.1266605E+00
        -11   -1    0    0    0    0  0.00000000000E+00  0.00000000000E+00  0.45593999997E+02  0.45594000000E+02  0.51100000000E-03 0. -1.
         11   -1    0    0    0    0 -0.00000000000E+00 -0.00000000000E+00 -0.45593999997E+02  0.45594000000E+02  0.51100000000E-03 0.  1.
    9900012    2    1    2    0    0 -0.10053767166E+02 -0.29496598572E+02  0.67523492538E+01  0.59301924952E+02  0.49999965210E+02 0.  0.
         12    1    1    2    0    0  0.10053767166E+02  0.29496598572E+02 -0.67523492538E+01  0.31886075048E+02  0.00000000000E+00 0. -1.
         11    1    3    3    0    0 -0.16399787349E+02 -0.56358761002E+01  0.17812647554E+02  0.24859737280E+02  0.51100000000E-03 0. -1.
        -11    1    3    3    0    0  0.39173379351E+01 -0.36450667315E+01 -0.12932008386E+02  0.13995316686E+02  0.51100000000E-03 0.  1.
         12    1    3    3    0    0  0.24286822472E+01 -0.20215655740E+02  0.18717100865E+01  0.20446870986E+02  0.00000000000E+00 0. -1.
</event>
<event>
 7    1  0.7457761E-012  0.5930193E+02  0.7816164E-02  0.1266605E+00
        -11   -1    0    0    0    0  0.00000000000E+00  0.00000000000E+00  0.45593999997E+02  0.45594000000E+02  0.51100000000E-03 0.  1.
         11   -1    0    0    0    0 -0.00000000000E+00 -0.00000000000E+00 -0.45593999997E+02  0.45594000000E+02  0.51100000000E-03 0. -1.
    9900012    2    1    2    0    0 -0.10723152927E+02 -0.43686026312E+01  0.29709439178E+02  0.59301929782E+02  0.49999974020E+02 0.  0.
         12    1    1    2    0    0  0.10723152927E+02  0.43686026312E+01 -0.29709439178E+02  0.31886070218E+02  0.00000000000E+00 0. -1.
         11    1    3    3    0    0  0.17054136220E+02 -0.13770275741E+02  0.12450040046E+02  0.25208481779E+02  0.51100000000E-03 0.  1.
        -11    1    3    3    0    0 -0.22169166310E+02  0.67928895126E+01  0.12983979963E+02  0.26574405332E+02  0.51100000000E-03 0. -1.
        -12    1    3    3    0    0 -0.56081228379E+01  0.26087835970E+01  0.42754191699E+01  0.75190426718E+01  0.00000000000E+00 0.  1.
</event>
<event>
 7    1  0.7457761E-012  0.5930191E+02  0.7816164E-02  0.1266605E+00
        -11   -1    0    0    0    0  0.00000000000E+00  0.00000000000E+00  0.45593999997E+02  0.45594000000E+02  0.51100000000E-03 0. -1.
         11   -1    0    0    0    0 -0.00000000000E+00 -0.00000000000E+00 -0.45593999997E+02  0.45594000000E+02  0.51100000000E-03 0.  1.
    9900012    2    1    2    0    0  0.27172403969E+02  0.13616103944E+02  0.96428662436E+01  0.59301910659E+02  0.49999939144E+02 0.  0.
         12    1    1    2    0    0 -0.27172403969E+02 -0.13616103944E+02 -0.96428662436E+01  0.31886089341E+02  0.00000000000E+00 0. -1.
         11    1    3    3    0    0 -0.98066378707E+01  0.46787262823E+01  0.10540886804E+02  0.15138392280E+02  0.51100000000E-03 0. -1.
        -11    1    3    3    0    0  0.37937633952E+02  0.34219487206E+01  0.13872989531E+01  0.38116904407E+02  0.51100000000E-03 0.  1.
        -12    1    3    3    0    0 -0.95859211291E+00  0.55154289409E+01 -0.22853195140E+01  0.60466139717E+01  0.00000000000E+00 0.  1.
</event>
<event>
 7    1  0.7457761E-012  0.5930192E+02  0.7816164E-02  0.1266605E+00
        -11   -1    0    0    0    0  0.00000000000E+00  0.00000000000E+00  0.45593999997E+02  0.45594000000E+02  0.51100000000E-03 0.  1.
         11   -1    0    0    0    0 -0.00000000000E+00 -0.00000000000E+00 -0.45593999997E+02  0.45594000000E+02  0.51100000000E-03 0. -1.
    9900012    2    1    2    0    0  0.97624024698E+01 -0.28702906717E+02  0.98772984017E+01  0.59301915579E+02  0.49999948117E+02 0.  0.
         12    1    1    2    0    0 -0.97624024698E+01  0.28702906717E+02 -0.98772984017E+01  0.31886084421E+02  0.00000000000E+00 0. -1.
         11    1    3    3    0    0  0.12154048313E+02 -0.16123114656E+02 -0.66412435162E+01  0.21255160134E+02  0.51100000000E-03 0. -1.
        -11    1    3    3    0    0 -0.30806016700E+01  0.88564353479E+01  0.13427949705E+02  0.16377923777E+02  0.51100000000E-03 0.  1.
         12    1    3    3    0    0  0.68895582665E+00 -0.21436227409E+02  0.30905922133E+01  0.21668831668E+02  0.00000000000E+00 0. -1.
</event>
<event>
 7    1  0.7457761E-012  0.5930200E+02  0.7816164E-02  0.1266605E+00
        -11   -1    0    0    0    0  0.00000000000E+00  0.00000000000E+00  0.45593999997E+02  0.45594000000E+02  0.51100000000E-03 0. -1.
         11   -1    0    0    0    0 -0.00000000000E+00 -0.00000000000E+00 -0.45593999997E+02  0.45594000000E+02  0.51100000000E-03 0.  1.
    9900012    2    1    2    0    0  0.14522661264E+02  0.16246583606E+01  0.28340246764E+02  0.59302003205E+02  0.50000107925E+02 0.  0.
         12    1    1    2    0    0 -0.14522661264E+02 -0.16246583606E+01 -0.28340246764E+02  0.31885996795E+02  0.00000000000E+00 0. -1.
         11    1    3    3    0    0 -0.86073315155E+01  0.10861446602E+02  0.25586881872E+01  0.14092695399E+02  0.51100000000E-03 0. -1.
        -11    1    3    3    0    0  0.19703067172E+02  0.39745702659E+01  0.56351489765E+01  0.20874936384E+02  0.51100000000E-03 0.  1.
         12    1    3    3    0    0  0.34269256077E+01 -0.13211358507E+02  0.20146409600E+02  0.24334371422E+02  0.00000000000E+00 0. -1.
</event>
<event>
 7    1  0.7457761E-012  0.5930191E+02  0.7816164E-02  0.1266605E+00
        -11   -1    0    0    0    0  0.00000000000E+00  0.00000000000E+00  0.45593999997E+02  0.45594000000E+02  0.51100000000E-03 0.  1.
         11   -1    0    0    0    0 -0.00000000000E+00 -0.00000000000E+00 -0.45593999997E+02  0.45594000000E+02  0.51100000000E-03 0. -1.
    9900012    2    1    2    0    0 -0.58740836867E+01 -0.23119866551E+02  0.21158675339E+02  0.59301911644E+02  0.49999940941E+02 0.  0.
         12    1    1    2    0    0  0.58740836867E+01  0.23119866551E+02 -0.21158675339E+02  0.31886088356E+02  0.00000000000E+00 0. -1.
         11    1    3    3    0    0  0.74031759255E+01 -0.31497526007E+02  0.13112359285E+02  0.34911819269E+02  0.51100000000E-03 0. -1.
        -11    1    3    3    0    0 -0.24573517798E+01 -0.71064261640E+00  0.98210252896E+01  0.10148700838E+02  0.51100000000E-03 0.  1.
         12    1    3    3    0    0 -0.10819907832E+02  0.90883020726E+01 -0.17747092351E+01  0.14241391538E+02  0.00000000000E+00 0. -1.
</event>
<event>
 7    1  0.7457761E-012  0.5930193E+02  0.7816164E-02  0.1266605E+00
        -11   -1    0    0    0    0  0.00000000000E+00  0.00000000000E+00  0.45593999997E+02  0.45594000000E+02  0.51100000000E-03 0. -1.
         11   -1    0    0    0    0 -0.00000000000E+00 -0.00000000000E+00 -0.45593999997E+02  0.45594000000E+02  0.51100000000E-03 0.  1.
    9900012    2    1    2    0    0  0.20109504354E+02  0.20814962356E+02  0.13381574470E+02  0.59301931592E+02  0.49999977320E+02 0.  0.
         12    1    1    2    0    0 -0.20109504354E+02 -0.20814962356E+02 -0.13381574470E+02  0.31886068408E+02  0.00000000000E+00 0. -1.
         11    1    3    3    0    0  0.10519185962E+02 -0.58762690139E+01  0.74541330085E+01  0.14168553560E+02  0.51100000000E-03 0. -1.
        -11    1    3    3    0    0 -0.35309359517E+01  0.11933415434E+02 -0.12846527711E+02  0.17885949433E+02  0.51100000000E-03 0.  1.
        -12    1    3    3    0    0  0.13121254344E+02  0.14757815935E+02  0.18773969172E+02  0.27247428598E+02  0.00000000000E+00 0.  1.
</event>
<event>
 7    1  0.7457761E-012  0.5930196E+02  0.7816164E-02  0.1266605E+00
        -11   -1    0    0    0    0  0.00000000000E+00  0.00000000000E+00  0.45593999997E+02  0.45594000000E+02  0.51100000000E-03 0.  1.
         11   -1    0    0    0    0 -0.00000000000E+00 -0.00000000000E+00 -0.45593999997E+02  0.45594000000E+02  0.51100000000E-03 0. -1.
    9900012    2    1    2    0    0 -0.49324012814E+01  0.14229805379E+02  0.28105221417E+02  0.59301962077E+02  0.50000032918E+02 0.  0.
         12    1    1    2    0    0  0.49324012814E+01 -0.14229805379E+02 -0.28105221417E+02  0.31886037923E+02  0.00000000000E+00 0. -1.
         11    1    3    3    0    0  0.26278145846E+01  0.21620963825E+02  0.14129952735E+02  0.25962030945E+02  0.51100000000E-03 0. -1.
        -11    1    3    3    0    0 -0.13151194302E+02 -0.61228095611E+01  0.20205201748E+02  0.24873537875E+02  0.51100000000E-03 0.  1.
        -12    1    3    3    0    0  0.55909784355E+01 -0.12683488851E+01 -0.62299330669E+01  0.84663932568E+01  0.00000000000E+00 0.  1.
</event>
<event>
 7    1  0.7457761E-012  0.5930196E+02  0.7816164E-02  0.1266605E+00
        -11   -1    0    0    0    0  0.00000000000E+00  0.00000000000E+00  0.45593999997E+02  0.45594000000E+02  0.51100000000E-03 0. -1.
         11   -1    0    0    0    0 -0.00000000000E+00 -0.00000000000E+00 -0.45593999997E+02  0.45594000000E+02  0.51100000000E-03 0.  1.
    9900012    2    1    2    0    0 -0.13702481978E+02 -0.90024192315E+01 -0.27348093074E+02  0.59301956671E+02  0.50000023058E+02 0.  0.
         12    1    1    2    0    0  0.13702481978E+02  0.90024192315E+01  0.27348093074E+02  0.31886043329E+02  0.00000000000E+00 0. -1.
         11    1    3    3    0    0 -0.45562394488E+01  0.11850850041E+02 -0.65356976425E+01  0.14279961784E+02  0.51100000000E-03 0. -1.
        -11    1    3    3    0    0 -0.82194671169E+01 -0.25979567038E+02 -0.26005185767E+02  0.37666526655E+02  0.51100000000E-03 0.  1.
        -12    1    3    3    0    0 -0.92677541279E+00  0.51262977652E+01  0.51927903356E+01  0.73554682321E+01  0.00000000000E+00 0.  1.
</event>
<event>
 7    1  0.7457761E-012  0.5930194E+02  0.7816164E-02  0.1266605E+00
        -11   -1    0    0    0    0  0.00000000000E+00  0.00000000000E+00  0.45593999997E+02  0.45594000000E+02  0.51100000000E-03 0.  1.
         11   -1    0    0    0    0 -0.00000000000E+00 -0.00000000000E+00 -0.45593999997E+02  0.45594000000E+02  0.51100000000E-03 0. -1.
    9900012    2    1    2    0    0  0.18321855232E+02  0.23749082970E+02  0.10817191026E+02  0.59301938111E+02  0.49999989210E+02 0.  0.
         12    1    1    2    0    0 -0.18321855232E+02 -0.23749082970E+02 -0.10817191026E+02  0.31886061889E+02  0.00000000000E+00 0. -1.
         11    1    3    3    0    0  0.21693326490E+02  0.32395804623E+02  0.12495405243E+02  0.40941711295E+02  0.51100000000E-03 0. -1.
        -11    1    3    3    0    0 -0.55539543576E+01  0.18102848204E+00  0.46793593061E+01  0.72646805914E+01  0.51100000000E-03 0.  1.
         12    1    3    3    0    0  0.21824831001E+01 -0.88277501347E+01 -0.63575735232E+01  0.11095546225E+02  0.00000000000E+00 0. -1.
</event>
<event>
 7    1  0.7457761E-012  0.5930195E+02  0.7816164E-02  0.1266605E+00
        -11   -1    0    0    0    0  0.00000000000E+00  0.00000000000E+00  0.45593999997E+02  0.45594000000E+02  0.51100000000E-03 0. -1.
         11   -1    0    0    0    0 -0.00000000000E+00 -0.00000000000E+00 -0.45593999997E+02  0.45594000000E+02  0.51100000000E-03 0.  1.
    9900012    2    1    2    0    0 -0.19743579251E+02  0.10291654110E+02 -0.22825279928E+02  0.59301945529E+02  0.50000002738E+02 0.  0.
         12    1    1    2    0    0  0.19743579251E+02 -0.10291654110E+02  0.22825279928E+02  0.31886054471E+02  0.00000000000E+00 0. -1.
         11    1    3    3    0    0 -0.15834155262E+02  0.25125786270E+02 -0.74472342788E+01  0.30618407980E+02  0.51100000000E-03 0. -1.
        -11    1    3    3    0    0 -0.13409379903E+01 -0.56777717107E+01 -0.17915159501E+02  0.18841129119E+02  0.51100000000E-03 0.  1.
         12    1    3    3    0    0 -0.25684859984E+01 -0.91563604491E+01  0.25371138518E+01  0.98424084296E+01  0.00000000000E+00 0. -1.
</event>
<event>
 7    1  0.7457761E-012  0.5930195E+02  0.7816164E-02  0.1266605E+00
        -11   -1    0    0    0    0  0.00000000000E+00  0.00000000000E+00  0.45593999997E+02  0.45594000000E+02  0.51100000000E-03 0. -1.
         11   -1    0    0    0    0 -0.00000000000E+00 -0.00000000000E+00 -0.45593999997E+02  0.45594000000E+02  0.51100000000E-03 0.  1.
    9900012    2    1    2    0    0 -0.29218374957E+02 -0.12736163458E+02  0.89266033432E+00  0.59301950743E+02  0.50000012247E+02 0.  0.
         12    1    1    2    0    0  0.29218374957E+02  0.12736163458E+02 -0.89266033432E+00  0.31886049257E+02  0.00000000000E+00 0. -1.
         11    1    3    3    0    0 -0.14452326809E+02 -0.21669026660E+02 -0.50972752440E+01  0.26540510202E+02  0.51100000000E-03 0. -1.
        -11    1    3    3    0    0 -0.27942972710E+01  0.16999228908E+02  0.25767904974E+00  0.17229285518E+02  0.51100000000E-03 0.  1.
         12    1    3    3    0    0 -0.11971750877E+02 -0.80663657060E+01  0.57322565286E+01  0.15532155023E+02  0.00000000000E+00 0. -1.
</event>
<event>
 7    1  0.7457761E-012  0.5930195E+02  0.7816164E-02  0.1266605E+00
        -11   -1    0    0    0    0  0.00000000000E+00  0.00000000000E+00  0.45593999997E+02  0.45594000000E+02  0.51100000000E-03 0.  1.
         11   -1    0    0    0    0 -0.00000000000E+00 -0.00000000000E+00 -0.45593999997E+02  0.45594000000E+02  0.51100000000E-03 0. -1.
    9900012    2    1    2    0    0 -0.73580615516E+01 -0.79066281800E+01  0.30001067515E+02  0.59301954604E+02  0.50000019289E+02 0.  0.
         12    1    1    2    0    0  0.73580615516E+01  0.79066281800E+01 -0.30001067515E+02  0.31886045396E+02  0.00000000000E+00 0. -1.
         11    1    3    3    0    0  0.16348231590E+02 -0.65432106052E+01  0.21618871104E+02  0.27882859774E+02  0.51100000000E-03 0.  1.
        -11    1    3    3    0    0 -0.16116258141E+02  0.80851480720E+01  0.64326124870E+01  0.19143716971E+02  0.51100000000E-03 0. -1.
         12    1    3    3    0    0 -0.75900350010E+01 -0.94485656468E+01  0.19495839241E+01  0.12275377859E+02  0.00000000000E+00 0. -1.
</event>
<event>
 7    1  0.7457761E-012  0.5930194E+02  0.7816164E-02  0.1266605E+00
        -11   -1    0    0    0    0  0.00000000000E+00  0.00000000000E+00  0.45593999997E+02  0.45594000000E+02  0.51100000000E-03 0. -1.
         11   -1    0    0    0    0 -0.00000000000E+00 -0.00000000000E+00 -0.45593999997E+02  0.45594000000E+02  0.51100000000E-03 0.  1.
    9900012    2    1    2    0    0 -0.23971324454E+02  0.19249513451E+02  0.84588871444E+01  0.59301938219E+02  0.49999989406E+02 0.  0.
         12    1    1    2    0    0  0.23971324454E+02 -0.19249513451E+02 -0.84588871444E+01  0.31886061781E+02  0.00000000000E+00 0. -1.
         11    1    3    3    0    0 -0.12952054146E+02 -0.10187555883E+02  0.86517832131E+01  0.18611699398E+02  0.51100000000E-03 0. -1.
        -11    1    3    3    0    0 -0.16676663843E+02  0.21313095838E+02 -0.78467610633E+01  0.28176778215E+02  0.51100000000E-03 0.  1.
        -12    1    3    3    0    0  0.56573935344E+01  0.81239734965E+01  0.76538649946E+01  0.12513460606E+02  0.00000000000E+00 0.  1.
</event>
<event>
 7    1  0.7457761E-012  0.5930196E+02  0.7816164E-02  0.1266605E+00
        -11   -1    0    0    0    0  0.00000000000E+00  0.00000000000E+00  0.45593999997E+02  0.45594000000E+02  0.51100000000E-03 0. -1.
         11   -1    0    0    0    0 -0.00000000000E+00 -0.00000000000E+00 -0.45593999997E+02  0.45594000000E+02  0.51100000000E-03 0.  1.
    9900012    2    1    2    0    0 -0.28685417031E+02 -0.13597538636E+02 -0.29956020420E+01  0.59301955423E+02  0.50000020782E+02 0.  0.
         12    1    1    2    0    0  0.28685417031E+02  0.13597538636E+02  0.29956020420E+01  0.31886044577E+02  0.00000000000E+00 0. -1.
         11    1    3    3    0    0  0.95417966763E+01 -0.76484291125E+01  0.98667835936E+01  0.15712980954E+02  0.51100000000E-03 0. -1.
        -11    1    3    3    0    0 -0.94083488916E+01  0.42682360460E+01 -0.69356382222E+01  0.12443389636E+02  0.51100000000E-03 0.  1.
         12    1    3    3    0    0 -0.28818864815E+02 -0.10217345569E+02 -0.59267474134E+01  0.31145584834E+02  0.00000000000E+00 0. -1.
</event>
<event>
 7    1  0.7457761E-012  0.5930189E+02  0.7816164E-02  0.1266605E+00
        -11   -1    0    0    0    0  0.00000000000E+00  0.00000000000E+00  0.45593999997E+02  0.45594000000E+02  0.51100000000E-03 0.  1.
         11   -1    0    0    0    0 -0.00000000000E+00 -0.00000000000E+00 -0.45593999997E+02  0.45594000000E+02  0.51100000000E-03 0. -1.
    9900012    2    1    2    0    0 -0.69259489331E+01  0.28029101367E+02 -0.13532359057E+02  0.59301889643E+02  0.49999900815E+02 0.  0.
         12    1    1    2    0    0  0.69259489331E+01 -0.28029101367E+02  0.13532359057E+02  0.31886110357E+02  0.00000000000E+00 0. -1.
         11    1    3    3    0    0 -0.54119935427E+01  0.13866356215E+02 -0.26152549815E+02  0.30091882142E+02  0.51100000000E-03 0. -1.
        -11    1    3    3    0    0  0.35613408456E+01  0.15262216322E+01  0.14906445954E+02  0.15401773675E+02  0.51100000000E-03 0.  1.
         12    1    3    3    0    0 -0.50752962360E+01  0.12636523520E+02 -0.22862551967E+01  0.13808233825E+02  0.00000000000E+00 0. -1.
</event>
<event>
 7    1  0.7457761E-012  0.5930195E+02  0.7816164E-02  0.1266605E+00
        -11   -1    0    0    0    0  0.00000000000E+00  0.00000000000E+00  0.45593999997E+02  0.45594000000E+02  0.51100000000E-03 0.  1.
         11   -1    0    0    0    0 -0.00000000000E+00 -0.00000000000E+00 -0.45593999997E+02  0.45594000000E+02  0.51100000000E-03 0. -1.
    9900012    2    1    2    0    0  0.78685701801E+01  0.25043174589E+02  0.18100966134E+02  0.59301953441E+02  0.50000017167E+02 0.  0.
         12    1    1    2    0    0 -0.78685701801E+01 -0.25043174589E+02 -0.18100966134E+02  0.31886046559E+02  0.00000000000E+00 0. -1.
         11    1    3    3    0    0  0.36986091067E+01 -0.51987766559E+00  0.29043452916E+02  0.29282625218E+02  0.51100000000E-03 0. -1.
        -11    1    3    3    0    0  0.46923366428E+01  0.19575763211E+02 -0.34656499800E+01  0.20426435287E+02  0.51100000000E-03 0.  1.
         12    1    3    3    0    0 -0.52237556940E+00  0.59872890432E+01 -0.74768368019E+01  0.95928929362E+01  0.00000000000E+00 0. -1.
</event>
<event>
 7    1  0.7457761E-012  0.5930201E+02  0.7816164E-02  0.1266605E+00
        -11   -1    0    0    0    0  0.00000000000E+00  0.00000000000E+00  0.45593999997E+02  0.45594000000E+02  0.51100000000E-03 0. -1.
         11   -1    0    0    0    0 -0.00000000000E+00 -0.00000000000E+00 -0.45593999997E+02  0.45594000000E+02  0.51100000000E-03 0.  1.
    9900012    2    1    2    0    0  0.16124228106E+02 -0.11356242106E+02 -0.25055165503E+02  0.59302011146E+02  0.50000122408E+02 0.  0.
         12    1    1    2    0    0 -0.16124228106E+02  0.11356242106E+02  0.25055165503E+02  0.31885988854E+02  0.00000000000E+00 0. -1.
         11    1    3    3    0    0  0.69988589597E+01  0.11707732785E+02 -0.15941911944E+00  0.13641130760E+02  0.51100000000E-03 0. -1.
        -11    1    3    3    0    0  0.14258845237E+02 -0.21762805743E+02 -0.69217487546E+01  0.26922945369E+02  0.51100000000E-03 0.  1.
        -12    1    3    3    0    0 -0.51334760902E+01 -0.13011691477E+01 -0.17973997629E+02  0.18737935017E+02  0.00000000000E+00 0.  1.
</event>
<event>
 7    1  0.7457761E-012  0.5930193E+02  0.7816164E-02  0.1266605E+00
        -11   -1    0    0    0    0  0.00000000000E+00  0.00000000000E+00  0.45593999997E+02  0.45594000000E+02  0.51100000000E-03 0.  1.
         11   -1    0    0    0    0 -0.00000000000E+00 -0.00000000000E+00 -0.45593999997E+02  0.45594000000E+02  0.51100000000E-03 0. -1.
    9900012    2    1    2    0    0 -0.28603851113E+02 -0.13122496217E+02  0.51323578861E+01  0.59301932464E+02  0.49999978910E+02 0.  0.
         12    1    1    2    0    0  0.28603851113E+02  0.13122496217E+02 -0.51323578861E+01  0.31886067536E+02  0.00000000000E+00 0. -1.
         11    1    3    3    0    0 -0.11219761739E+01 -0.28528120547E+01  0.56672965810E+01  0.64432614375E+01  0.51100000000E-03 0. -1.
        -11    1    3    3    0    0 -0.33952619300E+01 -0.22271436548E+02 -0.95618730390E+01  0.24473947490E+02  0.51100000000E-03 0.  1.
        -12    1    3    3    0    0 -0.24086613009E+02  0.12001752385E+02  0.90269343442E+01  0.28384723536E+02  0.00000000000E+00 0.  1.
</event>
<event>
 7    1  0.7457761E-012  0.5930195E+02  0.7816164E-02  0.1266605E+00
        -11   -1    0    0    0    0  0.00000000000E+00  0.00000000000E+00  0.45593999997E+02  0.45594000000E+02  0.51100000000E-03 0. -1.
         11   -1    0    0    0    0 -0.00000000000E+00 -0.00000000000E+00 -0.45593999997E+02  0.45594000000E+02  0.51100000000E-03 0.  1.
    9900012    2    1    2    0    0  0.15564773970E+02 -0.16035890698E+02 -0.22744405076E+02  0.59301953813E+02  0.50000017846E+02 0.  0.
         12    1    1    2    0    0 -0.15564773970E+02  0.16035890698E+02  0.22744405076E+02  0.31886046187E+02  0.00000000000E+00 0. -1.
         11    1    3    3    0    0  0.17774505469E+02 -0.16272277286E+02 -0.28083205622E+02  0.37005222482E+02  0.51100000000E-03 0. -1.
        -11    1    3    3    0    0 -0.76583167003E+01 -0.77097354872E+01 -0.76082146663E+00  0.10893515756E+02  0.51100000000E-03 0.  1.
         12    1    3    3    0    0  0.54485852015E+01  0.79461220753E+01  0.60996220127E+01  0.11403215574E+02  0.00000000000E+00 0. -1.
</event>
<event>
 7    1  0.7457761E-012  0.5930181E+02  0.7816164E-02  0.1266605E+00
        -11   -1    0    0    0    0  0.00000000000E+00  0.00000000000E+00  0.45593999997E+02  0.45594000000E+02  0.51100000000E-03 0. -1.
         11   -1    0    0    0    0 -0.00000000000E+00 -0.00000000000E+00 -0.45593999997E+02  0.45594000000E+02  0.51100000000E-03 0.  1.
    9900012    2    1    2    0    0 -0.86776051768E+01 -0.20816922932E+02 -0.22540722008E+02  0.59301807681E+02  0.49999751335E+02 0.  0.
         12    1    1    2    0    0  0.86776051768E+01  0.20816922932E+02  0.22540722008E+02  0.31886192319E+02  0.00000000000E+00 0. -1.
         11    1    3    3    0    0 -0.64513742547E+01 -0.17993979867E+02  0.88245243263E+00  0.19135889417E+02  0.51100000000E-03 0. -1.
        -11    1    3    3    0    0 -0.67233039927E+01 -0.65594072957E+01 -0.29958746365E+02  0.31396737485E+02  0.51100000000E-03 0.  1.
        -12    1    3    3    0    0  0.44970730705E+01  0.37364642308E+01  0.65355719243E+01  0.87691807786E+01  0.00000000000E+00 0.  1.
</event>
<event>
 7    1  0.7457761E-012  0.5930192E+02  0.7816164E-02  0.1266605E+00
        -11   -1    0    0    0    0  0.00000000000E+00  0.00000000000E+00  0.45593999997E+02  0.45594000000E+02  0.51100000000E-03 0. -1.
         11   -1    0    0    0    0 -0.00000000000E+00 -0.00000000000E+00 -0.45593999997E+02  0.45594000000E+02  0.51100000000E-03 0.  1.
    9900012    2    1    2    0    0  0.10598521713E+02 -0.13799779625E+02 -0.26720017676E+02  0.59301922712E+02  0.49999961125E+02 0.  0.
         12    1    1    2    0    0 -0.10598521713E+02  0.13799779625E+02  0.26720017676E+02  0.31886077288E+02  0.00000000000E+00 0. -1.
         11    1    3    3    0    0  0.20051212132E+02 -0.91765773151E+01 -0.31952292161E+02  0.38822798119E+02  0.51100000000E-03 0.  1.
        -11    1    3    3    0    0  0.30943914433E+01 -0.38813653629E+01  0.61185892946E+01  0.78789206559E+01  0.51100000000E-03 0. -1.
        -12    1    3    3    0    0 -0.12547081862E+02 -0.74183694709E+00 -0.88631480976E+00  0.12600203937E+02  0.00000000000E+00 0.  1.
</event>
<event>
 7    1  0.7457761E-012  0.5930192E+02  0.7816164E-02  0.1266605E+00
        -11   -1    0    0    0    0  0.00000000000E+00  0.00000000000E+00  0.45593999997E+02  0.45594000000E+02  0.51100000000E-03 0. -1.
         11   -1    0    0    0    0 -0.00000000000E+00 -0.00000000000E+00 -0.45593999997E+02  0.45594000000E+02  0.51100000000E-03 0.  1.
    9900012    2    1    2    0    0  0.15316744788E+02  0.99604217108E+01 -0.26132541805E+02  0.59301915061E+02  0.49999947172E+02 0.  0.
         12    1    1    2    0    0 -0.15316744788E+02 -0.99604217108E+01  0.26132541805E+02  0.31886084939E+02  0.00000000000E+00 0. -1.
         11    1    3    3    0    0  0.11953395193E+01 -0.18861834366E+02 -0.26174597281E+01  0.19080061003E+02  0.51100000000E-03 0. -1.
        -11    1    3    3    0    0  0.45974634480E+01  0.42684686757E+01 -0.51188577135E+01  0.80968635621E+01  0.51100000000E-03 0.  1.
         12    1    3    3    0    0  0.95239418207E+01  0.24553787401E+02 -0.18396224363E+02  0.32124990496E+02  0.00000000000E+00 0. -1.
</event>
<event>
 7    1  0.7457761E-012  0.5930195E+02  0.7816164E-02  0.1266605E+00
        -11   -1    0    0    0    0  0.00000000000E+00  0.00000000000E+00  0.45593999997E+02  0.45594000000E+02  0.51100000000E-03 0.  1.
         11   -1    0    0    0    0 -0.00000000000E+00 -0.00000000000E+00 -0.45593999997E+02  0.45594000000E+02  0.51100000000E-03 0. -1.
    9900012    2    1    2    0    0  0.13760700721E+02 -0.21363211320E+02  0.19260757689E+02  0.59301945540E+02  0.50000002758E+02 0.  0.
         12    1    1    2    0    0 -0.13760700721E+02  0.21363211320E+02 -0.19260757689E+02  0.31886054460E+02  0.00000000000E+00 0. -1.
         11    1    3    3    0    0  0.23164636627E+02 -0.14980397761E+02  0.24129236225E+02  0.36650139811E+02  0.51100000000E-03 0. -1.
        -11    1    3    3    0    0 -0.53452894089E+01 -0.17510308411E+01  0.71798641448E+01  0.91207827115E+01  0.51100000000E-03 0.  1.
         12    1    3    3    0    0 -0.40586464963E+01 -0.46317827183E+01 -0.12048342681E+02  0.13531023017E+02  0.00000000000E+00 0. -1.
</event>
<event>
 7    1  0.7457761E-012  0.5930218E+02  0.7816164E-02  0.1266604E+00
        -11   -1    0    0    0    0  0.00000000000E+00  0.00000000000E+00  0.45593999997E+02  0.45594000000E+02  0.51100000000E-03 0.  1.
         11   -1    0    0    0    0 -0.00000000000E+00 -0.00000000000E+00 -0.45593999997E+02  0.45594000000E+02  0.51100000000E-03 0. -1.
    9900012    2    1    2    0    0  0.29332619863E+02  0.75695316003E+01  0.99501329223E+01  0.59302179612E+02  0.50000429647E+02 0.  0.
         12    1    1    2    0    0 -0.29332619863E+02 -0.75695316003E+01 -0.99501329223E+01  0.31885820388E+02  0.00000000000E+00 0. -1.
         11    1    3    3    0    0 -0.48868242876E+01  0.12369964878E+01 -0.50917003789E+01  0.71649581254E+01  0.51100000000E-03 0. -1.
        -11    1    3    3    0    0  0.40823467842E+02  0.86473136934E-01  0.11969057056E+02  0.42541994914E+02  0.51100000000E-03 0.  1.
        -12    1    3    3    0    0 -0.66040236910E+01  0.62460619755E+01  0.30727762457E+01  0.95952265720E+01  0.00000000000E+00 0.  1.
</event>
<event>
 7    1  0.7457761E-012  0.5930197E+02  0.7816164E-02  0.1266605E+00
        -11   -1    0    0    0    0  0.00000000000E+00  0.00000000000E+00  0.45593999997E+02  0.45594000000E+02  0.51100000000E-03 0. -1.
         11   -1    0    0    0    0 -0.00000000000E+00 -0.00000000000E+00 -0.45593999997E+02  0.45594000000E+02  0.51100000000E-03 0.  1.
    9900012    2    1    2    0    0 -0.47732198593E+01 -0.23099321241E+02  0.21455924442E+02  0.59301969151E+02  0.50000045818E+02 0.  0.
         12    1    1    2    0    0  0.47732198593E+01  0.23099321241E+02 -0.21455924442E+02  0.31886030849E+02  0.00000000000E+00 0. -1.
         11    1    3    3    0    0 -0.12100554457E+02 -0.16597965496E+02  0.32955934109E+02  0.38833097611E+02  0.51100000000E-03 0. -1.
        -11    1    3    3    0    0  0.41831416448E+00  0.27289657476E+01 -0.79335283686E+01  0.84001853210E+01  0.51100000000E-03 0.  1.
         12    1    3    3    0    0  0.69090204336E+01 -0.92303214926E+01 -0.35664812978E+01  0.12068686219E+02  0.00000000000E+00 0. -1.
</event>
<event>
 7    1  0.7457761E-012  0.5930194E+02  0.7816164E-02  0.1266605E+00
        -11   -1    0    0    0    0  0.00000000000E+00  0.00000000000E+00  0.45593999997E+02  0.45594000000E+02  0.51100000000E-03 0. -1.
         11   -1    0    0    0    0 -0.00000000000E+00 -0.00000000000E+00 -0.45593999997E+02  0.45594000000E+02  0.51100000000E-03 0.  1.
    9900012    2    1    2    0    0 -0.16172997377E+02  0.52986266023E+01 -0.26964417404E+02  0.59301935740E+02  0.49999984885E+02 0.  0.
         12    1    1    2    0    0  0.16172997377E+02 -0.52986266023E+01  0.26964417404E+02  0.31886064260E+02  0.00000000000E+00 0. -1.
         11    1    3    3    0    0  0.12561794517E+02 -0.27471907943E+01 -0.26174648123E+02  0.29162612081E+02  0.51100000000E-03 0. -1.
        -11    1    3    3    0    0 -0.10728425794E+02  0.17677770176E+01 -0.18989347311E+01  0.11037667732E+02  0.51100000000E-03 0.  1.
         12    1    3    3    0    0 -0.18006366101E+02  0.62780403791E+01  0.11091654499E+01  0.19101655927E+02  0.00000000000E+00 0. -1.
</event>
<event>
 7    1  0.7457761E-012  0.5930197E+02  0.7816164E-02  0.1266605E+00
        -11   -1    0    0    0    0  0.00000000000E+00  0.00000000000E+00  0.45593999997E+02  0.45594000000E+02  0.51100000000E-03 0.  1.
         11   -1    0    0    0    0 -0.00000000000E+00 -0.00000000000E+00 -0.45593999997E+02  0.45594000000E+02  0.51100000000E-03 0. -1.
    9900012    2    1    2    0    0 -0.10321580611E+02 -0.29414273742E+02  0.67070553732E+01  0.59301966727E+02  0.50000041398E+02 0.  0.
         12    1    1    2    0    0  0.10321580611E+02  0.29414273742E+02 -0.67070553732E+01  0.31886033273E+02  0.00000000000E+00 0. -1.
         11    1    3    3    0    0  0.51289356593E+01 -0.13953246846E+02  0.13648967289E+02  0.20181511015E+02  0.51100000000E-03 0. -1.
        -11    1    3    3    0    0 -0.24894422470E+02 -0.14836581814E+02 -0.61272401918E+01  0.29620930146E+02  0.51100000000E-03 0.  1.
         12    1    3    3    0    0  0.94439061999E+01 -0.62444508271E+00 -0.81467172393E+00  0.94995255666E+01  0.00000000000E+00 0. -1.
</event>
<event>
 7    1  0.7457761E-012  0.5930195E+02  0.7816164E-02  0.1266605E+00
        -11   -1    0    0    0    0  0.00000000000E+00  0.00000000000E+00  0.45593999997E+02  0.45594000000E+02  0.51100000000E-03 0.  1.
         11   -1    0    0    0    0 -0.00000000000E+00 -0.00000000000E+00 -0.45593999997E+02  0.45594000000E+02  0.51100000000E-03 0. -1.
    9900012    2    1    2    0    0 -0.29654211939E+02  0.60523548432E+01  0.10035782522E+02  0.59301949512E+02  0.50000010002E+02 0.  0.
         12    1    1    2    0    0  0.29654211939E+02 -0.60523548432E+01 -0.10035782522E+02  0.31886050488E+02  0.00000000000E+00 0. -1.
         11    1    3    3    0    0  0.55579939036E+01 -0.22121325671E+01  0.10259854541E+02  0.11876423797E+02  0.51100000000E-03 0. -1.
        -11    1    3    3    0    0 -0.96237628174E+01  0.16111318965E+02 -0.66327666509E+01  0.19904396581E+02  0.51100000000E-03 0.  1.
        -12    1    3    3    0    0 -0.25588443026E+02 -0.78468315547E+01  0.64086946319E+01  0.27521129134E+02  0.00000000000E+00 0.  1.
</event>
<event>
 7    1  0.7457761E-012  0.5930191E+02  0.7816164E-02  0.1266605E+00
        -11   -1    0    0    0    0  0.00000000000E+00  0.00000000000E+00  0.45593999997E+02  0.45594000000E+02  0.51100000000E-03 0.  1.
         11   -1    0    0    0    0 -0.00000000000E+00 -0.00000000000E+00 -0.45593999997E+02  0.45594000000E+02  0.51100000000E-03 0. -1.
    9900012    2    1    2    0    0  0.25700187507E+02  0.17782340606E+02 -0.63254648842E+01  0.59301909281E+02  0.49999936630E+02 0.  0.
         12    1    1    2    0    0 -0.25700187507E+02 -0.17782340606E+02  0.63254648842E+01  0.31886090719E+02  0.00000000000E+00 0. -1.
         11    1    3    3    0    0 -0.81977509862E+01  0.67703885870E+00  0.25494643862E+01  0.86116938964E+01  0.51100000000E-03 0.  1.
        -11    1    3    3    0    0  0.34620460696E+02  0.21940816701E+02 -0.14278211694E+02  0.43403261004E+02  0.51100000000E-03 0. -1.
         12    1    3    3    0    0 -0.72252220248E+00 -0.48355149534E+01  0.54032824236E+01  0.72869543808E+01  0.00000000000E+00 0. -1.
</event>
<event>
 7    1  0.7457761E-012  0.5930195E+02  0.7816164E-02  0.1266605E+00
        -11   -1    0    0    0    0  0.00000000000E+00  0.00000000000E+00  0.45593999997E+02  0.45594000000E+02  0.51100000000E-03 0.  1.
         11   -1    0    0    0    0 -0.00000000000E+00 -0.00000000000E+00 -0.45593999997E+02  0.45594000000E+02  0.51100000000E-03 0. -1.
    9900012    2    1    2    0    0  0.13222590695E+02 -0.17805394821E+02  0.22909632660E+02  0.59301948848E+02  0.50000008792E+02 0.  0.
         12    1    1    2    0    0 -0.13222590695E+02  0.17805394821E+02 -0.22909632660E+02  0.31886051152E+02  0.00000000000E+00 0. -1.
         11    1    3    3    0    0  0.25233513609E+02 -0.85257676549E+01 -0.34888875537E+01  0.26862450740E+02  0.51100000000E-03 0. -1.
        -11    1    3    3    0    0 -0.38369664140E+01 -0.97984786135E+01  0.16776185258E+02  0.19803355435E+02  0.51100000000E-03 0.  1.
         12    1    3    3    0    0 -0.81739564993E+01  0.51885144716E+00  0.96223349549E+01  0.12636142673E+02  0.00000000000E+00 0. -1.
</event>
<event>
 7    1  0.7457761E-012  0.5930193E+02  0.7816164E-02  0.1266605E+00
        -11   -1    0    0    0    0  0.00000000000E+00  0.00000000000E+00  0.45593999997E+02  0.45594000000E+02  0.51100000000E-03 0.  1.
         11   -1    0    0    0    0 -0.00000000000E+00 -0.00000000000E+00 -0.45593999997E+02  0.45594000000E+02  0.51100000000E-03 0. -1.
    9900012    2    1    2    0    0 -0.30670338903E+02  0.35409600884E+01 -0.79695131806E+01  0.59301933652E+02  0.49999981078E+02 0.  0.
         12    1    1    2    0    0  0.30670338903E+02 -0.35409600884E+01  0.79695131806E+01  0.31886066348E+02  0.00000000000E+00 0. -1.
         11    1    3    3    0    0 -0.15891609726E+02  0.12188979436E+02 -0.17694351339E+02  0.26724605684E+02  0.51100000000E-03 0. -1.
        -11    1    3    3    0    0 -0.21182531495E+02 -0.11469399069E+02  0.77990718298E+01  0.25319405151E+02  0.51100000000E-03 0.  1.
        -12    1    3    3    0    0  0.64038023185E+01  0.28213797208E+01  0.19257663291E+01  0.72579228170E+01  0.00000000000E+00 0.  1.
</event>
<event>
 7    1  0.7457761E-012  0.5930195E+02  0.7816164E-02  0.1266605E+00
        -11   -1    0    0    0    0  0.00000000000E+00  0.00000000000E+00  0.45593999997E+02  0.45594000000E+02  0.51100000000E-03 0.  1.
         11   -1    0    0    0    0 -0.00000000000E+00 -0.00000000000E+00 -0.45593999997E+02  0.45594000000E+02  0.51100000000E-03 0. -1.
    9900012    2    1    2    0    0 -0.12198053513E+02 -0.29460584776E+02  0.42199877685E-01  0.59301947474E+02  0.50000006285E+02 0.  0.
         12    1    1    2    0    0  0.12198053513E+02  0.29460584776E+02 -0.42199877685E-01  0.31886052526E+02  0.00000000000E+00 0. -1.
         11    1    3    3    0    0  0.18103397267E+01 -0.33323203660E+01 -0.20375427640E+01  0.43050284231E+01  0.51100000000E-03 0. -1.
        -11    1    3    3    0    0 -0.20259600313E+02 -0.14120432515E+02  0.20529142945E+02  0.32113606611E+02  0.51100000000E-03 0.  1.
        -12    1    3    3    0    0  0.62512070728E+01 -0.12007831895E+02 -0.18449400303E+02  0.22883312440E+02  0.00000000000E+00 0.  1.
</event>
<event>
 7    1  0.7457761E-012  0.5930193E+02  0.7816164E-02  0.1266605E+00
        -11   -1    0    0    0    0  0.00000000000E+00  0.00000000000E+00  0.45593999997E+02  0.45594000000E+02  0.51100000000E-03 0.  1.
         11   -1    0    0    0    0 -0.00000000000E+00 -0.00000000000E+00 -0.45593999997E+02  0.45594000000E+02  0.51100000000E-03 0. -1.
    9900012    2    1    2    0    0 -0.21134880245E+02  0.23826011675E+02 -0.15360362322E+01  0.59301930901E+02  0.49999976060E+02 0.  0.
         12    1    1    2    0    0  0.21134880245E+02 -0.23826011675E+02  0.15360362322E+01  0.31886069099E+02  0.00000000000E+00 0. -1.
         11    1    3    3    0    0  0.10923442180E+02 -0.36759863128E+01 -0.10460893945E+02  0.15564856788E+02  0.51100000000E-03 0. -1.
        -11    1    3    3    0    0 -0.28454553626E+02  0.26650391730E+02  0.90852712381E+01  0.40030577752E+02  0.51100000000E-03 0.  1.
         12    1    3    3    0    0 -0.36037687995E+01  0.85160625763E+00 -0.16041352554E+00  0.37064963615E+01  0.00000000000E+00 0. -1.
</event>
<event>
 7    1  0.7457761E-012  0.5930200E+02  0.7816164E-02  0.1266605E+00
        -11   -1    0    0    0    0  0.00000000000E+00  0.00000000000E+00  0.45593999997E+02  0.45594000000E+02  0.51100000000E-03 0. -1.
         11   -1    0    0    0    0 -0.00000000000E+00 -0.00000000000E+00 -0.45593999997E+02  0.45594000000E+02  0.51100000000E-03 0.  1.
    9900012    2    1    2    0    0  0.25219834793E+02  0.11576232869E+02 -0.15705668292E+02  0.59301996003E+02  0.50000094790E+02 0.  0.
         12    1    1    2    0    0 -0.25219834793E+02 -0.11576232869E+02  0.15705668292E+02  0.31886003997E+02  0.00000000000E+00 0. -1.
         11    1    3    3    0    0 -0.66294492216E+01  0.41083451641E+01 -0.11739421651E+02  0.14094045478E+02  0.51100000000E-03 0.  1.
        -11    1    3    3    0    0  0.27069488659E+02  0.14825059551E+02  0.65108472373E+01  0.31542522711E+02  0.51100000000E-03 0. -1.
         12    1    3    3    0    0  0.47797953549E+01 -0.73571718459E+01 -0.10477093878E+02  0.13665427814E+02  0.00000000000E+00 0. -1.
</event>
<event>
 7    1  0.7457761E-012  0.5930187E+02  0.7816164E-02  0.1266605E+00
        -11   -1    0    0    0    0  0.00000000000E+00  0.00000000000E+00  0.45593999997E+02  0.45594000000E+02  0.51100000000E-03 0.  1.
         11   -1    0    0    0    0 -0.00000000000E+00 -0.00000000000E+00 -0.45593999997E+02  0.45594000000E+02  0.51100000000E-03 0. -1.
    9900012    2    1    2    0    0 -0.76116378526E+01  0.10052680349E+02  0.29287058374E+02  0.59301871336E+02  0.49999867427E+02 0.  0.
         12    1    1    2    0    0  0.76116378526E+01 -0.10052680349E+02 -0.29287058374E+02  0.31886128664E+02  0.00000000000E+00 0. -1.
         11    1    3    3    0    0 -0.21555792956E+02 -0.10326748085E+02  0.13521363602E+02  0.27461267448E+02  0.51100000000E-03 0.  1.
        -11    1    3    3    0    0  0.13096788990E+02  0.16445537925E+02  0.69373750942E+01  0.22138400415E+02  0.51100000000E-03 0. -1.
        -12    1    3    3    0    0  0.84736611349E+00  0.39338905091E+01  0.88283196783E+01  0.97022034719E+01  0.00000000000E+00 0.  1.
</event>
<event>
 7    1  0.7457761E-012  0.5930205E+02  0.7816164E-02  0.1266604E+00
        -11   -1    0    0    0    0  0.00000000000E+00  0.00000000000E+00  0.45593999997E+02  0.45594000000E+02  0.51100000000E-03 0.  1.
         11   -1    0    0    0    0 -0.00000000000E+00 -0.00000000000E+00 -0.45593999997E+02  0.45594000000E+02  0.51100000000E-03 0. -1.
    9900012    2    1    2    0    0  0.31257269001E+02  0.41755613992E+01 -0.47182438723E+01  0.59302046923E+02  0.50000187656E+02 0.  0.
         12    1    1    2    0    0 -0.31257269001E+02 -0.41755613992E+01  0.47182438723E+01  0.31885953077E+02  0.00000000000E+00 0. -1.
         11    1    3    3    0    0 -0.43910790459E+01  0.83462389691E+01 -0.12806537023E+02  0.15904360123E+02  0.51100000000E-03 0. -1.
        -11    1    3    3    0    0  0.28559063090E+02  0.55720682005E+01  0.39159233413E+00  0.29100195419E+02  0.51100000000E-03 0.  1.
        -12    1    3    3    0    0  0.70892849566E+01 -0.97427457704E+01  0.76967008169E+01  0.14297491382E+02  0.00000000000E+00 0.  1.
</event>
<event>
 7    1  0.7457761E-012  0.5930194E+02  0.7816164E-02  0.1266605E+00
        -11   -1    0    0    0    0  0.00000000000E+00  0.00000000000E+00  0.45593999997E+02  0.45594000000E+02  0.51100000000E-03 0.  1.
         11   -1    0    0    0    0 -0.00000000000E+00 -0.00000000000E+00 -0.45593999997E+02  0.45594000000E+02  0.51100000000E-03 0. -1.
    9900012    2    1    2    0    0  0.33812612398E+00  0.20239174701E+01  0.31819970138E+02  0.59301936104E+02  0.49999985549E+02 0.  0.
         12    1    1    2    0    0 -0.33812612398E+00 -0.20239174701E+01 -0.31819970138E+02  0.31886063896E+02  0.00000000000E+00 0. -1.
         11    1    3    3    0    0 -0.56190882166E+01 -0.24790508112E+00  0.40206074547E+02  0.40597586628E+02  0.51100000000E-03 0.  1.
        -11    1    3    3    0    0  0.23675918900E+01  0.80003033261E+01 -0.85444174501E+01  0.11942253325E+02  0.51100000000E-03 0. -1.
        -12    1    3    3    0    0  0.35896224506E+01 -0.57284807748E+01  0.15831304132E+00  0.67620961501E+01  0.00000000000E+00 0.  1.
</event>
<event>
 7    1  0.7457761E-012  0.5930194E+02  0.7816164E-02  0.1266605E+00
        -11   -1    0    0    0    0  0.00000000000E+00  0.00000000000E+00  0.45593999997E+02  0.45594000000E+02  0.51100000000E-03 0. -1.
         11   -1    0    0    0    0 -0.00000000000E+00 -0.00000000000E+00 -0.45593999997E+02  0.45594000000E+02  0.51100000000E-03 0.  1.
    9900012    2    1    2    0    0 -0.11569124229E+02 -0.26482562444E+02 -0.13474050317E+02  0.59301940649E+02  0.49999993837E+02 0.  0.
         12    1    1    2    0    0  0.11569124229E+02  0.26482562444E+02  0.13474050317E+02  0.31886059351E+02  0.00000000000E+00 0. -1.
         11    1    3    3    0    0 -0.19111086771E+02 -0.34319814907E+02 -0.13063388911E+01  0.39303814756E+02  0.51100000000E-03 0. -1.
        -11    1    3    3    0    0  0.73141107600E+01  0.31624433263E+01 -0.11803868232E+01  0.80554687830E+01  0.51100000000E-03 0.  1.
         12    1    3    3    0    0  0.22785178187E+00  0.46748091372E+01 -0.10987324603E+02  0.11942657109E+02  0.00000000000E+00 0. -1.
</event>
<event>
 7    1  0.7457761E-012  0.5930197E+02  0.7816164E-02  0.1266605E+00
        -11   -1    0    0    0    0  0.00000000000E+00  0.00000000000E+00  0.45593999997E+02  0.45594000000E+02  0.51100000000E-03 0.  1.
         11   -1    0    0    0    0 -0.00000000000E+00 -0.00000000000E+00 -0.45593999997E+02  0.45594000000E+02  0.51100000000E-03 0. -1.
    9900012    2    1    2    0    0 -0.17136852571E+02  0.10579409786E+02  0.24720907819E+02  0.59301969974E+02  0.50000047319E+02 0.  0.
         12    1    1    2    0    0  0.17136852571E+02 -0.10579409786E+02 -0.24720907819E+02  0.31886030026E+02  0.00000000000E+00 0. -1.
         11    1    3    3    0    0 -0.21284473450E+02  0.74911665885E+01 -0.72042872635E+01  0.23686454824E+02  0.51100000000E-03 0.  1.
        -11    1    3    3    0    0 -0.15269116366E+01  0.69176767018E+01  0.77956566296E+01  0.10533659034E+02  0.51100000000E-03 0. -1.
         12    1    3    3    0    0  0.56745325160E+01 -0.38294335048E+01  0.24129538453E+02  0.25081856115E+02  0.00000000000E+00 0. -1.
</event>
<event>
 7    1  0.7457761E-012  0.5930169E+02  0.7816164E-02  0.1266606E+00
        -11   -1    0    0    0    0  0.00000000000E+00  0.00000000000E+00  0.45593999997E+02  0.45594000000E+02  0.51100000000E-03 0.  1.
         11   -1    0    0    0    0 -0.00000000000E+00 -0.00000000000E+00 -0.45593999997E+02  0.45594000000E+02  0.51100000000E-03 0. -1.
    9900012    2    1    2    0    0  0.24651273223E+02  0.37709721208E+01  0.19870366677E+02  0.59301686727E+02  0.49999530744E+02 0.  0.
         12    1    1    2    0    0 -0.24651273223E+02 -0.37709721208E+01 -0.19870366677E+02  0.31886313273E+02  0.00000000000E+00 0. -1.
         11    1    3    3    0    0  0.51200711446E+01  0.81383782725E+01 -0.14512525542E+02  0.17408668166E+02  0.51100000000E-03 0. -1.
        -11    1    3    3    0    0  0.13440647778E+02  0.25378694188E+01  0.14238077672E+02  0.19743724317E+02  0.51100000000E-03 0.  1.
         12    1    3    3    0    0  0.60905543009E+01 -0.69052755706E+01  0.20144814547E+02  0.22149294245E+02  0.00000000000E+00 0. -1.
</event>
<event>
 7    1  0.7457761E-012  0.5930195E+02  0.7816164E-02  0.1266605E+00
        -11   -1    0    0    0    0  0.00000000000E+00  0.00000000000E+00  0.45593999997E+02  0.45594000000E+02  0.51100000000E-03 0.  1.
         11   -1    0    0    0    0 -0.00000000000E+00 -0.00000000000E+00 -0.45593999997E+02  0.45594000000E+02  0.51100000000E-03 0. -1.
    9900012    2    1    2    0    0  0.33751139659E+01 -0.89100519161E+01  0.30429254143E+02  0.59301954037E+02  0.50000018255E+02 0.  0.
         12    1    1    2    0    0 -0.33751139659E+01  0.89100519161E+01 -0.30429254143E+02  0.31886045963E+02  0.00000000000E+00 0. -1.
         11    1    3    3    0    0  0.19195140925E+02  0.26443273224E+01  0.46066616245E+01  0.19916506564E+02  0.51100000000E-03 0. -1.
        -11    1    3    3    0    0 -0.13403792087E+02  0.14459639014E+01  0.43462768587E+01  0.14164835922E+02  0.51100000000E-03 0.  1.
         12    1    3    3    0    0 -0.24162348725E+01 -0.13000343140E+02  0.21476315660E+02  0.25220611552E+02  0.00000000000E+00 0. -1.
</event>
<event>
 7    1  0.7457761E-012  0.5930194E+02  0.7816164E-02  0.1266605E+00
        -11   -1    0    0    0    0  0.00000000000E+00  0.00000000000E+00  0.45593999997E+02  0.45594000000E+02  0.51100000000E-03 0. -1.
         11   -1    0    0    0    0 -0.00000000000E+00 -0.00000000000E+00 -0.45593999997E+02  0.45594000000E+02  0.51100000000E-03 0.  1.
    9900012    2    1    2    0    0  0.25672122585E+02 -0.40491762295E+01 -0.18473423180E+02  0.59301936114E+02  0.49999985567E+02 0.  0.
         12    1    1    2    0    0 -0.25672122585E+02  0.40491762295E+01  0.18473423180E+02  0.31886063886E+02  0.00000000000E+00 0. -1.
         11    1    3    3    0    0 -0.25727018886E+01  0.71002213942E+01 -0.16206860802E+02  0.17879996537E+02  0.51100000000E-03 0. -1.
        -11    1    3    3    0    0  0.32044848533E+02 -0.73060877276E+01 -0.77011441607E+01  0.33757352636E+02  0.51100000000E-03 0.  1.
        -12    1    3    3    0    0 -0.38000240592E+01 -0.38433098961E+01  0.54345817829E+01  0.76645869402E+01  0.00000000000E+00 0.  1.
</event>
<event>
 7    1  0.7457761E-012  0.5930194E+02  0.7816164E-02  0.1266605E+00
        -11   -1    0    0    0    0  0.00000000000E+00  0.00000000000E+00  0.45593999997E+02  0.45594000000E+02  0.51100000000E-03 0. -1.
         11   -1    0    0    0    0 -0.00000000000E+00 -0.00000000000E+00 -0.45593999997E+02  0.45594000000E+02  0.51100000000E-03 0.  1.
    9900012    2    1    2    0    0 -0.22193652506E+02  0.18697837790E+02  0.13211866079E+02  0.59301941058E+02  0.49999994584E+02 0.  0.
         12    1    1    2    0    0  0.22193652506E+02 -0.18697837790E+02 -0.13211866079E+02  0.31886058942E+02  0.00000000000E+00 0. -1.
         11    1    3    3    0    0 -0.57908495423E+01  0.39179356154E+01 -0.15405488794E+02  0.16917838017E+02  0.51100000000E-03 0. -1.
        -11    1    3    3    0    0 -0.17892060485E+02  0.96238322552E+01  0.93154669630E+01  0.22349986593E+02  0.51100000000E-03 0.  1.
         12    1    3    3    0    0  0.14892575217E+01  0.51560699192E+01  0.19301887910E+02  0.20034116449E+02  0.00000000000E+00 0. -1.
</event>
<event>
 7    1  0.7457761E-012  0.5930194E+02  0.7816164E-02  0.1266605E+00
        -11   -1    0    0    0    0  0.00000000000E+00  0.00000000000E+00  0.45593999997E+02  0.45594000000E+02  0.51100000000E-03 0. -1.
         11   -1    0    0    0    0 -0.00000000000E+00 -0.00000000000E+00 -0.45593999997E+02  0.45594000000E+02  0.51100000000E-03 0.  1.
    9900012    2    1    2    0    0  0.11982722327E+02  0.63395023962E+01 -0.28860801181E+02  0.59301940823E+02  0.49999994156E+02 0.  0.
         12    1    1    2    0    0 -0.11982722327E+02 -0.63395023962E+01  0.28860801181E+02  0.31886059177E+02  0.00000000000E+00 0. -1.
         11    1    3    3    0    0  0.66694546908E+01 -0.97744383852E+00 -0.24506694894E+01  0.71723638737E+01  0.51100000000E-03 0. -1.
        -11    1    3    3    0    0 -0.15713479758E+02 -0.70024500478E+01 -0.28142314418E+01  0.17431800011E+02  0.51100000000E-03 0.  1.
        -12    1    3    3    0    0  0.21026747394E+02  0.14319396283E+02 -0.23595900250E+02  0.34697776938E+02  0.00000000000E+00 0.  1.
</event>
<event>
 7    1  0.7457761E-012  0.5930191E+02  0.7816164E-02  0.1266605E+00
        -11   -1    0    0    0    0  0.00000000000E+00  0.00000000000E+00  0.45593999997E+02  0.45594000000E+02  0.51100000000E-03 0. -1.
         11   -1    0    0    0    0 -0.00000000000E+00 -0.00000000000E+00 -0.45593999997E+02  0.45594000000E+02  0.51100000000E-03 0.  1.
    9900012    2    1    2    0    0 -0.25809574242E+02 -0.91057560069E+01 -0.16360733958E+02  0.59301913212E+02  0.49999943800E+02 0.  0.
         12    1    1    2    0    0  0.25809574242E+02  0.91057560069E+01  0.16360733958E+02  0.31886086788E+02  0.00000000000E+00 0. -1.
         11    1    3    3    0    0 -0.20959237498E+02  0.11139737796E+02  0.11094286474E+00  0.23735958022E+02  0.51100000000E-03 0.  1.
        -11    1    3    3    0    0 -0.78823874366E+01 -0.14526716135E+02 -0.21677565242E+02  0.27259390097E+02  0.51100000000E-03 0. -1.
         12    1    3    3    0    0  0.30320506924E+01 -0.57187776674E+01  0.52058884196E+01  0.83065650932E+01  0.00000000000E+00 0. -1.
</event>
<event>
 7    1  0.7457761E-012  0.5930196E+02  0.7816164E-02  0.1266605E+00
        -11   -1    0    0    0    0  0.00000000000E+00  0.00000000000E+00  0.45593999997E+02  0.45594000000E+02  0.51100000000E-03 0.  1.
         11   -1    0    0    0    0 -0.00000000000E+00 -0.00000000000E+00 -0.45593999997E+02  0.45594000000E+02  0.51100000000E-03 0. -1.
    9900012    2    1    2    0    0 -0.31653023550E+02  0.50193794015E+00 -0.38149423865E+01  0.59301958744E+02  0.50000026839E+02 0.  0.
         12    1    1    2    0    0  0.31653023550E+02 -0.50193794015E+00  0.38149423865E+01  0.31886041256E+02  0.00000000000E+00 0. -1.
         11    1    3    3    0    0 -0.15582591202E+02  0.19693361295E+02 -0.88745714839E+01  0.26634632473E+02  0.51100000000E-03 0.  1.
        -11    1    3    3    0    0 -0.15244724246E+02 -0.92595316892E+01 -0.49823906581E+01  0.18519307799E+02  0.51100000000E-03 0. -1.
         12    1    3    3    0    0 -0.82570810254E+00 -0.99318916654E+01  0.10042019755E+02  0.14148018472E+02  0.00000000000E+00 0. -1.
</event>
<event>
 7    1  0.7457761E-012  0.5930182E+02  0.7816164E-02  0.1266605E+00
        -11   -1    0    0    0    0  0.00000000000E+00  0.00000000000E+00  0.45593999997E+02  0.45594000000E+02  0.51100000000E-03 0.  1.
         11   -1    0    0    0    0 -0.00000000000E+00 -0.00000000000E+00 -0.45593999997E+02  0.45594000000E+02  0.51100000000E-03 0. -1.
    9900012    2    1    2    0    0  0.17104431076E+01  0.15712337410E+02  0.27693411973E+02  0.59301823854E+02  0.49999780832E+02 0.  0.
         12    1    1    2    0    0 -0.17104431076E+01 -0.15712337410E+02 -0.27693411973E+02  0.31886176146E+02  0.00000000000E+00 0. -1.
         11    1    3    3    0    0 -0.15041348272E+02 -0.10576994377E+01  0.10871555635E+02  0.18589018482E+02  0.51100000000E-03 0.  1.
        -11    1    3    3    0    0  0.23150573531E+02  0.70750932138E+01  0.62388232822E+01  0.24998578260E+02  0.51100000000E-03 0. -1.
         12    1    3    3    0    0 -0.63987821518E+01  0.96949436337E+01  0.10583033055E+02  0.15714227112E+02  0.00000000000E+00 0. -1.
</event>
<event>
 7    1  0.7457761E-012  0.5930198E+02  0.7816164E-02  0.1266605E+00
        -11   -1    0    0    0    0  0.00000000000E+00  0.00000000000E+00  0.45593999997E+02  0.45594000000E+02  0.51100000000E-03 0.  1.
         11   -1    0    0    0    0 -0.00000000000E+00 -0.00000000000E+00 -0.45593999997E+02  0.45594000000E+02  0.51100000000E-03 0. -1.
    9900012    2    1    2    0    0  0.91438184508E+01  0.20689912273E+02 -0.22473016285E+02  0.59301978820E+02  0.50000063452E+02 0.  0.
         12    1    1    2    0    0 -0.91438184508E+01 -0.20689912273E+02  0.22473016285E+02  0.31886021180E+02  0.00000000000E+00 0. -1.
         11    1    3    3    0    0  0.69151574647E+01 -0.52397890667E+01 -0.15777685051E+02  0.18005836222E+02  0.51100000000E-03 0. -1.
        -11    1    3    3    0    0 -0.10466615548E+02  0.11746091995E+02  0.76177285927E+01  0.17480003071E+02  0.51100000000E-03 0.  1.
        -12    1    3    3    0    0  0.12695276534E+02  0.14183609345E+02 -0.14313059827E+02  0.23816139526E+02  0.00000000000E+00 0.  1.
</event>
<event>
 7    1  0.7457761E-012  0.5930196E+02  0.7816164E-02  0.1266605E+00
        -11   -1    0    0    0    0  0.00000000000E+00  0.00000000000E+00  0.45593999997E+02  0.45594000000E+02  0.51100000000E-03 0.  1.
         11   -1    0    0    0    0 -0.00000000000E+00 -0.00000000000E+00 -0.45593999997E+02  0.45594000000E+02  0.51100000000E-03 0. -1.
    9900012    2    1    2    0    0  0.88614610306E+01 -0.17342580808E+02  0.25247352390E+02  0.59301962250E+02  0.50000033233E+02 0.  0.
         12    1    1    2    0    0 -0.88614610306E+01  0.17342580808E+02 -0.25247352390E+02  0.31886037750E+02  0.00000000000E+00 0. -1.
         11    1    3    3    0    0 -0.42711872069E+01  0.11700036689E+02 -0.32187023201E+01  0.12864444938E+02  0.51100000000E-03 0. -1.
        -11    1    3    3    0    0  0.12932552453E+02 -0.23303709670E+02  0.12436728746E+02  0.29410644663E+02  0.51100000000E-03 0.  1.
         12    1    3    3    0    0  0.20009578424E+00 -0.57389078267E+01  0.16029325964E+02  0.17026872649E+02  0.00000000000E+00 0. -1.
</event>
<event>
 7    1  0.7457761E-012  0.5930195E+02  0.7816164E-02  0.1266605E+00
        -11   -1    0    0    0    0  0.00000000000E+00  0.00000000000E+00  0.45593999997E+02  0.45594000000E+02  0.51100000000E-03 0.  1.
         11   -1    0    0    0    0 -0.00000000000E+00 -0.00000000000E+00 -0.45593999997E+02  0.45594000000E+02  0.51100000000E-03 0. -1.
    9900012    2    1    2    0    0 -0.26250753691E+00  0.18083579506E+01  0.31833647973E+02  0.59301949572E+02  0.50000010111E+02 0.  0.
         12    1    1    2    0    0  0.26250753691E+00 -0.18083579506E+01 -0.31833647973E+02  0.31886050428E+02  0.00000000000E+00 0. -1.
         11    1    3    3    0    0  0.89118338845E+01  0.17755975387E+01 -0.18793576867E+01  0.92793057596E+01  0.51100000000E-03 0. -1.
        -11    1    3    3    0    0 -0.18438422982E+02 -0.97099502374E+01  0.29134978333E+02  0.35820462565E+02  0.51100000000E-03 0.  1.
        -12    1    3    3    0    0  0.92640815607E+01  0.97427106493E+01  0.45780273263E+01  0.14202181247E+02  0.00000000000E+00 0.  1.
</event>
<event>
 7    1  0.7457761E-012  0.5930195E+02  0.7816164E-02  0.1266605E+00
        -11   -1    0    0    0    0  0.00000000000E+00  0.00000000000E+00  0.45593999997E+02  0.45594000000E+02  0.51100000000E-03 0.  1.
         11   -1    0    0    0    0 -0.00000000000E+00 -0.00000000000E+00 -0.45593999997E+02  0.45594000000E+02  0.51100000000E-03 0. -1.
    9900012    2    1    2    0    0 -0.79429377179E+01  0.40628970318E+01  0.30612462379E+02  0.59301949056E+02  0.50000009170E+02 0.  0.
         12    1    1    2    0    0  0.79429377179E+01 -0.40628970318E+01 -0.30612462379E+02  0.31886050944E+02  0.00000000000E+00 0. -1.
         11    1    3    3    0    0 -0.13067850761E+01 -0.89936790261E+01 -0.11080103263E+02  0.14330479345E+02  0.51100000000E-03 0. -1.
        -11    1    3    3    0    0 -0.10347683037E+01  0.64019047634E+01  0.28065031055E+02  0.28804532602E+02  0.51100000000E-03 0.  1.
         12    1    3    3    0    0 -0.56013843382E+01  0.66546712946E+01  0.13627534588E+02  0.16166937109E+02  0.00000000000E+00 0. -1.
</event>
<event>
 7    1  0.7457761E-012  0.5930193E+02  0.7816164E-02  0.1266605E+00
        -11   -1    0    0    0    0  0.00000000000E+00  0.00000000000E+00  0.45593999997E+02  0.45594000000E+02  0.51100000000E-03 0.  1.
         11   -1    0    0    0    0 -0.00000000000E+00 -0.00000000000E+00 -0.45593999997E+02  0.45594000000E+02  0.51100000000E-03 0. -1.
    9900012    2    1    2    0    0 -0.17603692231E+02  0.83596973858E+01  0.25237812401E+02  0.59301926311E+02  0.49999967688E+02 0.  0.
         12    1    1    2    0    0  0.17603692231E+02 -0.83596973858E+01 -0.25237812401E+02  0.31886073689E+02  0.00000000000E+00 0. -1.
         11    1    3    3    0    0 -0.10871447496E+02 -0.14808246514E+01 -0.53086415935E+01  0.12188637665E+02  0.51100000000E-03 0. -1.
        -11    1    3    3    0    0 -0.12125750615E+01  0.18514526650E+02  0.31737613823E+02  0.36763217579E+02  0.51100000000E-03 0.  1.
         12    1    3    3    0    0 -0.55196696740E+01 -0.86740046130E+01 -0.11911598288E+01  0.10350071066E+02  0.00000000000E+00 0. -1.
</event>
<event>
 7    1  0.7457761E-012  0.5930194E+02  0.7816164E-02  0.1266605E+00
        -11   -1    0    0    0    0  0.00000000000E+00  0.00000000000E+00  0.45593999997E+02  0.45594000000E+02  0.51100000000E-03 0. -1.
         11   -1    0    0    0    0 -0.00000000000E+00 -0.00000000000E+00 -0.45593999997E+02  0.45594000000E+02  0.51100000000E-03 0.  1.
    9900012    2    1    2    0    0 -0.16952619796E+02  0.23527789522E+02 -0.13257927394E+02  0.59301939777E+02  0.49999992248E+02 0.  0.
         12    1    1    2    0    0  0.16952619796E+02 -0.23527789522E+02  0.13257927394E+02  0.31886060223E+02  0.00000000000E+00 0. -1.
         11    1    3    3    0    0 -0.20567013232E+00  0.17493335476E+02 -0.18862942047E+02  0.25726827811E+02  0.51100000000E-03 0. -1.
        -11    1    3    3    0    0 -0.33308702004E+00 -0.10060278581E+02  0.25594147050E+01  0.10386084728E+02  0.51100000000E-03 0.  1.
         12    1    3    3    0    0 -0.16413862644E+02  0.16094732627E+02  0.30455999485E+01  0.23189027239E+02  0.00000000000E+00 0. -1.
</event>
<event>
 7    1  0.7457761E-012  0.5930198E+02  0.7816164E-02  0.1266605E+00
        -11   -1    0    0    0    0  0.00000000000E+00  0.00000000000E+00  0.45593999997E+02  0.45594000000E+02  0.51100000000E-03 0.  1.
         11   -1    0    0    0    0 -0.00000000000E+00 -0.00000000000E+00 -0.45593999997E+02  0.45594000000E+02  0.51100000000E-03 0. -1.
    9900012    2    1    2    0    0  0.31371083207E+02 -0.26655468872E+01 -0.50466077786E+01  0.59301980307E+02  0.50000066165E+02 0.  0.
         12    1    1    2    0    0 -0.31371083207E+02  0.26655468872E+01  0.50466077786E+01  0.31886019693E+02  0.00000000000E+00 0. -1.
         11    1    3    3    0    0  0.11632012635E+02  0.13034640327E+02 -0.99623047039E+01  0.20111018912E+02  0.51100000000E-03 0. -1.
        -11    1    3    3    0    0  0.34204161044E+01 -0.18808954562E+02  0.10315917430E+02  0.21723125252E+02  0.51100000000E-03 0.  1.
        -12    1    3    3    0    0  0.16318654467E+02  0.31087673479E+01 -0.54002205045E+01  0.17467836144E+02  0.00000000000E+00 0.  1.
</event>
<event>
 7    1  0.7457761E-012  0.5930195E+02  0.7816164E-02  0.1266605E+00
        -11   -1    0    0    0    0  0.00000000000E+00  0.00000000000E+00  0.45593999997E+02  0.45594000000E+02  0.51100000000E-03 0.  1.
         11   -1    0    0    0    0 -0.00000000000E+00 -0.00000000000E+00 -0.45593999997E+02  0.45594000000E+02  0.51100000000E-03 0. -1.
    9900012    2    1    2    0    0  0.30871548435E+02  0.32297559668E+01  0.72963390989E+01  0.59301946769E+02  0.50000005000E+02 0.  0.
         12    1    1    2    0    0 -0.30871548435E+02 -0.32297559668E+01 -0.72963390989E+01  0.31886053231E+02  0.00000000000E+00 0. -1.
         11    1    3    3    0    0  0.32979778949E+02 -0.11378835192E+02  0.10484532480E+02  0.36428960065E+02  0.51100000000E-03 0. -1.
        -11    1    3    3    0    0  0.20601441447E+01  0.21514970972E+01  0.60976212646E+01  0.67863185162E+01  0.51100000000E-03 0.  1.
         12    1    3    3    0    0 -0.41683746588E+01  0.12457094061E+02 -0.92858146455E+01  0.16086668188E+02  0.00000000000E+00 0. -1.
</event>
<event>
 7    1  0.7457761E-012  0.5930195E+02  0.7816164E-02  0.1266605E+00
        -11   -1    0    0    0    0  0.00000000000E+00  0.00000000000E+00  0.45593999997E+02  0.45594000000E+02  0.51100000000E-03 0.  1.
         11   -1    0    0    0    0 -0.00000000000E+00 -0.00000000000E+00 -0.45593999997E+02  0.45594000000E+02  0.51100000000E-03 0. -1.
    9900012    2    1    2    0    0  0.31386183260E+02  0.42292565756E+01 -0.37068694236E+01  0.59301953025E+02  0.50000016408E+02 0.  0.
         12    1    1    2    0    0 -0.31386183260E+02 -0.42292565756E+01  0.37068694236E+01  0.31886046975E+02  0.00000000000E+00 0. -1.
         11    1    3    3    0    0  0.10801018625E+02  0.10060923627E+02  0.10600516463E+02  0.18172923185E+02  0.51100000000E-03 0.  1.
        -11    1    3    3    0    0  0.49911567758E+01 -0.18014221524E+02 -0.56370812131E+01  0.19524356787E+02  0.51100000000E-03 0. -1.
         12    1    3    3    0    0  0.15594007859E+02  0.12182554472E+02 -0.86703046734E+01  0.21604673053E+02  0.00000000000E+00 0. -1.
</event>
<event>
 7    1  0.7457761E-012  0.5930194E+02  0.7816164E-02  0.1266605E+00
        -11   -1    0    0    0    0  0.00000000000E+00  0.00000000000E+00  0.45593999997E+02  0.45594000000E+02  0.51100000000E-03 0.  1.
         11   -1    0    0    0    0 -0.00000000000E+00 -0.00000000000E+00 -0.45593999997E+02  0.45594000000E+02  0.51100000000E-03 0. -1.
    9900012    2    1    2    0    0 -0.23557845979E+02  0.18531080729E+02 -0.10878771124E+02  0.59301941584E+02  0.49999995543E+02 0.  0.
         12    1    1    2    0    0  0.23557845979E+02 -0.18531080729E+02  0.10878771124E+02  0.31886058416E+02  0.00000000000E+00 0. -1.
         11    1    3    3    0    0 -0.24937367546E+02  0.27517208360E+01 -0.25666634221E+02  0.35891787085E+02  0.51100000000E-03 0. -1.
        -11    1    3    3    0    0 -0.89355178401E+00  0.12789023818E+02  0.66389676428E+01  0.14437224686E+02  0.51100000000E-03 0.  1.
         12    1    3    3    0    0  0.22730733505E+01  0.29903360747E+01  0.81488954544E+01  0.89729298127E+01  0.00000000000E+00 0. -1.
</event>
<event>
 7    1  0.7457761E-012  0.5930191E+02  0.7816164E-02  0.1266605E+00
        -11   -1    0    0    0    0  0.00000000000E+00  0.00000000000E+00  0.45593999997E+02  0.45594000000E+02  0.51100000000E-03 0.  1.
         11   -1    0    0    0    0 -0.00000000000E+00 -0.00000000000E+00 -0.45593999997E+02  0.45594000000E+02  0.51100000000E-03 0. -1.
    9900012    2    1    2    0    0 -0.11060239163E+02 -0.26355489248E+02  0.14134416475E+02  0.59301914745E+02  0.49999946595E+02 0.  0.
         12    1    1    2    0    0  0.11060239163E+02  0.26355489248E+02 -0.14134416475E+02  0.31886085255E+02  0.00000000000E+00 0. -1.
         11    1    3    3    0    0 -0.76749249329E+01 -0.39387822666E+01 -0.96919936537E+01  0.12975099989E+02  0.51100000000E-03 0. -1.
        -11    1    3    3    0    0 -0.81338520791E+01 -0.26709255191E+02  0.27295585150E+02  0.39046034773E+02  0.51100000000E-03 0.  1.
         12    1    3    3    0    0  0.47485378491E+01  0.42925482098E+01 -0.34691750217E+01  0.72807799835E+01  0.00000000000E+00 0. -1.
</event>
<event>
 7    1  0.7457761E-012  0.5930188E+02  0.7816164E-02  0.1266605E+00
        -11   -1    0    0    0    0  0.00000000000E+00  0.00000000000E+00  0.45593999997E+02  0.45594000000E+02  0.51100000000E-03 0. -1.
         11   -1    0    0    0    0 -0.00000000000E+00 -0.00000000000E+00 -0.45593999997E+02  0.45594000000E+02  0.51100000000E-03 0.  1.
    9900012    2    1    2    0    0  0.35105016621E+01  0.26578202705E+02 -0.17262678210E+02  0.59301881705E+02  0.49999886338E+02 0.  0.
         12    1    1    2    0    0 -0.35105016621E+01 -0.26578202705E+02  0.17262678210E+02  0.31886118295E+02  0.00000000000E+00 0. -1.
         11    1    3    3    0    0 -0.21360424834E+01  0.30225318068E+01 -0.15826545669E+02  0.16253551123E+02  0.51100000000E-03 0. -1.
        -11    1    3    3    0    0 -0.55858544529E+01  0.26014706972E+02  0.84154578892E+01  0.27906749731E+02  0.51100000000E-03 0.  1.
        -12    1    3    3    0    0  0.11232398598E+02 -0.24590360734E+01 -0.98515904296E+01  0.15141580851E+02  0.00000000000E+00 0.  1.
</event>
<event>
 7    1  0.7457761E-012  0.5930196E+02  0.7816164E-02  0.1266605E+00
        -11   -1    0    0    0    0  0.00000000000E+00  0.00000000000E+00  0.45593999997E+02  0.45594000000E+02  0.51100000000E-03 0. -1.
         11   -1    0    0    0    0 -0.00000000000E+00 -0.00000000000E+00 -0.45593999997E+02  0.45594000000E+02  0.51100000000E-03 0.  1.
    9900012    2    1    2    0    0  0.17946487623E+02 -0.23239221844E+02  0.12433085592E+02  0.59301961249E+02  0.50000031407E+02 0.  0.
         12    1    1    2    0    0 -0.17946487623E+02  0.23239221844E+02 -0.12433085592E+02  0.31886038751E+02  0.00000000000E+00 0. -1.
         11    1    3    3    0    0 -0.50282781194E+01  0.34835963393E+01  0.73605877957E+01  0.95706466479E+01  0.51100000000E-03 0. -1.
        -11    1    3    3    0    0  0.31397776527E+02 -0.22416134509E+02  0.87894710153E+01  0.39567136088E+02  0.51100000000E-03 0.  1.
        -12    1    3    3    0    0 -0.84230107845E+01 -0.43066836733E+01 -0.37169732187E+01  0.10164178513E+02  0.00000000000E+00 0.  1.
</event>
<event>
 7    1  0.7457761E-012  0.5930190E+02  0.7816164E-02  0.1266605E+00
        -11   -1    0    0    0    0  0.00000000000E+00  0.00000000000E+00  0.45593999997E+02  0.45594000000E+02  0.51100000000E-03 0.  1.
         11   -1    0    0    0    0 -0.00000000000E+00 -0.00000000000E+00 -0.45593999997E+02  0.45594000000E+02  0.51100000000E-03 0. -1.
    9900012    2    1    2    0    0  0.14508603342E+01  0.20645818399E+02  0.24256307119E+02  0.59301901962E+02  0.49999923282E+02 0.  0.
         12    1    1    2    0    0 -0.14508603342E+01 -0.20645818399E+02 -0.24256307119E+02  0.31886098038E+02  0.00000000000E+00 0. -1.
         11    1    3    3    0    0 -0.11371215927E+02  0.26456356463E+02  0.91998722574E+01  0.30230464746E+02  0.51100000000E-03 0. -1.
        -11    1    3    3    0    0  0.76104815760E+01  0.20805768212E+01 -0.31976965711E+01  0.85131365165E+01  0.51100000000E-03 0.  1.
         12    1    3    3    0    0  0.52115946854E+01 -0.78911148854E+01  0.18254131432E+02  0.20558300699E+02  0.00000000000E+00 0. -1.
</event>
<event>
 7    1  0.7457761E-012  0.5930194E+02  0.7816164E-02  0.1266605E+00
        -11   -1    0    0    0    0  0.00000000000E+00  0.00000000000E+00  0.45593999997E+02  0.45594000000E+02  0.51100000000E-03 0.  1.
         11   -1    0    0    0    0 -0.00000000000E+00 -0.00000000000E+00 -0.45593999997E+02  0.45594000000E+02  0.51100000000E-03 0. -1.
    9900012    2    1    2    0    0  0.69171804485E+00  0.10025661754E+02  0.30261001686E+02  0.59301943635E+02  0.49999999284E+02 0.  0.
         12    1    1    2    0    0 -0.69171804485E+00 -0.10025661754E+02 -0.30261001686E+02  0.31886056365E+02  0.00000000000E+00 0. -1.
         11    1    3    3    0    0 -0.14761165822E+02  0.24862479178E+01  0.80738169350E+01  0.17007644319E+02  0.51100000000E-03 0. -1.
        -11    1    3    3    0    0  0.13862623523E+02 -0.57911863974E+01 -0.14677940965E+01  0.15095184352E+02  0.51100000000E-03 0.  1.
        -12    1    3    3    0    0  0.15902603436E+01  0.13330600233E+02  0.23654978848E+02  0.27199114964E+02  0.00000000000E+00 0.  1.
</event>
<event>
 7    1  0.7457761E-012  0.5930195E+02  0.7816164E-02  0.1266605E+00
        -11   -1    0    0    0    0  0.00000000000E+00  0.00000000000E+00  0.45593999997E+02  0.45594000000E+02  0.51100000000E-03 0.  1.
         11   -1    0    0    0    0 -0.00000000000E+00 -0.00000000000E+00 -0.45593999997E+02  0.45594000000E+02  0.51100000000E-03 0. -1.
    9900012    2    1    2    0    0 -0.20090886444E+02 -0.79094991453E+01  0.23463086602E+02  0.59301947756E+02  0.50000006799E+02 0.  0.
         12    1    1    2    0    0  0.20090886444E+02  0.79094991453E+01 -0.23463086602E+02  0.31886052244E+02  0.00000000000E+00 0. -1.
         11    1    3    3    0    0  0.13803440143E+02 -0.21040625995E+01 -0.22517772688E+01  0.14143286052E+02  0.51100000000E-03 0. -1.
        -11    1    3    3    0    0 -0.10155858701E+02  0.31086518706E+01  0.13016434173E+02  0.16799783964E+02  0.51100000000E-03 0.  1.
         12    1    3    3    0    0 -0.23738467886E+02 -0.89140884163E+01  0.12698429698E+02  0.28358877740E+02  0.00000000000E+00 0. -1.
</event>
<event>
 7    1  0.7457761E-012  0.5930193E+02  0.7816164E-02  0.1266605E+00
        -11   -1    0    0    0    0  0.00000000000E+00  0.00000000000E+00  0.45593999997E+02  0.45594000000E+02  0.51100000000E-03 0.  1.
         11   -1    0    0    0    0 -0.00000000000E+00 -0.00000000000E+00 -0.45593999997E+02  0.45594000000E+02  0.51100000000E-03 0. -1.
    9900012    2    1    2    0    0  0.82919687950E+01 -0.22187622260E+02  0.21346524993E+02  0.59301930043E+02  0.49999974495E+02 0.  0.
         12    1    1    2    0    0 -0.82919687950E+01  0.22187622260E+02 -0.21346524993E+02  0.31886069957E+02  0.00000000000E+00 0. -1.
         11    1    3    3    0    0 -0.95350627725E+01 -0.68953498728E+01 -0.62099763569E+01  0.13305152331E+02  0.51100000000E-03 0. -1.
        -11    1    3    3    0    0  0.25536353111E+02 -0.12894002505E+02  0.19720469771E+02  0.34745612083E+02  0.51100000000E-03 0.  1.
        -12    1    3    3    0    0 -0.77093215435E+01 -0.23982698819E+01  0.78360315791E+01  0.11251165628E+02  0.00000000000E+00 0.  1.
</event>
<event>
 7    1  0.7457761E-012  0.5930194E+02  0.7816164E-02  0.1266605E+00
        -11   -1    0    0    0    0  0.00000000000E+00  0.00000000000E+00  0.45593999997E+02  0.45594000000E+02  0.51100000000E-03 0.  1.
         11   -1    0    0    0    0 -0.00000000000E+00 -0.00000000000E+00 -0.45593999997E+02  0.45594000000E+02  0.51100000000E-03 0. -1.
    9900012    2    1    2    0    0 -0.16025500382E+01  0.31733522774E+02  0.26713800125E+01  0.59301938697E+02  0.49999990277E+02 0.  0.
         12    1    1    2    0    0  0.16025500382E+01 -0.31733522774E+02 -0.26713800125E+01  0.31886061303E+02  0.00000000000E+00 0. -1.
         11    1    3    3    0    0  0.13699502833E+02  0.13917975899E+02  0.10124725552E+02  0.21997647573E+02  0.51100000000E-03 0. -1.
        -11    1    3    3    0    0 -0.85786715671E+01  0.16067010793E+02 -0.17388396660E+02  0.25181318082E+02  0.51100000000E-03 0.  1.
        -12    1    3    3    0    0 -0.67233813037E+01  0.17485360820E+01  0.99350511212E+01  0.12122973042E+02  0.00000000000E+00 0.  1.
</event>
<event>
 7    1  0.7457761E-012  0.5930195E+02  0.7816164E-02  0.1266605E+00
        -11   -1    0    0    0    0  0.00000000000E+00  0.00000000000E+00  0.45593999997E+02  0.45594000000E+02  0.51100000000E-03 0.  1.
         11   -1    0    0    0    0 -0.00000000000E+00 -0.00000000000E+00 -0.45593999997E+02  0.45594000000E+02  0.51100000000E-03 0. -1.
    9900012    2    1    2    0    0 -0.94224921412E+01 -0.23083554307E+00  0.30461185126E+02  0.59301945956E+02  0.50000003517E+02 0.  0.
         12    1    1    2    0    0  0.94224921412E+01  0.23083554307E+00 -0.30461185126E+02  0.31886054044E+02  0.00000000000E+00 0. -1.
         11    1    3    3    0    0  0.11384026630E+01 -0.70557547354E+01  0.23657976078E+01  0.75283885455E+01  0.51100000000E-03 0. -1.
        -11    1    3    3    0    0 -0.17929833173E+02  0.20428276994E+02  0.22621283007E+02  0.35362633721E+02  0.51100000000E-03 0.  1.
        -12    1    3    3    0    0  0.73689383688E+01 -0.13603357801E+02  0.54741045112E+01  0.16410923690E+02  0.00000000000E+00 0.  1.
</event>
<event>
 7    1  0.7457761E-012  0.5930194E+02  0.7816164E-02  0.1266605E+00
        -11   -1    0    0    0    0  0.00000000000E+00  0.00000000000E+00  0.45593999997E+02  0.45594000000E+02  0.51100000000E-03 0.  1.
         11   -1    0    0    0    0 -0.00000000000E+00 -0.00000000000E+00 -0.45593999997E+02  0.45594000000E+02  0.51100000000E-03 0. -1.
    9900012    2    1    2    0    0  0.21174156056E+02 -0.21049878774E+02 -0.11192794869E+02  0.59301938185E+02  0.49999989345E+02 0.  0.
         12    1    1    2    0    0 -0.21174156056E+02  0.21049878774E+02  0.11192794869E+02  0.31886061815E+02  0.00000000000E+00 0. -1.
         11    1    3    3    0    0  0.16113118801E+02  0.10034837237E+02  0.80618471647E+01  0.20623383230E+02  0.51100000000E-03 0.  1.
        -11    1    3    3    0    0 -0.17604541006E+01 -0.66602086674E+01 -0.89773902557E+01  0.11315967223E+02  0.51100000000E-03 0. -1.
         12    1    3    3    0    0  0.68214913553E+01 -0.24424507344E+02 -0.10277251778E+02  0.27362587732E+02  0.00000000000E+00 0. -1.
</event>
<event>
 7    1  0.7457761E-012  0.5930197E+02  0.7816164E-02  0.1266605E+00
        -11   -1    0    0    0    0  0.00000000000E+00  0.00000000000E+00  0.45593999997E+02  0.45594000000E+02  0.51100000000E-03 0.  1.
         11   -1    0    0    0    0 -0.00000000000E+00 -0.00000000000E+00 -0.45593999997E+02  0.45594000000E+02  0.51100000000E-03 0. -1.
    9900012    2    1    2    0    0 -0.14608354819E+02  0.25179670784E+02  0.13011495463E+02  0.59301970684E+02  0.50000048616E+02 0.  0.
         12    1    1    2    0    0  0.14608354819E+02 -0.25179670784E+02 -0.13011495463E+02  0.31886029316E+02  0.00000000000E+00 0. -1.
         11    1    3    3    0    0 -0.11886845593E+02  0.34456931999E+02 -0.16927538476E+01  0.36488939102E+02  0.51100000000E-03 0. -1.
        -11    1    3    3    0    0 -0.64258830516E+01 -0.12765132641E+01  0.11859459118E+02  0.13548735363E+02  0.51100000000E-03 0.  1.
         12    1    3    3    0    0  0.37043738255E+01 -0.80007479505E+01  0.28447901929E+01  0.92642962198E+01  0.00000000000E+00 0. -1.
</event>
<event>
 7    1  0.7457761E-012  0.5930200E+02  0.7816164E-02  0.1266605E+00
        -11   -1    0    0    0    0  0.00000000000E+00  0.00000000000E+00  0.45593999997E+02  0.45594000000E+02  0.51100000000E-03 0. -1.
         11   -1    0    0    0    0 -0.00000000000E+00 -0.00000000000E+00 -0.45593999997E+02  0.45594000000E+02  0.51100000000E-03 0.  1.
    9900012    2    1    2    0    0 -0.24536289242E+02 -0.13919466077E+02 -0.14863919501E+02  0.59301997921E+02  0.50000098288E+02 0.  0.
         12    1    1    2    0    0  0.24536289242E+02  0.13919466077E+02  0.14863919501E+02  0.31886002079E+02  0.00000000000E+00 0. -1.
         11    1    3    3    0    0 -0.18205817324E+02  0.84986188114E+01  0.76229394015E+01  0.21489241762E+02  0.51100000000E-03 0. -1.
        -11    1    3    3    0    0 -0.11115769444E+02 -0.18718771066E+02 -0.23089318100E+02  0.31734355691E+02  0.51100000000E-03 0.  1.
        -12    1    3    3    0    0  0.47852975255E+01 -0.36993138225E+01  0.60245919682E+00  0.60784004679E+01  0.00000000000E+00 0.  1.
</event>
<event>
 7    1  0.7457761E-012  0.5930196E+02  0.7816164E-02  0.1266605E+00
        -11   -1    0    0    0    0  0.00000000000E+00  0.00000000000E+00  0.45593999997E+02  0.45594000000E+02  0.51100000000E-03 0.  1.
         11   -1    0    0    0    0 -0.00000000000E+00 -0.00000000000E+00 -0.45593999997E+02  0.45594000000E+02  0.51100000000E-03 0. -1.
    9900012    2    1    2    0    0  0.31630158240E+02  0.18275033325E+01  0.35934384426E+01  0.59301961072E+02  0.50000031084E+02 0.  0.
         12    1    1    2    0    0 -0.31630158240E+02 -0.18275033325E+01 -0.35934384426E+01  0.31886038928E+02  0.00000000000E+00 0. -1.
         11    1    3    3    0    0  0.88475847269E+01 -0.29391620851E+01 -0.11418248519E+02  0.14740923606E+02  0.51100000000E-03 0. -1.
        -11    1    3    3    0    0 -0.42372590590E+01 -0.18411331496E+01  0.16073918308E+02  0.16724681929E+02  0.51100000000E-03 0.  1.
        -12    1    3    3    0    0  0.27019832572E+02  0.66077985671E+01 -0.10622313466E+01  0.27836355537E+02  0.00000000000E+00 0.  1.
</event>
<event>
 7    1  0.7457761E-012  0.5930184E+02  0.7816164E-02  0.1266605E+00
        -11   -1    0    0    0    0  0.00000000000E+00  0.00000000000E+00  0.45593999997E+02  0.45594000000E+02  0.51100000000E-03 0. -1.
         11   -1    0    0    0    0 -0.00000000000E+00 -0.00000000000E+00 -0.45593999997E+02  0.45594000000E+02  0.51100000000E-03 0.  1.
    9900012    2    1    2    0    0 -0.19951408515E+02 -0.23381874315E+02 -0.84827076413E+01  0.59301841920E+02  0.49999813779E+02 0.  0.
         12    1    1    2    0    0  0.19951408515E+02  0.23381874315E+02  0.84827076413E+01  0.31886158080E+02  0.00000000000E+00 0. -1.
         11    1    3    3    0    0 -0.38742937501E+01  0.46430645130E+01 -0.15286883998E+02  0.16439495819E+02  0.51100000000E-03 0.  1.
        -11    1    3    3    0    0 -0.96164847615E+01 -0.32423740904E+02  0.24331282817E+01  0.33907165421E+02  0.51100000000E-03 0. -1.
         12    1    3    3    0    0 -0.64606300031E+01  0.43988020765E+01  0.43710480752E+01  0.89551806805E+01  0.00000000000E+00 0. -1.
</event>
<event>
 7    1  0.7457761E-012  0.5930193E+02  0.7816164E-02  0.1266605E+00
        -11   -1    0    0    0    0  0.00000000000E+00  0.00000000000E+00  0.45593999997E+02  0.45594000000E+02  0.51100000000E-03 0.  1.
         11   -1    0    0    0    0 -0.00000000000E+00 -0.00000000000E+00 -0.45593999997E+02  0.45594000000E+02  0.51100000000E-03 0. -1.
    9900012    2    1    2    0    0 -0.10556144531E+02 -0.29880473227E+02 -0.35279615667E+01  0.59301931248E+02  0.49999976694E+02 0.  0.
         12    1    1    2    0    0  0.10556144531E+02  0.29880473227E+02  0.35279615667E+01  0.31886068752E+02  0.00000000000E+00 0. -1.
         11    1    3    3    0    0 -0.37241116551E+01  0.16347657236E+01 -0.17384477036E+02  0.17853893375E+02  0.51100000000E-03 0. -1.
        -11    1    3    3    0    0 -0.14261306222E+02 -0.15720321252E+02  0.47088559434E+01  0.21741358743E+02  0.51100000000E-03 0.  1.
         12    1    3    3    0    0  0.74292733461E+01 -0.15794917698E+02  0.91476595255E+01  0.19706679130E+02  0.00000000000E+00 0. -1.
</event>
<event>
 7    1  0.7457761E-012  0.5930196E+02  0.7816164E-02  0.1266605E+00
        -11   -1    0    0    0    0  0.00000000000E+00  0.00000000000E+00  0.45593999997E+02  0.45594000000E+02  0.51100000000E-03 0.  1.
         11   -1    0    0    0    0 -0.00000000000E+00 -0.00000000000E+00 -0.45593999997E+02  0.45594000000E+02  0.51100000000E-03 0. -1.
    9900012    2    1    2    0    0 -0.14244021829E+02 -0.22778046920E+01  0.28436581124E+02  0.59301957629E+02  0.50000024805E+02 0.  0.
         12    1    1    2    0    0  0.14244021829E+02  0.22778046920E+01 -0.28436581124E+02  0.31886042371E+02  0.00000000000E+00 0. -1.
         11    1    3    3    0    0 -0.10273763594E+02 -0.10495805032E+02 -0.85514818467E+01  0.16995292986E+02  0.51100000000E-03 0. -1.
        -11    1    3    3    0    0 -0.15957021656E+01 -0.12051587555E+01  0.30626806132E+02  0.30692017320E+02  0.51100000000E-03 0.  1.
         12    1    3    3    0    0 -0.23745560698E+01  0.94231590954E+01  0.63612568388E+01  0.11614647323E+02  0.00000000000E+00 0. -1.
</event>
<event>
 7    1  0.7457761E-012  0.5930197E+02  0.7816164E-02  0.1266605E+00
        -11   -1    0    0    0    0  0.00000000000E+00  0.00000000000E+00  0.45593999997E+02  0.45594000000E+02  0.51100000000E-03 0. -1.
         11   -1    0    0    0    0 -0.00000000000E+00 -0.00000000000E+00 -0.45593999997E+02  0.45594000000E+02  0.51100000000E-03 0.  1.
    9900012    2    1    2    0    0 -0.14900949672E+01  0.31597932327E+02 -0.40086617930E+01  0.59301967325E+02  0.50000042489E+02 0.  0.
         12    1    1    2    0    0  0.14900949672E+01 -0.31597932327E+02  0.40086617930E+01  0.31886032675E+02  0.00000000000E+00 0. -1.
         11    1    3    3    0    0  0.31172298335E+01 -0.19526096057E+01 -0.55086041568E+01  0.66237848791E+01  0.51100000000E-03 0. -1.
        -11    1    3    3    0    0 -0.22438761532E+02  0.18043861728E+02 -0.16359320311E+01  0.28840167112E+02  0.51100000000E-03 0.  1.
        -12    1    3    3    0    0  0.17831436731E+02  0.15506680205E+02  0.31358743949E+01  0.23838015334E+02  0.00000000000E+00 0.  1.
</event>
<event>
 7    1  0.7457761E-012  0.5930198E+02  0.7816164E-02  0.1266605E+00
        -11   -1    0    0    0    0  0.00000000000E+00  0.00000000000E+00  0.45593999997E+02  0.45594000000E+02  0.51100000000E-03 0.  1.
         11   -1    0    0    0    0 -0.00000000000E+00 -0.00000000000E+00 -0.45593999997E+02  0.45594000000E+02  0.51100000000E-03 0. -1.
    9900012    2    1    2    0    0 -0.15142368233E+02  0.23180869295E+02  0.15813738656E+02  0.59301978812E+02  0.50000063437E+02 0.  0.
         12    1    1    2    0    0  0.15142368233E+02 -0.23180869295E+02 -0.15813738656E+02  0.31886021188E+02  0.00000000000E+00 0. -1.
         11    1    3    3    0    0 -0.76488193544E+01  0.14346404174E+02 -0.17300499188E+02  0.23740914528E+02  0.51100000000E-03 0. -1.
        -11    1    3    3    0    0 -0.25991962256E+01  0.72335852326E+01  0.17330969114E+02  0.18958983808E+02  0.51100000000E-03 0.  1.
         12    1    3    3    0    0 -0.48943526528E+01  0.16008798879E+01  0.15783268730E+02  0.16602080475E+02  0.00000000000E+00 0. -1.
</event>
<event>
 7    1  0.7457761E-012  0.5930193E+02  0.7816164E-02  0.1266605E+00
        -11   -1    0    0    0    0  0.00000000000E+00  0.00000000000E+00  0.45593999997E+02  0.45594000000E+02  0.51100000000E-03 0.  1.
         11   -1    0    0    0    0 -0.00000000000E+00 -0.00000000000E+00 -0.45593999997E+02  0.45594000000E+02  0.51100000000E-03 0. -1.
    9900012    2    1    2    0    0 -0.22017459989E+01 -0.23644240938E+02  0.21279659572E+02  0.59301925823E+02  0.49999966798E+02 0.  0.
         12    1    1    2    0    0  0.22017459989E+01  0.23644240938E+02 -0.21279659572E+02  0.31886074177E+02  0.00000000000E+00 0. -1.
         11    1    3    3    0    0  0.14044131529E+02 -0.19773024673E+01  0.53402092900E+01  0.15154708541E+02  0.51100000000E-03 0. -1.
        -11    1    3    3    0    0 -0.97776906647E+01 -0.22664077577E+02 -0.22796459976E+01  0.24788312433E+02  0.51100000000E-03 0.  1.
        -12    1    3    3    0    0 -0.64681868628E+01  0.99713910665E+00  0.18219096279E+02  0.19358904848E+02  0.00000000000E+00 0.  1.
</event>
<event>
 7    1  0.7457761E-012  0.5930194E+02  0.7816164E-02  0.1266605E+00
        -11   -1    0    0    0    0  0.00000000000E+00  0.00000000000E+00  0.45593999997E+02  0.45594000000E+02  0.51100000000E-03 0. -1.
         11   -1    0    0    0    0 -0.00000000000E+00 -0.00000000000E+00 -0.45593999997E+02  0.45594000000E+02  0.51100000000E-03 0.  1.
    9900012    2    1    2    0    0 -0.12386420424E+02 -0.50175166192E+00 -0.29377643827E+02  0.59301935293E+02  0.49999984070E+02 0.  0.
         12    1    1    2    0    0  0.12386420424E+02  0.50175166192E+00  0.29377643827E+02  0.31886064707E+02  0.00000000000E+00 0. -1.
         11    1    3    3    0    0 -0.62726563928E+01  0.11015829705E+02  0.61233780091E+01  0.14078014094E+02  0.51100000000E-03 0. -1.
        -11    1    3    3    0    0  0.68697724068E+01 -0.58702205624E+01 -0.27531564405E+02  0.28976547435E+02  0.51100000000E-03 0.  1.
         12    1    3    3    0    0 -0.12983536438E+02 -0.56473608049E+01 -0.79694574308E+01  0.16247373765E+02  0.00000000000E+00 0. -1.
</event>
<event>
 7    1  0.7457761E-012  0.5930194E+02  0.7816164E-02  0.1266605E+00
        -11   -1    0    0    0    0  0.00000000000E+00  0.00000000000E+00  0.45593999997E+02  0.45594000000E+02  0.51100000000E-03 0. -1.
         11   -1    0    0    0    0 -0.00000000000E+00 -0.00000000000E+00 -0.45593999997E+02  0.45594000000E+02  0.51100000000E-03 0.  1.
    9900012    2    1    2    0    0 -0.64560929197E+01 -0.31178346518E+02 -0.17176556800E+01  0.59301940845E+02  0.49999994196E+02 0.  0.
         12    1    1    2    0    0  0.64560929197E+01  0.31178346518E+02  0.17176556800E+01  0.31886059155E+02  0.00000000000E+00 0. -1.
         11    1    3    3    0    0 -0.28577174676E+01 -0.16579681885E+02  0.18973299931E+02  0.25358204018E+02  0.51100000000E-03 0. -1.
        -11    1    3    3    0    0  0.76248316497E+01  0.10011007781E+01 -0.58110148224E+01  0.96388875904E+01  0.51100000000E-03 0.  1.
         12    1    3    3    0    0 -0.11223207102E+02 -0.15599765412E+02 -0.14879940788E+02  0.24304849236E+02  0.00000000000E+00 0. -1.
</event>
<event>
 7    1  0.7457761E-012  0.5930194E+02  0.7816164E-02  0.1266605E+00
        -11   -1    0    0    0    0  0.00000000000E+00  0.00000000000E+00  0.45593999997E+02  0.45594000000E+02  0.51100000000E-03 0.  1.
         11   -1    0    0    0    0 -0.00000000000E+00 -0.00000000000E+00 -0.45593999997E+02  0.45594000000E+02  0.51100000000E-03 0. -1.
    9900012    2    1    2    0    0 -0.11064851104E+02  0.60331926624E+01  0.29289765554E+02  0.59301941763E+02  0.49999995870E+02 0.  0.
         12    1    1    2    0    0  0.11064851104E+02 -0.60331926624E+01 -0.29289765554E+02  0.31886058237E+02  0.00000000000E+00 0. -1.
         11    1    3    3    0    0  0.12698898706E+02  0.10109601820E+01  0.36951602457E+00  0.12744434518E+02  0.51100000000E-03 0. -1.
        -11    1    3    3    0    0 -0.27468581819E+02 -0.13821205982E+01  0.27743469111E+02  0.39065756400E+02  0.51100000000E-03 0.  1.
         12    1    3    3    0    0  0.37048320094E+01  0.64043530786E+01  0.11767804185E+01  0.74917508452E+01  0.00000000000E+00 0. -1.
</event>
<event>
 7    1  0.7457761E-012  0.5930199E+02  0.7816164E-02  0.1266605E+00
        -11   -1    0    0    0    0  0.00000000000E+00  0.00000000000E+00  0.45593999997E+02  0.45594000000E+02  0.51100000000E-03 0.  1.
         11   -1    0    0    0    0 -0.00000000000E+00 -0.00000000000E+00 -0.45593999997E+02  0.45594000000E+02  0.51100000000E-03 0. -1.
    9900012    2    1    2    0    0 -0.26136369936E+02  0.17364983118E+02  0.56626344109E+01  0.59301985816E+02  0.50000076211E+02 0.  0.
         12    1    1    2    0    0  0.26136369936E+02 -0.17364983118E+02 -0.56626344109E+01  0.31886014184E+02  0.00000000000E+00 0. -1.
         11    1    3    3    0    0 -0.15975768164E+02  0.15811451485E+02 -0.17181695597E+02  0.28292010009E+02  0.51100000000E-03 0. -1.
        -11    1    3    3    0    0 -0.91837344371E+01  0.93484655096E+01  0.14735683392E+02  0.19719917618E+02  0.51100000000E-03 0.  1.
         12    1    3    3    0    0 -0.97686733469E+00 -0.77949338770E+01  0.81086466168E+01  0.11290058188E+02  0.00000000000E+00 0. -1.
</event>
<event>
 7    1  0.7457761E-012  0.5930204E+02  0.7816164E-02  0.1266604E+00
        -11   -1    0    0    0    0  0.00000000000E+00  0.00000000000E+00  0.45593999997E+02  0.45594000000E+02  0.51100000000E-03 0.  1.
         11   -1    0    0    0    0 -0.00000000000E+00 -0.00000000000E+00 -0.45593999997E+02  0.45594000000E+02  0.51100000000E-03 0. -1.
    9900012    2    1    2    0    0  0.18281240181E+02 -0.25659270883E+02  0.49104394814E+01  0.59302041637E+02  0.50000178016E+02 0.  0.
         12    1    1    2    0    0 -0.18281240181E+02  0.25659270883E+02 -0.49104394814E+01  0.31885958363E+02  0.00000000000E+00 0. -1.
         11    1    3    3    0    0  0.11545437934E+01  0.72464666794E+01 -0.14823120357E+02  0.16539925879E+02  0.51100000000E-03 0. -1.
        -11    1    3    3    0    0  0.10082148679E+01 -0.51144974803E+01  0.56382774542E+01  0.76788511255E+01  0.51100000000E-03 0.  1.
         12    1    3    3    0    0  0.16118481520E+02 -0.27791240082E+02  0.14095282384E+02  0.35083264633E+02  0.00000000000E+00 0. -1.
</event>
<event>
 7    1  0.7457761E-012  0.5930203E+02  0.7816164E-02  0.1266604E+00
        -11   -1    0    0    0    0  0.00000000000E+00  0.00000000000E+00  0.45593999997E+02  0.45594000000E+02  0.51100000000E-03 0.  1.
         11   -1    0    0    0    0 -0.00000000000E+00 -0.00000000000E+00 -0.45593999997E+02  0.45594000000E+02  0.51100000000E-03 0. -1.
    9900012    2    1    2    0    0  0.22421525985E+02 -0.52892368272E+00 -0.22665188328E+02  0.59302025815E+02  0.50000149161E+02 0.  0.
         12    1    1    2    0    0 -0.22421525985E+02  0.52892368272E+00  0.22665188328E+02  0.31885974185E+02  0.00000000000E+00 0. -1.
         11    1    3    3    0    0 -0.14623326585E+01 -0.12310096163E+02 -0.15567947823E+02  0.19900700592E+02  0.51100000000E-03 0. -1.
        -11    1    3    3    0    0  0.13696482838E+02  0.20508004807E+02 -0.10402842592E+01  0.24683073044E+02  0.51100000000E-03 0.  1.
        -12    1    3    3    0    0  0.10187375805E+02 -0.87268323265E+01 -0.60569562462E+01  0.14718252179E+02  0.00000000000E+00 0.  1.
</event>
<event>
 7    1  0.7457761E-012  0.5930194E+02  0.7816164E-02  0.1266605E+00
        -11   -1    0    0    0    0  0.00000000000E+00  0.00000000000E+00  0.45593999997E+02  0.45594000000E+02  0.51100000000E-03 0. -1.
         11   -1    0    0    0    0 -0.00000000000E+00 -0.00000000000E+00 -0.45593999997E+02  0.45594000000E+02  0.51100000000E-03 0.  1.
    9900012    2    1    2    0    0 -0.22986846840E+02 -0.20558037809E+02 -0.81051009271E+01  0.59301941805E+02  0.49999995946E+02 0.  0.
         12    1    1    2    0    0  0.22986846840E+02  0.20558037809E+02  0.81051009271E+01  0.31886058195E+02  0.00000000000E+00 0. -1.
         11    1    3    3    0    0  0.21914011045E+01  0.10771763402E+02  0.58784615288E+01  0.12465529905E+02  0.51100000000E-03 0. -1.
        -11    1    3    3    0    0 -0.19752882766E+02 -0.21150591632E+02 -0.30241022907E+00  0.28941585239E+02  0.51100000000E-03 0.  1.
         12    1    3    3    0    0 -0.54253651789E+01 -0.10179209579E+02 -0.13681152227E+02  0.17894826661E+02  0.00000000000E+00 0. -1.
</event>
<event>
 7    1  0.7457761E-012  0.5930194E+02  0.7816164E-02  0.1266605E+00
        -11   -1    0    0    0    0  0.00000000000E+00  0.00000000000E+00  0.45593999997E+02  0.45594000000E+02  0.51100000000E-03 0.  1.
         11   -1    0    0    0    0 -0.00000000000E+00 -0.00000000000E+00 -0.45593999997E+02  0.45594000000E+02  0.51100000000E-03 0. -1.
    9900012    2    1    2    0    0 -0.11214562090E+02 -0.28815112725E+01  0.29709447891E+02  0.59301940286E+02  0.49999993177E+02 0.  0.
         12    1    1    2    0    0  0.11214562090E+02  0.28815112725E+01 -0.29709447891E+02  0.31886059714E+02  0.00000000000E+00 0. -1.
         11    1    3    3    0    0 -0.20503408128E+02 -0.90616277455E+01  0.10794105636E+02  0.24880023292E+02  0.51100000000E-03 0. -1.
        -11    1    3    3    0    0  0.80714239376E+01  0.11534116697E+02  0.23416244634E+02  0.27322229875E+02  0.51100000000E-03 0.  1.
        -12    1    3    3    0    0  0.12174221000E+01 -0.53540002237E+01 -0.45009023791E+01  0.70996871192E+01  0.00000000000E+00 0.  1.
</event>
<event>
 7    1  0.7457761E-012  0.5930193E+02  0.7816164E-02  0.1266605E+00
        -11   -1    0    0    0    0  0.00000000000E+00  0.00000000000E+00  0.45593999997E+02  0.45594000000E+02  0.51100000000E-03 0.  1.
         11   -1    0    0    0    0 -0.00000000000E+00 -0.00000000000E+00 -0.45593999997E+02  0.45594000000E+02  0.51100000000E-03 0. -1.
    9900012    2    1    2    0    0 -0.48883091057E+01 -0.30832168458E+02 -0.64963827807E+01  0.59301934596E+02  0.49999982799E+02 0.  0.
         12    1    1    2    0    0  0.48883091057E+01  0.30832168458E+02  0.64963827807E+01  0.31886065404E+02  0.00000000000E+00 0. -1.
         11    1    3    3    0    0  0.72881571613E+01 -0.78444542828E+01 -0.21186336182E+02  0.23738440111E+02  0.51100000000E-03 0. -1.
        -11    1    3    3    0    0  0.14925155627E+01 -0.17529834419E+02  0.92094193764E+01  0.19857897748E+02  0.51100000000E-03 0.  1.
         12    1    3    3    0    0 -0.13668981830E+02 -0.54578797561E+01  0.54805340249E+01  0.15705596738E+02  0.00000000000E+00 0. -1.
</event>
<event>
 7    1  0.7457761E-012  0.5930194E+02  0.7816164E-02  0.1266605E+00
        -11   -1    0    0    0    0  0.00000000000E+00  0.00000000000E+00  0.45593999997E+02  0.45594000000E+02  0.51100000000E-03 0.  1.
         11   -1    0    0    0    0 -0.00000000000E+00 -0.00000000000E+00 -0.45593999997E+02  0.45594000000E+02  0.51100000000E-03 0. -1.
    9900012    2    1    2    0    0 -0.19626547658E+02  0.25048767778E+02 -0.20196492904E+01  0.59301935279E+02  0.49999984044E+02 0.  0.
         12    1    1    2    0    0  0.19626547658E+02 -0.25048767778E+02  0.20196492904E+01  0.31886064721E+02  0.00000000000E+00 0. -1.
         11    1    3    3    0    0 -0.12029595411E+01  0.15631844708E+00 -0.16067359540E+02  0.16113087537E+02  0.51100000000E-03 0. -1.
        -11    1    3    3    0    0  0.22880886389E+01  0.68034748235E+01  0.13951680991E+02  0.15689870045E+02  0.51100000000E-03 0.  1.
         12    1    3    3    0    0 -0.20711676756E+02  0.18088974508E+02  0.96029258897E-01  0.27498977697E+02  0.00000000000E+00 0. -1.
</event>
<event>
 7    1  0.7457761E-012  0.5930190E+02  0.7816164E-02  0.1266605E+00
        -11   -1    0    0    0    0  0.00000000000E+00  0.00000000000E+00  0.45593999997E+02  0.45594000000E+02  0.51100000000E-03 0. -1.
         11   -1    0    0    0    0 -0.00000000000E+00 -0.00000000000E+00 -0.45593999997E+02  0.45594000000E+02  0.51100000000E-03 0.  1.
    9900012    2    1    2    0    0  0.27898538655E+01 -0.59282100819E+01 -0.31205712716E+02  0.59301898553E+02  0.49999917065E+02 0.  0.
         12    1    1    2    0    0 -0.27898538655E+01  0.59282100819E+01  0.31205712716E+02  0.31886101447E+02  0.00000000000E+00 0. -1.
         11    1    3    3    0    0  0.13909514553E+02 -0.19953540337E+02 -0.29131494747E+01  0.24497036702E+02  0.51100000000E-03 0. -1.
        -11    1    3    3    0    0 -0.43935419657E+01  0.21577854036E+01 -0.14919891436E+02  0.15702305868E+02  0.51100000000E-03 0.  1.
         12    1    3    3    0    0 -0.67261187214E+01  0.11867544851E+02 -0.13372671806E+02  0.19102555983E+02  0.00000000000E+00 0. -1.
</event>
<event>
 7    1  0.7457761E-012  0.5930194E+02  0.7816164E-02  0.1266605E+00
        -11   -1    0    0    0    0  0.00000000000E+00  0.00000000000E+00  0.45593999997E+02  0.45594000000E+02  0.51100000000E-03 0.  1.
         11   -1    0    0    0    0 -0.00000000000E+00 -0.00000000000E+00 -0.45593999997E+02  0.45594000000E+02  0.51100000000E-03 0. -1.
    9900012    2    1    2    0    0  0.21341780710E+02  0.23075953991E+02  0.53618501332E+01  0.59301942023E+02  0.49999996344E+02 0.  0.
         12    1    1    2    0    0 -0.21341780710E+02 -0.23075953991E+02 -0.53618501332E+01  0.31886057977E+02  0.00000000000E+00 0. -1.
         11    1    3    3    0    0  0.34609086143E+02  0.80165442715E+01 -0.35950386320E+01  0.35706835882E+02  0.51100000000E-03 0. -1.
        -11    1    3    3    0    0 -0.36007370406E+00  0.15571805367E+01  0.39433428833E+01  0.42549286307E+01  0.51100000000E-03 0.  1.
         12    1    3    3    0    0 -0.12907231729E+02  0.13502229183E+02  0.50135458819E+01  0.19340177510E+02  0.00000000000E+00 0. -1.
</event>
<event>
 7    1  0.7457761E-012  0.5930195E+02  0.7816164E-02  0.1266605E+00
        -11   -1    0    0    0    0  0.00000000000E+00  0.00000000000E+00  0.45593999997E+02  0.45594000000E+02  0.51100000000E-03 0. -1.
         11   -1    0    0    0    0 -0.00000000000E+00 -0.00000000000E+00 -0.45593999997E+02  0.45594000000E+02  0.51100000000E-03 0.  1.
    9900012    2    1    2    0    0  0.99708846719E+01  0.20945988172E+02 -0.21876182453E+02  0.59301947871E+02  0.50000007009E+02 0.  0.
         12    1    1    2    0    0 -0.99708846719E+01 -0.20945988172E+02  0.21876182453E+02  0.31886052129E+02  0.00000000000E+00 0. -1.
         11    1    3    3    0    0 -0.17230089685E+02  0.35916665207E+01 -0.46941197532E+01  0.18215675103E+02  0.51100000000E-03 0. -1.
        -11    1    3    3    0    0  0.25405919911E+02  0.15776590214E+02 -0.21027709209E+02  0.36558530059E+02  0.51100000000E-03 0.  1.
        -12    1    3    3    0    0  0.17950544464E+01  0.15777314382E+01  0.38456465093E+01  0.45277427082E+01  0.00000000000E+00 0.  1.
</event>
<event>
 7    1  0.7457761E-012  0.5930197E+02  0.7816164E-02  0.1266605E+00
        -11   -1    0    0    0    0  0.00000000000E+00  0.00000000000E+00  0.45593999997E+02  0.45594000000E+02  0.51100000000E-03 0. -1.
         11   -1    0    0    0    0 -0.00000000000E+00 -0.00000000000E+00 -0.45593999997E+02  0.45594000000E+02  0.51100000000E-03 0.  1.
    9900012    2    1    2    0    0 -0.13655377716E+02  0.32800407878E+01 -0.28626754045E+02  0.59301967708E+02  0.50000043188E+02 0.  0.
         12    1    1    2    0    0  0.13655377716E+02 -0.32800407878E+01  0.28626754045E+02  0.31886032292E+02  0.00000000000E+00 0. -1.
         11    1    3    3    0    0 -0.16439783367E+02  0.10421579446E+02  0.61715075671E+01  0.20419679263E+02  0.51100000000E-03 0. -1.
        -11    1    3    3    0    0 -0.12846235576E+01 -0.46315739479E+01 -0.33615349477E+02  0.33957229799E+02  0.51100000000E-03 0.  1.
        -12    1    3    3    0    0  0.40690292089E+01 -0.25099647100E+01 -0.11829121359E+01  0.49250586463E+01  0.00000000000E+00 0.  1.
</event>
<event>
 7    1  0.7457761E-012  0.5930195E+02  0.7816164E-02  0.1266605E+00
        -11   -1    0    0    0    0  0.00000000000E+00  0.00000000000E+00  0.45593999997E+02  0.45594000000E+02  0.51100000000E-03 0.  1.
         11   -1    0    0    0    0 -0.00000000000E+00 -0.00000000000E+00 -0.45593999997E+02  0.45594000000E+02  0.51100000000E-03 0. -1.
    9900012    2    1    2    0    0  0.22115908737E+02  0.10619663186E+02  0.20367358716E+02  0.59301953420E+02  0.50000017130E+02 0.  0.
         12    1    1    2    0    0 -0.22115908737E+02 -0.10619663186E+02 -0.20367358716E+02  0.31886046580E+02  0.00000000000E+00 0. -1.
         11    1    3    3    0    0  0.35023145779E+01  0.26613607319E+01 -0.64305231127E+01  0.77910638627E+01  0.51100000000E-03 0. -1.
        -11    1    3    3    0    0  0.17107653227E+01 -0.11416510645E+02  0.22710919180E+02  0.25476445662E+02  0.51100000000E-03 0.  1.
        -12    1    3    3    0    0  0.16902828836E+02  0.19374813099E+02  0.40869626486E+01  0.26034443896E+02  0.00000000000E+00 0.  1.
</event>
<event>
 7    1  0.7457761E-012  0.5930196E+02  0.7816164E-02  0.1266605E+00
        -11   -1    0    0    0    0  0.00000000000E+00  0.00000000000E+00  0.45593999997E+02  0.45594000000E+02  0.51100000000E-03 0.  1.
         11   -1    0    0    0    0 -0.00000000000E+00 -0.00000000000E+00 -0.45593999997E+02  0.45594000000E+02  0.51100000000E-03 0. -1.
    9900012    2    1    2    0    0  0.30349163784E+01 -0.28055140385E+02 -0.14846469590E+02  0.59301964205E+02  0.50000036799E+02 0.  0.
         12    1    1    2    0    0 -0.30349163784E+01  0.28055140385E+02  0.14846469590E+02  0.31886035795E+02  0.00000000000E+00 0. -1.
         11    1    3    3    0    0  0.13111085656E+02 -0.69007477134E+01 -0.27858680500E+02  0.31553557098E+02  0.51100000000E-03 0. -1.
        -11    1    3    3    0    0 -0.33275271491E+01 -0.53729502974E+01  0.73076169228E+01  0.96613817427E+01  0.51100000000E-03 0.  1.
         12    1    3    3    0    0 -0.67486421284E+01 -0.15781442374E+02  0.57045939870E+01  0.18087025364E+02  0.00000000000E+00 0. -1.
</event>
<event>
 7    1  0.7457761E-012  0.5930192E+02  0.7816164E-02  0.1266605E+00
        -11   -1    0    0    0    0  0.00000000000E+00  0.00000000000E+00  0.45593999997E+02  0.45594000000E+02  0.51100000000E-03 0. -1.
         11   -1    0    0    0    0 -0.00000000000E+00 -0.00000000000E+00 -0.45593999997E+02  0.45594000000E+02  0.51100000000E-03 0.  1.
    9900012    2    1    2    0    0  0.19850683464E+02 -0.18726142949E+02 -0.16492541159E+02  0.59301921884E+02  0.49999959616E+02 0.  0.
         12    1    1    2    0    0 -0.19850683464E+02  0.18726142949E+02  0.16492541159E+02  0.31886078116E+02  0.00000000000E+00 0. -1.
         11    1    3    3    0    0 -0.59184069722E+01 -0.25362203906E+02 -0.93130587138E+01  0.27658669363E+02  0.51100000000E-03 0. -1.
        -11    1    3    3    0    0  0.14570035896E+02  0.95701101452E+01  0.10119913238E+01  0.17461302383E+02  0.51100000000E-03 0.  1.
         12    1    3    3    0    0  0.11199054540E+02 -0.29340491885E+01 -0.81914737689E+01  0.14181950138E+02  0.00000000000E+00 0. -1.
</event>
<event>
 7    1  0.7457761E-012  0.5930195E+02  0.7816164E-02  0.1266605E+00
        -11   -1    0    0    0    0  0.00000000000E+00  0.00000000000E+00  0.45593999997E+02  0.45594000000E+02  0.51100000000E-03 0.  1.
         11   -1    0    0    0    0 -0.00000000000E+00 -0.00000000000E+00 -0.45593999997E+02  0.45594000000E+02  0.51100000000E-03 0. -1.
    9900012    2    1    2    0    0  0.11432315001E+02  0.24015330090E+02  0.17586541909E+02  0.59301947219E+02  0.50000005820E+02 0.  0.
         12    1    1    2    0    0 -0.11432315001E+02 -0.24015330090E+02 -0.17586541909E+02  0.31886052781E+02  0.00000000000E+00 0. -1.
         11    1    3    3    0    0  0.23981540976E+02  0.13291028643E+02 -0.74994347170E+01  0.28425468709E+02  0.51100000000E-03 0. -1.
        -11    1    3    3    0    0 -0.72586115167E+01  0.75174253503E+01  0.21017354684E+02  0.23471862372E+02  0.51100000000E-03 0.  1.
         12    1    3    3    0    0 -0.52906144582E+01  0.32068760974E+01  0.40686219419E+01  0.74046161383E+01  0.00000000000E+00 0. -1.
</event>
<event>
 7    1  0.7457761E-012  0.5930195E+02  0.7816164E-02  0.1266605E+00
        -11   -1    0    0    0    0  0.00000000000E+00  0.00000000000E+00  0.45593999997E+02  0.45594000000E+02  0.51100000000E-03 0.  1.
         11   -1    0    0    0    0 -0.00000000000E+00 -0.00000000000E+00 -0.45593999997E+02  0.45594000000E+02  0.51100000000E-03 0. -1.
    9900012    2    1    2    0    0 -0.41604469894E+01 -0.29906237269E+02  0.10248320533E+02  0.59301946301E+02  0.50000004145E+02 0.  0.
         12    1    1    2    0    0  0.41604469894E+01  0.29906237269E+02 -0.10248320533E+02  0.31886053699E+02  0.00000000000E+00 0. -1.
         11    1    3    3    0    0 -0.84386493893E+01  0.32548429748E+01  0.11915303527E+02  0.14959253481E+02  0.51100000000E-03 0. -1.
        -11    1    3    3    0    0  0.13259055800E+02 -0.32258740146E+02  0.11225317673E+01  0.34895400189E+02  0.51100000000E-03 0.  1.
        -12    1    3    3    0    0 -0.89808534004E+01 -0.90234009839E+00 -0.27895147610E+01  0.94472926310E+01  0.00000000000E+00 0.  1.
</event>
<event>
 7    1  0.7457761E-012  0.5930172E+02  0.7816164E-02  0.1266606E+00
        -11   -1    0    0    0    0  0.00000000000E+00  0.00000000000E+00  0.45593999997E+02  0.45594000000E+02  0.51100000000E-03 0. -1.
         11   -1    0    0    0    0 -0.00000000000E+00 -0.00000000000E+00 -0.45593999997E+02  0.45594000000E+02  0.51100000000E-03 0.  1.
    9900012    2    1    2    0    0  0.62439034233E+01 -0.28207614816E+01 -0.31141483221E+02  0.59301717643E+02  0.49999587128E+02 0.  0.
         12    1    1    2    0    0 -0.62439034233E+01  0.28207614816E+01  0.31141483221E+02  0.31886282357E+02  0.00000000000E+00 0. -1.
         11    1    3    3    0    0 -0.42972851512E+01 -0.35580581018E+01  0.49360040333E-02  0.55791094049E+01  0.51100000000E-03 0. -1.
        -11    1    3    3    0    0  0.21349531494E+02 -0.11570090059E+02 -0.84051896388E+01  0.25696628030E+02  0.51100000000E-03 0.  1.
        -12    1    3    3    0    0 -0.10808342920E+02  0.12307386679E+02 -0.22741229587E+02  0.28025980208E+02  0.00000000000E+00 0.  1.
</event>
<event>
 7    1  0.7457761E-012  0.5930205E+02  0.7816164E-02  0.1266604E+00
        -11   -1    0    0    0    0  0.00000000000E+00  0.00000000000E+00  0.45593999997E+02  0.45594000000E+02  0.51100000000E-03 0.  1.
         11   -1    0    0    0    0 -0.00000000000E+00 -0.00000000000E+00 -0.45593999997E+02  0.45594000000E+02  0.51100000000E-03 0. -1.
    9900012    2    1    2    0    0 -0.31547902993E+01  0.29975612490E+02  0.10403049997E+02  0.59302054895E+02  0.50000202195E+02 0.  0.
         12    1    1    2    0    0  0.31547902993E+01 -0.29975612490E+02 -0.10403049997E+02  0.31885945105E+02  0.00000000000E+00 0. -1.
         11    1    3    3    0    0  0.20372130802E+02  0.18270129616E+02 -0.28363823965E+01  0.27511205262E+02  0.51100000000E-03 0. -1.
        -11    1    3    3    0    0 -0.14064383029E+02  0.88009211230E+00  0.92958514123E+01  0.16881773777E+02  0.51100000000E-03 0.  1.
        -12    1    3    3    0    0 -0.94625380731E+01  0.10825390761E+02  0.39435809813E+01  0.14909075856E+02  0.00000000000E+00 0.  1.
</event>
<event>
 7    1  0.7457761E-012  0.5930194E+02  0.7816164E-02  0.1266605E+00
        -11   -1    0    0    0    0  0.00000000000E+00  0.00000000000E+00  0.45593999997E+02  0.45594000000E+02  0.51100000000E-03 0.  1.
         11   -1    0    0    0    0 -0.00000000000E+00 -0.00000000000E+00 -0.45593999997E+02  0.45594000000E+02  0.51100000000E-03 0. -1.
    9900012    2    1    2    0    0 -0.31628920008E+02  0.11638532612E+01 -0.38700880956E+01  0.59301941649E+02  0.49999995662E+02 0.  0.
         12    1    1    2    0    0  0.31628920008E+02 -0.11638532612E+01  0.38700880956E+01  0.31886058351E+02  0.00000000000E+00 0. -1.
         11    1    3    3    0    0 -0.31052257586E+02  0.10365020154E+02 -0.60491958536E+01  0.33290676092E+02  0.51100000000E-03 0. -1.
        -11    1    3    3    0    0  0.23807365588E+01 -0.30819692046E+01  0.12812588319E+02  0.13391372612E+02  0.51100000000E-03 0.  1.
         12    1    3    3    0    0 -0.29573989812E+01 -0.61191976880E+01 -0.10633480561E+02  0.12619892944E+02  0.00000000000E+00 0. -1.
</event>
<event>
 7    1  0.7457761E-012  0.5930192E+02  0.7816164E-02  0.1266605E+00
        -11   -1    0    0    0    0  0.00000000000E+00  0.00000000000E+00  0.45593999997E+02  0.45594000000E+02  0.51100000000E-03 0. -1.
         11   -1    0    0    0    0 -0.00000000000E+00 -0.00000000000E+00 -0.45593999997E+02  0.45594000000E+02  0.51100000000E-03 0.  1.
    9900012    2    1    2    0    0 -0.25047411145E+02  0.11692807660E+02 -0.15894253279E+02  0.59301923989E+02  0.49999963455E+02 0.  0.
         12    1    1    2    0    0  0.25047411145E+02 -0.11692807660E+02  0.15894253279E+02  0.31886076011E+02  0.00000000000E+00 0. -1.
         11    1    3    3    0    0  0.58815578333E+01  0.34672400398E+01  0.36186253227E+01  0.77271550733E+01  0.51100000000E-03 0. -1.
        -11    1    3    3    0    0 -0.20234583802E+02  0.18169705649E+01 -0.29348801085E+02  0.35694423781E+02  0.51100000000E-03 0.  1.
        -12    1    3    3    0    0 -0.10694385176E+02  0.64085970557E+01  0.98359224827E+01  0.15880345135E+02  0.00000000000E+00 0.  1.
</event>
<event>
 7    1  0.7457761E-012  0.5930196E+02  0.7816164E-02  0.1266605E+00
        -11   -1    0    0    0    0  0.00000000000E+00  0.00000000000E+00  0.45593999997E+02  0.45594000000E+02  0.51100000000E-03 0.  1.
         11   -1    0    0    0    0 -0.00000000000E+00 -0.00000000000E+00 -0.45593999997E+02  0.45594000000E+02  0.51100000000E-03 0. -1.
    9900012    2    1    2    0    0 -0.26351946953E+02 -0.17864727004E+02 -0.17736233566E+01  0.59301963574E+02  0.50000035647E+02 0.  0.
         12    1    1    2    0    0  0.26351946953E+02  0.17864727004E+02  0.17736233566E+01  0.31886036426E+02  0.00000000000E+00 0. -1.
         11    1    3    3    0    0 -0.27447261317E+02 -0.11456049337E+02 -0.84235316275E+01  0.30911957323E+02  0.51100000000E-03 0. -1.
        -11    1    3    3    0    0  0.28989059025E+01  0.97748676698E+01  0.65267753260E+01  0.12105803972E+02  0.51100000000E-03 0.  1.
        -12    1    3    3    0    0 -0.18035915392E+01 -0.16183545338E+02  0.12313294485E+00  0.16284202279E+02  0.00000000000E+00 0.  1.
</event>
<event>
 7    1  0.7457761E-012  0.5930195E+02  0.7816164E-02  0.1266605E+00
        -11   -1    0    0    0    0  0.00000000000E+00  0.00000000000E+00  0.45593999997E+02  0.45594000000E+02  0.51100000000E-03 0.  1.
         11   -1    0    0    0    0 -0.00000000000E+00 -0.00000000000E+00 -0.45593999997E+02  0.45594000000E+02  0.51100000000E-03 0. -1.
    9900012    2    1    2    0    0  0.14760349879E+02 -0.82092794852E+00  0.28252053017E+02  0.59301947392E+02  0.50000006135E+02 0.  0.
         12    1    1    2    0    0 -0.14760349879E+02  0.82092794852E+00 -0.28252053017E+02  0.31886052608E+02  0.00000000000E+00 0. -1.
         11    1    3    3    0    0 -0.41205576503E+01 -0.72527190493E+01 -0.11153016443E+02  0.13927336608E+02  0.51100000000E-03 0. -1.
        -11    1    3    3    0    0  0.76766484249E+00  0.32430519869E+01  0.25885879576E+01  0.42198913938E+01  0.51100000000E-03 0.  1.
         12    1    3    3    0    0  0.18113242687E+02  0.31887391139E+01  0.36816481503E+02  0.41154719390E+02  0.00000000000E+00 0. -1.
</event>
<event>
 7    1  0.7457761E-012  0.5930196E+02  0.7816164E-02  0.1266605E+00
        -11   -1    0    0    0    0  0.00000000000E+00  0.00000000000E+00  0.45593999997E+02  0.45594000000E+02  0.51100000000E-03 0.  1.
         11   -1    0    0    0    0 -0.00000000000E+00 -0.00000000000E+00 -0.45593999997E+02  0.45594000000E+02  0.51100000000E-03 0. -1.
    9900012    2    1    2    0    0 -0.21954207081E+01  0.23694936416E+02  0.21223797064E+02  0.59301961587E+02  0.50000032024E+02 0.  0.
         12    1    1    2    0    0  0.21954207081E+01 -0.23694936416E+02 -0.21223797064E+02  0.31886038413E+02  0.00000000000E+00 0. -1.
         11    1    3    3    0    0 -0.47989583150E+01  0.88869186199E+00 -0.44081009903E+01  0.65765590347E+01  0.51100000000E-03 0. -1.
        -11    1    3    3    0    0 -0.20205043957E+01  0.25340592532E+02  0.34231261311E+02  0.42638097039E+02  0.51100000000E-03 0.  1.
         12    1    3    3    0    0  0.46240420026E+01 -0.25343479786E+01 -0.85993632560E+01  0.10087305514E+02  0.00000000000E+00 0. -1.
</event>
<event>
 7    1  0.7457761E-012  0.5930195E+02  0.7816164E-02  0.1266605E+00
        -11   -1    0    0    0    0  0.00000000000E+00  0.00000000000E+00  0.45593999997E+02  0.45594000000E+02  0.51100000000E-03 0. -1.
         11   -1    0    0    0    0 -0.00000000000E+00 -0.00000000000E+00 -0.45593999997E+02  0.45594000000E+02  0.51100000000E-03 0.  1.
    9900012    2    1    2    0    0 -0.23687034987E+02  0.19892570922E+02 -0.77414509545E+01  0.59301951840E+02  0.50000014248E+02 0.  0.
         12    1    1    2    0    0  0.23687034987E+02 -0.19892570922E+02  0.77414509545E+01  0.31886048160E+02  0.00000000000E+00 0. -1.
         11    1    3    3    0    0 -0.39114515893E+01  0.28395572122E+02 -0.33022096568E+01  0.28853293721E+02  0.51100000000E-03 0. -1.
        -11    1    3    3    0    0 -0.20243816809E+02 -0.53624084536E+00 -0.79167706992E+01  0.21743388232E+02  0.51100000000E-03 0.  1.
        -12    1    3    3    0    0  0.46823341143E+00 -0.79667603544E+01  0.34775294015E+01  0.87052698873E+01  0.00000000000E+00 0.  1.
</event>
<event>
 7    1  0.7457761E-012  0.5930201E+02  0.7816164E-02  0.1266605E+00
        -11   -1    0    0    0    0  0.00000000000E+00  0.00000000000E+00  0.45593999997E+02  0.45594000000E+02  0.51100000000E-03 0. -1.
         11   -1    0    0    0    0 -0.00000000000E+00 -0.00000000000E+00 -0.45593999997E+02  0.45594000000E+02  0.51100000000E-03 0.  1.
    9900012    2    1    2    0    0 -0.30138666657E+01 -0.14844207276E+02 -0.28058559722E+02  0.59302005337E+02  0.50000111814E+02 0.  0.
         12    1    1    2    0    0  0.30138666657E+01  0.14844207276E+02  0.28058559722E+02  0.31885994663E+02  0.00000000000E+00 0. -1.
         11    1    3    3    0    0  0.15587286898E+01  0.13256823674E+02 -0.21560706282E+01  0.13521155641E+02  0.51100000000E-03 0. -1.
        -11    1    3    3    0    0 -0.13041701553E+02 -0.81989844795E+01 -0.15228203602E+02  0.21661198284E+02  0.51100000000E-03 0.  1.
         12    1    3    3    0    0  0.84691061978E+01 -0.19902046470E+02 -0.10674285493E+02  0.24119651413E+02  0.00000000000E+00 0. -1.
</event>
<event>
 7    1  0.7457761E-012  0.5930196E+02  0.7816164E-02  0.1266605E+00
        -11   -1    0    0    0    0  0.00000000000E+00  0.00000000000E+00  0.45593999997E+02  0.45594000000E+02  0.51100000000E-03 0.  1.
         11   -1    0    0    0    0 -0.00000000000E+00 -0.00000000000E+00 -0.45593999997E+02  0.45594000000E+02  0.51100000000E-03 0. -1.
    9900012    2    1    2    0    0  0.88170971180E+01  0.10742226204E+01  0.30623923692E+02  0.59301955119E+02  0.50000020229E+02 0.  0.
         12    1    1    2    0    0 -0.88170971180E+01 -0.10742226204E+01 -0.30623923692E+02  0.31886044881E+02  0.00000000000E+00 0. -1.
         11    1    3    3    0    0 -0.42564841538E+01 -0.13353070986E+02 -0.74680884605E+01  0.15880633099E+02  0.51100000000E-03 0. -1.
        -11    1    3    3    0    0  0.93012220931E+01  0.90430579101E+01  0.17358126028E+02  0.21670121556E+02  0.51100000000E-03 0.  1.
         12    1    3    3    0    0  0.37723591787E+01  0.53842356965E+01  0.20733886125E+02  0.21751200464E+02  0.00000000000E+00 0. -1.
</event>
<event>
 7    1  0.7457761E-012  0.5930194E+02  0.7816164E-02  0.1266605E+00
        -11   -1    0    0    0    0  0.00000000000E+00  0.00000000000E+00  0.45593999997E+02  0.45594000000E+02  0.51100000000E-03 0.  1.
         11   -1    0    0    0    0 -0.00000000000E+00 -0.00000000000E+00 -0.45593999997E+02  0.45594000000E+02  0.51100000000E-03 0. -1.
    9900012    2    1    2    0    0  0.22737285482E+02 -0.22333035026E+02  0.98603985924E+00  0.59301939109E+02  0.49999991029E+02 0.  0.
         12    1    1    2    0    0 -0.22737285482E+02  0.22333035026E+02 -0.98603985924E+00  0.31886060891E+02  0.00000000000E+00 0. -1.
         11    1    3    3    0    0 -0.38740586769E+01  0.32303776539E+01  0.13674100423E+01  0.52262300852E+01  0.51100000000E-03 0. -1.
        -11    1    3    3    0    0  0.17823314386E+02 -0.16490589728E+02  0.19075394252E+02  0.30878483632E+02  0.51100000000E-03 0.  1.
        -12    1    3    3    0    0  0.87880297727E+01 -0.90728229519E+01 -0.19456764435E+02  0.23197225392E+02  0.00000000000E+00 0.  1.
</event>
<event>
 7    1  0.7457761E-012  0.5930194E+02  0.7816164E-02  0.1266605E+00
        -11   -1    0    0    0    0  0.00000000000E+00  0.00000000000E+00  0.45593999997E+02  0.45594000000E+02  0.51100000000E-03 0.  1.
         11   -1    0    0    0    0 -0.00000000000E+00 -0.00000000000E+00 -0.45593999997E+02  0.45594000000E+02  0.51100000000E-03 0. -1.
    9900012    2    1    2    0    0 -0.29780386166E+02  0.42555061828E+01  0.10570712905E+02  0.59301941849E+02  0.49999996027E+02 0.  0.
         12    1    1    2    0    0  0.29780386166E+02 -0.42555061828E+01 -0.10570712905E+02  0.31886058151E+02  0.00000000000E+00 0. -1.
         11    1    3    3    0    0 -0.38651673932E+02  0.10917993788E+01  0.28158989416E+01  0.38769488142E+02  0.51100000000E-03 0.  1.
        -11    1    3    3    0    0  0.56835099870E+01  0.99584626368E+01  0.53356503593E+01  0.12646834738E+02  0.51100000000E-03 0. -1.
         12    1    3    3    0    0  0.31877777796E+01 -0.67947558329E+01  0.24191636042E+01  0.78856189703E+01  0.00000000000E+00 0. -1.
</event>
<event>
 7    1  0.7457761E-012  0.5930194E+02  0.7816164E-02  0.1266605E+00
        -11   -1    0    0    0    0  0.00000000000E+00  0.00000000000E+00  0.45593999997E+02  0.45594000000E+02  0.51100000000E-03 0. -1.
         11   -1    0    0    0    0 -0.00000000000E+00 -0.00000000000E+00 -0.45593999997E+02  0.45594000000E+02  0.51100000000E-03 0.  1.
    9900012    2    1    2    0    0  0.92795176581E+01 -0.30005487361E+02  0.55029192133E+01  0.59301939729E+02  0.49999992161E+02 0.  0.
         12    1    1    2    0    0 -0.92795176581E+01  0.30005487361E+02 -0.55029192133E+01  0.31886060271E+02  0.00000000000E+00 0. -1.
         11    1    3    3    0    0 -0.88349429890E+01 -0.26348935875E+02  0.10252786548E+02  0.29621652075E+02  0.51100000000E-03 0. -1.
        -11    1    3    3    0    0  0.12353084702E+02 -0.13240142853E+02 -0.32661517280E+01  0.18400212820E+02  0.51100000000E-03 0.  1.
         12    1    3    3    0    0  0.57613759447E+01  0.95835913678E+01 -0.14837156069E+01  0.11280074835E+02  0.00000000000E+00 0. -1.
</event>
<event>
 7    1  0.7457761E-012  0.5930195E+02  0.7816164E-02  0.1266605E+00
        -11   -1    0    0    0    0  0.00000000000E+00  0.00000000000E+00  0.45593999997E+02  0.45594000000E+02  0.51100000000E-03 0. -1.
         11   -1    0    0    0    0 -0.00000000000E+00 -0.00000000000E+00 -0.45593999997E+02  0.45594000000E+02  0.51100000000E-03 0.  1.
    9900012    2    1    2    0    0 -0.25175815530E+02  0.14702517249E+02 -0.12912573745E+02  0.59301948790E+02  0.50000008685E+02 0.  0.
         12    1    1    2    0    0  0.25175815530E+02 -0.14702517249E+02  0.12912573745E+02  0.31886051210E+02  0.00000000000E+00 0. -1.
         11    1    3    3    0    0 -0.12128605275E+02 -0.48091295041E+01  0.11054062368E+02  0.17100382674E+02  0.51100000000E-03 0. -1.
        -11    1    3    3    0    0  0.33219264899E+01  0.15208492087E+02 -0.40905258033E+01  0.16095522010E+02  0.51100000000E-03 0.  1.
        -12    1    3    3    0    0 -0.16369136745E+02  0.43031546661E+01 -0.19876110309E+02  0.26106044106E+02  0.00000000000E+00 0.  1.
</event>
<event>
 7    1  0.7457761E-012  0.5930193E+02  0.7816164E-02  0.1266605E+00
        -11   -1    0    0    0    0  0.00000000000E+00  0.00000000000E+00  0.45593999997E+02  0.45594000000E+02  0.51100000000E-03 0. -1.
         11   -1    0    0    0    0 -0.00000000000E+00 -0.00000000000E+00 -0.45593999997E+02  0.45594000000E+02  0.51100000000E-03 0.  1.
    9900012    2    1    2    0    0  0.22739886564E+02 -0.10458521452E+02 -0.19754456299E+02  0.59301926934E+02  0.49999968825E+02 0.  0.
         12    1    1    2    0    0 -0.22739886564E+02  0.10458521452E+02  0.19754456299E+02  0.31886073066E+02  0.00000000000E+00 0. -1.
         11    1    3    3    0    0 -0.92954099750E+01 -0.15611324019E+01  0.15037178263E+01  0.95447864587E+01  0.51100000000E-03 0. -1.
        -11    1    3    3    0    0  0.19323402078E+02  0.67327688709E+01 -0.21401338534E+02  0.29609818234E+02  0.51100000000E-03 0.  1.
         12    1    3    3    0    0  0.12711894461E+02 -0.15630157921E+02  0.14316440868E+00  0.20147322241E+02  0.00000000000E+00 0. -1.
</event>
<event>
 7    1  0.7457761E-012  0.5930195E+02  0.7816164E-02  0.1266605E+00
        -11   -1    0    0    0    0  0.00000000000E+00  0.00000000000E+00  0.45593999997E+02  0.45594000000E+02  0.51100000000E-03 0.  1.
         11   -1    0    0    0    0 -0.00000000000E+00 -0.00000000000E+00 -0.45593999997E+02  0.45594000000E+02  0.51100000000E-03 0. -1.
    9900012    2    1    2    0    0  0.28372572601E+02 -0.14345803643E+02 -0.24320725906E+01  0.59301953910E+02  0.50000018023E+02 0.  0.
         12    1    1    2    0    0 -0.28372572601E+02  0.14345803643E+02  0.24320725906E+01  0.31886046090E+02  0.00000000000E+00 0. -1.
         11    1    3    3    0    0  0.76651676044E+01 -0.36586067562E+00 -0.23672928577E+02  0.24885662460E+02  0.51100000000E-03 0. -1.
        -11    1    3    3    0    0  0.18777501359E+02 -0.74670069889E+01  0.17007966891E+02  0.26412529010E+02  0.51100000000E-03 0.  1.
         12    1    3    3    0    0  0.19299036374E+01 -0.65129359781E+01  0.42328890953E+01  0.80037624401E+01  0.00000000000E+00 0. -1.
</event>
<event>
 7    1  0.7457761E-012  0.5930193E+02  0.7816164E-02  0.1266605E+00
        -11   -1    0    0    0    0  0.00000000000E+00  0.00000000000E+00  0.45593999997E+02  0.45594000000E+02  0.51100000000E-03 0.  1.
         11   -1    0    0    0    0 -0.00000000000E+00 -0.00000000000E+00 -0.45593999997E+02  0.45594000000E+02  0.51100000000E-03 0. -1.
    9900012    2    1    2    0    0  0.14280460853E+02 -0.27866190321E+02  0.60220476618E+01  0.59301934340E+02  0.49999982333E+02 0.  0.
         12    1    1    2    0    0 -0.14280460853E+02  0.27866190321E+02 -0.60220476618E+01  0.31886065660E+02  0.00000000000E+00 0. -1.
         11    1    3    3    0    0  0.66418225824E+01  0.53041970628E+01 -0.46149573237E+01  0.96719256127E+01  0.51100000000E-03 0. -1.
        -11    1    3    3    0    0  0.20222226733E+02 -0.23531237254E+02  0.12931341047E+02  0.33613645477E+02  0.51100000000E-03 0.  1.
        -12    1    3    3    0    0 -0.12583588462E+02 -0.96391501302E+01 -0.22943360611E+01  0.16016363251E+02  0.00000000000E+00 0.  1.
</event>
<event>
 7    1  0.7457761E-012  0.5930193E+02  0.7816164E-02  0.1266605E+00
        -11   -1    0    0    0    0  0.00000000000E+00  0.00000000000E+00  0.45593999997E+02  0.45594000000E+02  0.51100000000E-03 0.  1.
         11   -1    0    0    0    0 -0.00000000000E+00 -0.00000000000E+00 -0.45593999997E+02  0.45594000000E+02  0.51100000000E-03 0. -1.
    9900012    2    1    2    0    0  0.27653664941E+02 -0.21903375525E+01  0.15722544358E+02  0.59301934637E+02  0.49999982873E+02 0.  0.
         12    1    1    2    0    0 -0.27653664941E+02  0.21903375525E+01 -0.15722544358E+02  0.31886065363E+02  0.00000000000E+00 0. -1.
         11    1    3    3    0    0  0.64590395071E+01  0.11257762450E+02 -0.10873270261E+02  0.16931757533E+02  0.51100000000E-03 0. -1.
        -11    1    3    3    0    0  0.19110533193E+01 -0.75769085326E+01  0.19487818043E+02  0.20996112022E+02  0.51100000000E-03 0.  1.
         12    1    3    3    0    0  0.19283572115E+02 -0.58711914695E+01  0.71079965768E+01  0.21374065082E+02  0.00000000000E+00 0. -1.
</event>
<event>
 7    1  0.7457761E-012  0.5930191E+02  0.7816164E-02  0.1266605E+00
        -11   -1    0    0    0    0  0.00000000000E+00  0.00000000000E+00  0.45593999997E+02  0.45594000000E+02  0.51100000000E-03 0. -1.
         11   -1    0    0    0    0 -0.00000000000E+00 -0.00000000000E+00 -0.45593999997E+02  0.45594000000E+02  0.51100000000E-03 0.  1.
    9900012    2    1    2    0    0 -0.26332065820E+02  0.17680001583E+02 -0.32806398927E+01  0.59301909860E+02  0.49999937687E+02 0.  0.
         12    1    1    2    0    0  0.26332065820E+02 -0.17680001583E+02  0.32806398927E+01  0.31886090140E+02  0.00000000000E+00 0. -1.
         11    1    3    3    0    0 -0.18829214625E+01 -0.43561153639E+01  0.12967525560E+02  0.13808615199E+02  0.51100000000E-03 0. -1.
        -11    1    3    3    0    0 -0.19762345616E+02  0.25340051243E+02 -0.20707491103E+02  0.38229160196E+02  0.51100000000E-03 0.  1.
        -12    1    3    3    0    0 -0.46867987407E+01 -0.33039342965E+01  0.44593256503E+01  0.72641344651E+01  0.00000000000E+00 0.  1.
</event>
<event>
 7    1  0.7457761E-012  0.5930197E+02  0.7816164E-02  0.1266605E+00
        -11   -1    0    0    0    0  0.00000000000E+00  0.00000000000E+00  0.45593999997E+02  0.45594000000E+02  0.51100000000E-03 0.  1.
         11   -1    0    0    0    0 -0.00000000000E+00 -0.00000000000E+00 -0.45593999997E+02  0.45594000000E+02  0.51100000000E-03 0. -1.
    9900012    2    1    2    0    0  0.88622669271E+01  0.26344454794E+02  0.15625268739E+02  0.59301967060E+02  0.50000042006E+02 0.  0.
         12    1    1    2    0    0 -0.88622669271E+01 -0.26344454794E+02 -0.15625268739E+02  0.31886032940E+02  0.00000000000E+00 0. -1.
         11    1    3    3    0    0  0.34222642232E+01 -0.12791633358E+02  0.11845103973E+02  0.17766380182E+02  0.51100000000E-03 0. -1.
        -11    1    3    3    0    0  0.23118794116E+00  0.22496392001E+02 -0.32589288292E+01  0.22732393589E+02  0.51100000000E-03 0.  1.
        -12    1    3    3    0    0  0.52088147627E+01  0.16639696151E+02  0.70390935952E+01  0.18803193290E+02  0.00000000000E+00 0.  1.
</event>
<event>
 7    1  0.7457761E-012  0.5930195E+02  0.7816164E-02  0.1266605E+00
        -11   -1    0    0    0    0  0.00000000000E+00  0.00000000000E+00  0.45593999997E+02  0.45594000000E+02  0.51100000000E-03 0.  1.
         11   -1    0    0    0    0 -0.00000000000E+00 -0.00000000000E+00 -0.45593999997E+02  0.45594000000E+02  0.51100000000E-03 0. -1.
    9900012    2    1    2    0    0 -0.18984534382E+02  0.47686960291E+01  0.25170759823E+02  0.59301950423E+02  0.50000011664E+02 0.  0.
         12    1    1    2    0    0  0.18984534382E+02 -0.47686960291E+01 -0.25170759823E+02  0.31886049577E+02  0.00000000000E+00 0. -1.
         11    1    3    3    0    0 -0.13763499204E+02  0.12892969720E+02 -0.73687837612E+01  0.20247507326E+02  0.51100000000E-03 0. -1.
        -11    1    3    3    0    0 -0.11648460581E+02 -0.86627597336E+01  0.17824493760E+02  0.22987879811E+02  0.51100000000E-03 0.  1.
         12    1    3    3    0    0  0.64274254025E+01  0.53848604283E+00  0.14715049824E+02  0.16066563287E+02  0.00000000000E+00 0. -1.
</event>
<event>
 7    1  0.7457761E-012  0.5930196E+02  0.7816164E-02  0.1266605E+00
        -11   -1    0    0    0    0  0.00000000000E+00  0.00000000000E+00  0.45593999997E+02  0.45594000000E+02  0.51100000000E-03 0. -1.
         11   -1    0    0    0    0 -0.00000000000E+00 -0.00000000000E+00 -0.45593999997E+02  0.45594000000E+02  0.51100000000E-03 0.  1.
    9900012    2    1    2    0    0 -0.10072187792E+01 -0.30856850131E+02 -0.79724493975E+01  0.59301958555E+02  0.50000026494E+02 0.  0.
         12    1    1    2    0    0  0.10072187792E+01  0.30856850131E+02  0.79724493975E+01  0.31886041445E+02  0.00000000000E+00 0. -1.
         11    1    3    3    0    0  0.50775946578E+01 -0.32574132443E+02  0.11422397907E+02  0.34890217055E+02  0.51100000000E-03 0. -1.
        -11    1    3    3    0    0  0.26959223012E+00 -0.37460597391E+01 -0.13881524320E+02  0.14380624508E+02  0.51100000000E-03 0.  1.
        -12    1    3    3    0    0 -0.63544056671E+01  0.54633420517E+01 -0.55133229847E+01  0.10031116991E+02  0.00000000000E+00 0.  1.
</event>
<event>
 7    1  0.7457761E-012  0.5930197E+02  0.7816164E-02  0.1266605E+00
        -11   -1    0    0    0    0  0.00000000000E+00  0.00000000000E+00  0.45593999997E+02  0.45594000000E+02  0.51100000000E-03 0.  1.
         11   -1    0    0    0    0 -0.00000000000E+00 -0.00000000000E+00 -0.45593999997E+02  0.45594000000E+02  0.51100000000E-03 0. -1.
    9900012    2    1    2    0    0  0.15838551636E+02 -0.27479586109E+02  0.32759283475E+01  0.59301967365E+02  0.50000042562E+02 0.  0.
         12    1    1    2    0    0 -0.15838551636E+02  0.27479586109E+02 -0.32759283475E+01  0.31886032635E+02  0.00000000000E+00 0. -1.
         11    1    3    3    0    0  0.44947042504E+01 -0.23108927421E+02 -0.17968190443E+02  0.29615549310E+02  0.51100000000E-03 0. -1.
        -11    1    3    3    0    0  0.69256096914E+01 -0.10859585661E+02  0.12868041617E+02  0.18206624225E+02  0.51100000000E-03 0.  1.
         12    1    3    3    0    0  0.44182376943E+01  0.64889269728E+01  0.83760771737E+01  0.11479793831E+02  0.00000000000E+00 0. -1.
</event>
<event>
 7    1  0.7457761E-012  0.5930196E+02  0.7816164E-02  0.1266605E+00
        -11   -1    0    0    0    0  0.00000000000E+00  0.00000000000E+00  0.45593999997E+02  0.45594000000E+02  0.51100000000E-03 0.  1.
         11   -1    0    0    0    0 -0.00000000000E+00 -0.00000000000E+00 -0.45593999997E+02  0.45594000000E+02  0.51100000000E-03 0. -1.
    9900012    2    1    2    0    0  0.33276234816E+01  0.10248358679E+02  0.30010294265E+02  0.59301957669E+02  0.50000024879E+02 0.  0.
         12    1    1    2    0    0 -0.33276234816E+01 -0.10248358679E+02 -0.30010294265E+02  0.31886042331E+02  0.00000000000E+00 0. -1.
         11    1    3    3    0    0 -0.72658217122E+01  0.90413397596E+01 -0.82280356562E+01  0.14221060468E+02  0.51100000000E-03 0. -1.
        -11    1    3    3    0    0 -0.33312829549E+01 -0.40474139200E+01  0.23709222367E+02  0.24281808645E+02  0.51100000000E-03 0.  1.
         12    1    3    3    0    0  0.13924728149E+02  0.52544328390E+01  0.14529107554E+02  0.20799088557E+02  0.00000000000E+00 0. -1.
</event>
<event>
 7    1  0.7457761E-012  0.5930197E+02  0.7816164E-02  0.1266605E+00
        -11   -1    0    0    0    0  0.00000000000E+00  0.00000000000E+00  0.45593999997E+02  0.45594000000E+02  0.51100000000E-03 0. -1.
         11   -1    0    0    0    0 -0.00000000000E+00 -0.00000000000E+00 -0.45593999997E+02  0.45594000000E+02  0.51100000000E-03 0.  1.
    9900012    2    1    2    0    0 -0.11575963784E+02 -0.28442135306E+02 -0.85884036487E+01  0.59301973663E+02  0.50000054048E+02 0.  0.
         12    1    1    2    0    0  0.11575963784E+02  0.28442135306E+02  0.85884036487E+01  0.31886026337E+02  0.00000000000E+00 0. -1.
         11    1    3    3    0    0 -0.20895278754E+02 -0.33802190475E+01 -0.11589652382E+02  0.24132107194E+02  0.51100000000E-03 0. -1.
        -11    1    3    3    0    0 -0.25948806877E+01 -0.22655952426E+02  0.80454081901E+00  0.22818257433E+02  0.51100000000E-03 0.  1.
         12    1    3    3    0    0  0.11914195657E+02 -0.24059638332E+01  0.21967079146E+01  0.12351609036E+02  0.00000000000E+00 0. -1.
</event>
<event>
 7    1  0.7457761E-012  0.5930194E+02  0.7816164E-02  0.1266605E+00
        -11   -1    0    0    0    0  0.00000000000E+00  0.00000000000E+00  0.45593999997E+02  0.45594000000E+02  0.51100000000E-03 0.  1.
         11   -1    0    0    0    0 -0.00000000000E+00 -0.00000000000E+00 -0.45593999997E+02  0.45594000000E+02  0.51100000000E-03 0. -1.
    9900012    2    1    2    0    0  0.26883223652E+02 -0.11683516196E+02  0.12550241717E+02  0.59301939852E+02  0.49999992385E+02 0.  0.
         12    1    1    2    0    0 -0.26883223652E+02  0.11683516196E+02 -0.12550241717E+02  0.31886060148E+02  0.00000000000E+00 0. -1.
         11    1    3    3    0    0  0.10790201676E+02  0.16723314421E+02 -0.17242203411E+01  0.19976752326E+02  0.51100000000E-03 0. -1.
        -11    1    3    3    0    0  0.19552424206E+02 -0.25001908365E+02  0.13061687742E+02  0.34322010448E+02  0.51100000000E-03 0.  1.
        -12    1    3    3    0    0 -0.34594022306E+01 -0.34049222523E+01  0.12127743154E+01  0.50031770784E+01  0.00000000000E+00 0.  1.
</event>
<event>
 7    1  0.7457761E-012  0.5930196E+02  0.7816164E-02  0.1266605E+00
        -11   -1    0    0    0    0  0.00000000000E+00  0.00000000000E+00  0.45593999997E+02  0.45594000000E+02  0.51100000000E-03 0. -1.
         11   -1    0    0    0    0 -0.00000000000E+00 -0.00000000000E+00 -0.45593999997E+02  0.45594000000E+02  0.51100000000E-03 0.  1.
    9900012    2    1    2    0    0 -0.19714904496E+01  0.26816641381E+02 -0.17137691789E+02  0.59301960587E+02  0.50000030201E+02 0.  0.
         12    1    1    2    0    0  0.19714904496E+01 -0.26816641381E+02  0.17137691789E+02  0.31886039413E+02  0.00000000000E+00 0. -1.
         11    1    3    3    0    0  0.38346123864E+01  0.96316567492E+01  0.61703829902E+00  0.10385268432E+02  0.51100000000E-03 0. -1.
        -11    1    3    3    0    0 -0.78783891130E+01 -0.70980538940E+01 -0.21771381458E+02  0.24216614853E+02  0.51100000000E-03 0.  1.
        -12    1    3    3    0    0  0.20722862770E+01  0.24283038526E+02  0.40166513698E+01  0.24700077301E+02  0.00000000000E+00 0.  1.
</event>
<event>
 7    1  0.7457761E-012  0.5930190E+02  0.7816164E-02  0.1266605E+00
        -11   -1    0    0    0    0  0.00000000000E+00  0.00000000000E+00  0.45593999997E+02  0.45594000000E+02  0.51100000000E-03 0.  1.
         11   -1    0    0    0    0 -0.00000000000E+00 -0.00000000000E+00 -0.45593999997E+02  0.45594000000E+02  0.51100000000E-03 0. -1.
    9900012    2    1    2    0    0  0.71693249611E+01 -0.15003581843E+02 -0.27206920380E+02  0.59301902636E+02  0.49999924511E+02 0.  0.
         12    1    1    2    0    0 -0.71693249611E+01  0.15003581843E+02  0.27206920380E+02  0.31886097364E+02  0.00000000000E+00 0. -1.
         11    1    3    3    0    0  0.11187866246E+01  0.13076698930E+02 -0.27248367437E+02  0.30244425381E+02  0.51100000000E-03 0. -1.
        -11    1    3    3    0    0  0.29254104946E+01 -0.19734445761E+02 -0.15282094812E+01  0.20008543189E+02  0.51100000000E-03 0.  1.
         12    1    3    3    0    0  0.31251278419E+01 -0.83458350120E+01  0.15696565374E+01  0.90489340655E+01  0.00000000000E+00 0. -1.
</event>
<event>
 7    1  0.7457761E-012  0.5930187E+02  0.7816164E-02  0.1266605E+00
        -11   -1    0    0    0    0  0.00000000000E+00  0.00000000000E+00  0.45593999997E+02  0.45594000000E+02  0.51100000000E-03 0.  1.
         11   -1    0    0    0    0 -0.00000000000E+00 -0.00000000000E+00 -0.45593999997E+02  0.45594000000E+02  0.51100000000E-03 0. -1.
    9900012    2    1    2    0    0  0.22275569748E+02 -0.74579667019E+01  0.21561602331E+02  0.59301874961E+02  0.49999874039E+02 0.  0.
         12    1    1    2    0    0 -0.22275569748E+02  0.74579667019E+01 -0.21561602331E+02  0.31886125039E+02  0.00000000000E+00 0. -1.
         11    1    3    3    0    0  0.23923247299E+02  0.14019095841E+02  0.21049244126E+01  0.27808047695E+02  0.51100000000E-03 0. -1.
        -11    1    3    3    0    0  0.28862925863E+01 -0.74562507142E+00  0.49827000712E+01  0.58063708029E+01  0.51100000000E-03 0.  1.
         12    1    3    3    0    0 -0.45339701379E+01 -0.20731437472E+02  0.14473977847E+02  0.25687456464E+02  0.00000000000E+00 0. -1.
</event>
<event>
 7    1  0.7457761E-012  0.5930194E+02  0.7816164E-02  0.1266605E+00
        -11   -1    0    0    0    0  0.00000000000E+00  0.00000000000E+00  0.45593999997E+02  0.45594000000E+02  0.51100000000E-03 0.  1.
         11   -1    0    0    0    0 -0.00000000000E+00 -0.00000000000E+00 -0.45593999997E+02  0.45594000000E+02  0.51100000000E-03 0. -1.
    9900012    2    1    2    0    0  0.26232616763E+02  0.17971474022E+02 -0.23657539277E+01  0.59301939528E+02  0.49999991794E+02 0.  0.
         12    1    1    2    0    0 -0.26232616763E+02 -0.17971474022E+02  0.23657539277E+01  0.31886060472E+02  0.00000000000E+00 0. -1.
         11    1    3    3    0    0 -0.70043574635E+01  0.22861010863E+01 -0.41739581772E+01  0.84681290011E+01  0.51100000000E-03 0. -1.
        -11    1    3    3    0    0  0.21850215253E+02 -0.37330927976E+00 -0.13682902837E+02  0.25783581922E+02  0.51100000000E-03 0.  1.
        -12    1    3    3    0    0  0.11386758973E+02  0.16058682216E+02  0.15491107086E+02  0.25050228605E+02  0.00000000000E+00 0.  1.
</event>
<event>
 7    1  0.7457761E-012  0.5930164E+02  0.7816164E-02  0.1266606E+00
        -11   -1    0    0    0    0  0.00000000000E+00  0.00000000000E+00  0.45593999997E+02  0.45594000000E+02  0.51100000000E-03 0.  1.
         11   -1    0    0    0    0 -0.00000000000E+00 -0.00000000000E+00 -0.45593999997E+02  0.45594000000E+02  0.51100000000E-03 0. -1.
    9900012    2    1    2    0    0  0.14736158842E+02  0.28124159390E+02 -0.29354841671E+01  0.59301642633E+02  0.49999450326E+02 0.  0.
         12    1    1    2    0    0 -0.14736158842E+02 -0.28124159390E+02  0.29354841671E+01  0.31886357367E+02  0.00000000000E+00 0. -1.
         11    1    3    3    0    0  0.53296371823E+01 -0.56304695843E+01 -0.11238650117E+01  0.78339193933E+01  0.51100000000E-03 0. -1.
        -11    1    3    3    0    0 -0.19787601348E+01  0.36404760275E+02  0.66198584438E+01  0.37054616290E+02  0.51100000000E-03 0.  1.
        -12    1    3    3    0    0  0.11385281794E+02 -0.26501313000E+01 -0.84314775991E+01  0.14413106950E+02  0.00000000000E+00 0.  1.
</event>
<event>
 7    1  0.7457761E-012  0.5930199E+02  0.7816164E-02  0.1266605E+00
        -11   -1    0    0    0    0  0.00000000000E+00  0.00000000000E+00  0.45593999997E+02  0.45594000000E+02  0.51100000000E-03 0.  1.
         11   -1    0    0    0    0 -0.00000000000E+00 -0.00000000000E+00 -0.45593999997E+02  0.45594000000E+02  0.51100000000E-03 0. -1.
    9900012    2    1    2    0    0 -0.24862530672E+02  0.33903824642E+01  0.19674289080E+02  0.59301987777E+02  0.50000079788E+02 0.  0.
         12    1    1    2    0    0  0.24862530672E+02 -0.33903824642E+01 -0.19674289080E+02  0.31886012223E+02  0.00000000000E+00 0. -1.
         11    1    3    3    0    0  0.35901113590E+01 -0.25871761359E+01 -0.13666053813E+02  0.14364658263E+02  0.51100000000E-03 0. -1.
        -11    1    3    3    0    0 -0.11032335885E+01  0.97256900520E+00  0.50969771904E+01  0.53049214472E+01  0.51100000000E-03 0.  1.
         12    1    3    3    0    0 -0.27349408442E+02  0.50049895949E+01  0.28243365703E+02  0.39632408067E+02  0.00000000000E+00 0. -1.
</event>
<event>
 7    1  0.7457761E-012  0.5930194E+02  0.7816164E-02  0.1266605E+00
        -11   -1    0    0    0    0  0.00000000000E+00  0.00000000000E+00  0.45593999997E+02  0.45594000000E+02  0.51100000000E-03 0. -1.
         11   -1    0    0    0    0 -0.00000000000E+00 -0.00000000000E+00 -0.45593999997E+02  0.45594000000E+02  0.51100000000E-03 0.  1.
    9900012    2    1    2    0    0  0.25570940964E+02 -0.10248351246E+02  0.16056756001E+02  0.59301935045E+02  0.49999983618E+02 0.  0.
         12    1    1    2    0    0 -0.25570940964E+02  0.10248351246E+02 -0.16056756001E+02  0.31886064955E+02  0.00000000000E+00 0. -1.
         11    1    3    3    0    0  0.78534416062E+01 -0.18930547850E+02 -0.62995131497E+01  0.21441223220E+02  0.51100000000E-03 0.  1.
        -11    1    3    3    0    0  0.69911940348E+01  0.16073748987E+02  0.12940930000E+02  0.21787837664E+02  0.51100000000E-03 0. -1.
         12    1    3    3    0    0  0.10726305323E+02 -0.73915523827E+01  0.94153391507E+01  0.16072874162E+02  0.00000000000E+00 0. -1.
</event>
<event>
 7    1  0.7457761E-012  0.5930201E+02  0.7816164E-02  0.1266605E+00
        -11   -1    0    0    0    0  0.00000000000E+00  0.00000000000E+00  0.45593999997E+02  0.45594000000E+02  0.51100000000E-03 0. -1.
         11   -1    0    0    0    0 -0.00000000000E+00 -0.00000000000E+00 -0.45593999997E+02  0.45594000000E+02  0.51100000000E-03 0.  1.
    9900012    2    1    2    0    0  0.23091313947E+02  0.35912856407E+01 -0.21693548776E+02  0.59302012939E+02  0.50000125678E+02 0.  0.
         12    1    1    2    0    0 -0.23091313947E+02 -0.35912856407E+01  0.21693548776E+02  0.31885987061E+02  0.00000000000E+00 0. -1.
         11    1    3    3    0    0 -0.20941938703E+01 -0.77474755213E+01 -0.20907393423E+02  0.22394823619E+02  0.51100000000E-03 0.  1.
        -11    1    3    3    0    0  0.65103273299E+01  0.46187886505E+01  0.11175787039E+02  0.13733746275E+02  0.51100000000E-03 0. -1.
         12    1    3    3    0    0  0.18675180487E+02  0.67199725115E+01 -0.11961942392E+02  0.23173443046E+02  0.00000000000E+00 0. -1.
</event>
<event>
 7    1  0.7457761E-012  0.5930195E+02  0.7816164E-02  0.1266605E+00
        -11   -1    0    0    0    0  0.00000000000E+00  0.00000000000E+00  0.45593999997E+02  0.45594000000E+02  0.51100000000E-03 0.  1.
         11   -1    0    0    0    0 -0.00000000000E+00 -0.00000000000E+00 -0.45593999997E+02  0.45594000000E+02  0.51100000000E-03 0. -1.
    9900012    2    1    2    0    0 -0.29028073017E+02 -0.99901837948E+01 -0.86190276972E+01  0.59301946092E+02  0.50000003766E+02 0.  0.
         12    1    1    2    0    0  0.29028073017E+02  0.99901837948E+01  0.86190276972E+01  0.31886053908E+02  0.00000000000E+00 0. -1.
         11    1    3    3    0    0 -0.61806219301E+01 -0.79167035024E+01 -0.25150445793E+02  0.27081713491E+02  0.51100000000E-03 0. -1.
        -11    1    3    3    0    0 -0.81369718237E+01  0.66866456813E+01  0.65199382816E+01  0.12386732272E+02  0.51100000000E-03 0.  1.
         12    1    3    3    0    0 -0.14710479263E+02 -0.87601259736E+01  0.10011479814E+02  0.19833500329E+02  0.00000000000E+00 0. -1.
</event>
<event>
 7    1  0.7457761E-012  0.5930200E+02  0.7816164E-02  0.1266605E+00
        -11   -1    0    0    0    0  0.00000000000E+00  0.00000000000E+00  0.45593999997E+02  0.45594000000E+02  0.51100000000E-03 0.  1.
         11   -1    0    0    0    0 -0.00000000000E+00 -0.00000000000E+00 -0.45593999997E+02  0.45594000000E+02  0.51100000000E-03 0. -1.
    9900012    2    1    2    0    0 -0.94115151377E+01  0.27943593527E+02  0.12136553011E+02  0.59302000637E+02  0.50000103242E+02 0.  0.
         12    1    1    2    0    0  0.94115151377E+01 -0.27943593527E+02 -0.12136553011E+02  0.31885999363E+02  0.00000000000E+00 0. -1.
         11    1    3    3    0    0  0.13738262215E+02  0.12290698060E+02 -0.45626694618E+01  0.18989972627E+02  0.51100000000E-03 0. -1.
        -11    1    3    3    0    0 -0.11582354291E+02 -0.49927409505E+01  0.87368537716E+01  0.15343109437E+02  0.51100000000E-03 0.  1.
        -12    1    3    3    0    0 -0.11567423062E+02  0.20645636417E+02  0.79623687012E+01  0.24968918573E+02  0.00000000000E+00 0.  1.
</event>
<event>
 7    1  0.7457761E-012  0.5930196E+02  0.7816164E-02  0.1266605E+00
        -11   -1    0    0    0    0  0.00000000000E+00  0.00000000000E+00  0.45593999997E+02  0.45594000000E+02  0.51100000000E-03 0.  1.
         11   -1    0    0    0    0 -0.00000000000E+00 -0.00000000000E+00 -0.45593999997E+02  0.45594000000E+02  0.51100000000E-03 0. -1.
    9900012    2    1    2    0    0 -0.30502148087E+02 -0.73606236498E+01  0.56709708455E+01  0.59301957148E+02  0.50000023928E+02 0.  0.
         12    1    1    2    0    0  0.30502148087E+02  0.73606236498E+01 -0.56709708455E+01  0.31886042852E+02  0.00000000000E+00 0. -1.
         11    1    3    3    0    0 -0.96854101196E+01 -0.22107414517E+02 -0.56615522460E+01  0.24791089527E+02  0.51100000000E-03 0. -1.
        -11    1    3    3    0    0 -0.15771347282E+02 -0.12525950736E+01  0.54643010878E+01  0.16738069666E+02  0.51100000000E-03 0.  1.
         12    1    3    3    0    0 -0.50453906855E+01  0.15999385941E+02  0.58682220037E+01  0.17772797955E+02  0.00000000000E+00 0. -1.
</event>
<event>
 7    1  0.7457761E-012  0.5930194E+02  0.7816164E-02  0.1266605E+00
        -11   -1    0    0    0    0  0.00000000000E+00  0.00000000000E+00  0.45593999997E+02  0.45594000000E+02  0.51100000000E-03 0. -1.
         11   -1    0    0    0    0 -0.00000000000E+00 -0.00000000000E+00 -0.45593999997E+02  0.45594000000E+02  0.51100000000E-03 0.  1.
    9900012    2    1    2    0    0  0.93585442469E+01  0.16059945196E+02 -0.25907844603E+02  0.59301943454E+02  0.49999998953E+02 0.  0.
         12    1    1    2    0    0 -0.93585442469E+01 -0.16059945196E+02  0.25907844603E+02  0.31886056546E+02  0.00000000000E+00 0. -1.
         11    1    3    3    0    0  0.48320663376E+01 -0.11959771533E+02  0.67640360096E+01  0.14564929921E+02  0.51100000000E-03 0. -1.
        -11    1    3    3    0    0  0.34619412314E+01  0.29123238102E+01 -0.96416938162E+01  0.10650301731E+02  0.51100000000E-03 0.  1.
         12    1    3    3    0    0  0.10645366778E+01  0.25107392919E+02 -0.23030186796E+02  0.34086711801E+02  0.00000000000E+00 0. -1.
</event>
<event>
 7    1  0.7457761E-012  0.5930189E+02  0.7816164E-02  0.1266605E+00
        -11   -1    0    0    0    0  0.00000000000E+00  0.00000000000E+00  0.45593999997E+02  0.45594000000E+02  0.51100000000E-03 0. -1.
         11   -1    0    0    0    0 -0.00000000000E+00 -0.00000000000E+00 -0.45593999997E+02  0.45594000000E+02  0.51100000000E-03 0.  1.
    9900012    2    1    2    0    0 -0.18455316437E+02  0.23819194907E+02 -0.10429350659E+02  0.59301888510E+02  0.49999898748E+02 0.  0.
         12    1    1    2    0    0  0.18455316437E+02 -0.23819194907E+02  0.10429350659E+02  0.31886111490E+02  0.00000000000E+00 0. -1.
         11    1    3    3    0    0  0.21282440726E+00  0.20709640925E+00 -0.16222930085E+01  0.16492477126E+01  0.51100000000E-03 0. -1.
        -11    1    3    3    0    0  0.11877849576E+02 -0.29264339882E+01  0.71344181332E+01  0.14161470573E+02  0.51100000000E-03 0.  1.
        -12    1    3    3    0    0 -0.30545990421E+02  0.26538532486E+02 -0.15941475784E+02  0.43491170224E+02  0.00000000000E+00 0.  1.
</event>
<event>
 7    1  0.7457761E-012  0.5930195E+02  0.7816164E-02  0.1266605E+00
        -11   -1    0    0    0    0  0.00000000000E+00  0.00000000000E+00  0.45593999997E+02  0.45594000000E+02  0.51100000000E-03 0. -1.
         11   -1    0    0    0    0 -0.00000000000E+00 -0.00000000000E+00 -0.45593999997E+02  0.45594000000E+02  0.51100000000E-03 0.  1.
    9900012    2    1    2    0    0 -0.28152140297E+02 -0.11754503108E+02 -0.92740788844E+01  0.59301954685E+02  0.50000019437E+02 0.  0.
         12    1    1    2    0    0  0.28152140297E+02  0.11754503108E+02  0.92740788844E+01  0.31886045315E+02  0.00000000000E+00 0. -1.
         11    1    3    3    0    0  0.71471947493E+00 -0.14247030491E+02  0.74900907658E+01  0.16111801937E+02  0.51100000000E-03 0. -1.
        -11    1    3    3    0    0 -0.33094498699E+02  0.60838735709E+01 -0.16871835274E+02  0.37641973747E+02  0.51100000000E-03 0.  1.
        -12    1    3    3    0    0  0.42276389269E+01 -0.35913461885E+01  0.10766562355E+00  0.55481790011E+01  0.00000000000E+00 0.  1.
</event>
<event>
 7    1  0.7457761E-012  0.5930198E+02  0.7816164E-02  0.1266605E+00
        -11   -1    0    0    0    0  0.00000000000E+00  0.00000000000E+00  0.45593999997E+02  0.45594000000E+02  0.51100000000E-03 0. -1.
         11   -1    0    0    0    0 -0.00000000000E+00 -0.00000000000E+00 -0.45593999997E+02  0.45594000000E+02  0.51100000000E-03 0.  1.
    9900012    2    1    2    0    0 -0.29433189938E+02 -0.40782759982E+01 -0.11566041603E+02  0.59301979185E+02  0.50000064118E+02 0.  0.
         12    1    1    2    0    0  0.29433189938E+02  0.40782759982E+01  0.11566041603E+02  0.31886020815E+02  0.00000000000E+00 0. -1.
         11    1    3    3    0    0 -0.23343897706E+02  0.11126682923E+02  0.96061939038E+01  0.27586583598E+02  0.51100000000E-03 0.  1.
        -11    1    3    3    0    0 -0.80483229131E+01 -0.17881026138E+00 -0.10262993384E+02  0.13043638613E+02  0.51100000000E-03 0. -1.
         12    1    3    3    0    0  0.19590306811E+01 -0.15026148660E+02 -0.10909242124E+02  0.18671756974E+02  0.00000000000E+00 0. -1.
</event>
<event>
 7    1  0.7457761E-012  0.5930193E+02  0.7816164E-02  0.1266605E+00
        -11   -1    0    0    0    0  0.00000000000E+00  0.00000000000E+00  0.45593999997E+02  0.45594000000E+02  0.51100000000E-03 0.  1.
         11   -1    0    0    0    0 -0.00000000000E+00 -0.00000000000E+00 -0.45593999997E+02  0.45594000000E+02  0.51100000000E-03 0. -1.
    9900012    2    1    2    0    0  0.63478943008E+01  0.13025314340E+01  0.31220654906E+02  0.59301927132E+02  0.49999969186E+02 0.  0.
         12    1    1    2    0    0 -0.63478943008E+01 -0.13025314340E+01 -0.31220654906E+02  0.31886072868E+02  0.00000000000E+00 0. -1.
         11    1    3    3    0    0  0.78885431258E+01  0.13571006168E+02  0.26580256896E+02  0.30869262673E+02  0.51100000000E-03 0. -1.
        -11    1    3    3    0    0 -0.98615133959E+01 -0.16088219268E+02  0.25530183944E+01  0.19042010106E+02  0.51100000000E-03 0.  1.
        -12    1    3    3    0    0  0.83208645708E+01  0.38197445340E+01  0.20873796157E+01  0.93906543526E+01  0.00000000000E+00 0.  1.
</event>
<event>
 7    1  0.7457761E-012  0.5930194E+02  0.7816164E-02  0.1266605E+00
        -11   -1    0    0    0    0  0.00000000000E+00  0.00000000000E+00  0.45593999997E+02  0.45594000000E+02  0.51100000000E-03 0. -1.
         11   -1    0    0    0    0 -0.00000000000E+00 -0.00000000000E+00 -0.45593999997E+02  0.45594000000E+02  0.51100000000E-03 0.  1.
    9900012    2    1    2    0    0  0.13251248437E+02 -0.52668203691E+00 -0.28997377619E+02  0.59301938972E+02  0.49999990780E+02 0.  0.
         12    1    1    2    0    0 -0.13251248437E+02  0.52668203691E+00  0.28997377619E+02  0.31886061028E+02  0.00000000000E+00 0. -1.
         11    1    3    3    0    0  0.19022242240E+02 -0.12200597537E+02  0.28124134182E+01  0.22773009234E+02  0.51100000000E-03 0. -1.
        -11    1    3    3    0    0 -0.23678088969E+01 -0.21974291633E+01 -0.31733787582E+01  0.45283050807E+01  0.51100000000E-03 0.  1.
         12    1    3    3    0    0 -0.34031849061E+01  0.13871344663E+02 -0.28636412279E+02  0.32000624657E+02  0.00000000000E+00 0. -1.
</event>
<event>
 7    1  0.7457761E-012  0.5930193E+02  0.7816164E-02  0.1266605E+00
        -11   -1    0    0    0    0  0.00000000000E+00  0.00000000000E+00  0.45593999997E+02  0.45594000000E+02  0.51100000000E-03 0.  1.
         11   -1    0    0    0    0 -0.00000000000E+00 -0.00000000000E+00 -0.45593999997E+02  0.45594000000E+02  0.51100000000E-03 0. -1.
    9900012    2    1    2    0    0  0.11500398800E+02 -0.65441176751E+01  0.29010974331E+02  0.59301932818E+02  0.49999979556E+02 0.  0.
         12    1    1    2    0    0 -0.11500398800E+02  0.65441176751E+01 -0.29010974331E+02  0.31886067182E+02  0.00000000000E+00 0. -1.
         11    1    3    3    0    0  0.20656881766E+02 -0.12084909812E+02 -0.29713837748E+01  0.24115989120E+02  0.51100000000E-03 0. -1.
        -11    1    3    3    0    0  0.15979206355E+01 -0.11806655118E+01  0.43819587422E+01  0.48113287237E+01  0.51100000000E-03 0.  1.
         12    1    3    3    0    0 -0.10754403602E+02  0.67214576490E+01  0.27600399364E+02  0.30374614974E+02  0.00000000000E+00 0. -1.
</event>
<event>
 7    1  0.7457761E-012  0.5930197E+02  0.7816164E-02  0.1266605E+00
        -11   -1    0    0    0    0  0.00000000000E+00  0.00000000000E+00  0.45593999997E+02  0.45594000000E+02  0.51100000000E-03 0. -1.
         11   -1    0    0    0    0 -0.00000000000E+00 -0.00000000000E+00 -0.45593999997E+02  0.45594000000E+02  0.51100000000E-03 0.  1.
    9900012    2    1    2    0    0 -0.29127460296E+02 -0.12967604905E+02 -0.38884369343E+00  0.59301969835E+02  0.50000047066E+02 0.  0.
         12    1    1    2    0    0  0.29127460296E+02  0.12967604905E+02  0.38884369343E+00  0.31886030165E+02  0.00000000000E+00 0. -1.
         11    1    3    3    0    0 -0.23389538675E+02 -0.18348902634E+02  0.18968838167E+02  0.35264281774E+02  0.51100000000E-03 0. -1.
        -11    1    3    3    0    0 -0.48802119330E+01 -0.13077578488E+01 -0.15424068720E+02  0.16230483518E+02  0.51100000000E-03 0.  1.
         12    1    3    3    0    0 -0.85770968771E+00  0.66890555781E+01 -0.39336131408E+01  0.78072045430E+01  0.00000000000E+00 0. -1.
</event>
<event>
 7    1  0.7457761E-012  0.5930193E+02  0.7816164E-02  0.1266605E+00
        -11   -1    0    0    0    0  0.00000000000E+00  0.00000000000E+00  0.45593999997E+02  0.45594000000E+02  0.51100000000E-03 0. -1.
         11   -1    0    0    0    0 -0.00000000000E+00 -0.00000000000E+00 -0.45593999997E+02  0.45594000000E+02  0.51100000000E-03 0.  1.
    9900012    2    1    2    0    0  0.28660562525E+01  0.84655634018E+01 -0.30607866195E+02  0.59301929136E+02  0.49999972841E+02 0.  0.
         12    1    1    2    0    0 -0.28660562525E+01 -0.84655634018E+01  0.30607866195E+02  0.31886070864E+02  0.00000000000E+00 0. -1.
         11    1    3    3    0    0 -0.12648066872E+02  0.15804860042E+02 -0.75791823304E+01  0.21615068855E+02  0.51100000000E-03 0. -1.
        -11    1    3    3    0    0  0.13654993084E+02 -0.61568713482E+01 -0.43413405215E+00  0.14985138423E+02  0.51100000000E-03 0.  1.
        -12    1    3    3    0    0  0.18591300413E+01 -0.11824252925E+01 -0.22594549812E+02  0.22701721858E+02  0.00000000000E+00 0.  1.
</event>
<event>
 7    1  0.7457761E-012  0.5930189E+02  0.7816164E-02  0.1266605E+00
        -11   -1    0    0    0    0  0.00000000000E+00  0.00000000000E+00  0.45593999997E+02  0.45594000000E+02  0.51100000000E-03 0.  1.
         11   -1    0    0    0    0 -0.00000000000E+00 -0.00000000000E+00 -0.45593999997E+02  0.45594000000E+02  0.51100000000E-03 0. -1.
    9900012    2    1    2    0    0  0.11527584104E+02  0.65959898615E+01  0.28988472231E+02  0.59301893311E+02  0.49999907505E+02 0.  0.
         12    1    1    2    0    0 -0.11527584104E+02 -0.65959898615E+01 -0.28988472231E+02  0.31886106689E+02  0.00000000000E+00 0. -1.
         11    1    3    3    0    0  0.21973044422E+02 -0.24950473012E+01  0.14518334967E+02  0.26454148874E+02  0.51100000000E-03 0. -1.
        -11    1    3    3    0    0 -0.97040178432E+01 -0.39633189304E+01  0.16567655123E+02  0.19605179310E+02  0.51100000000E-03 0.  1.
         12    1    3    3    0    0 -0.74144247472E+00  0.13054356093E+02 -0.20975178598E+01  0.13242565126E+02  0.00000000000E+00 0. -1.
</event>
<event>
 7    1  0.7457761E-012  0.5930195E+02  0.7816164E-02  0.1266605E+00
        -11   -1    0    0    0    0  0.00000000000E+00  0.00000000000E+00  0.45593999997E+02  0.45594000000E+02  0.51100000000E-03 0.  1.
         11   -1    0    0    0    0 -0.00000000000E+00 -0.00000000000E+00 -0.45593999997E+02  0.45594000000E+02  0.51100000000E-03 0. -1.
    9900012    2    1    2    0    0 -0.25596018696E+02 -0.91142850094E+01  0.16688126639E+02  0.59301953914E+02  0.50000018029E+02 0.  0.
         12    1    1    2    0    0  0.25596018696E+02  0.91142850094E+01 -0.16688126639E+02  0.31886046086E+02  0.00000000000E+00 0. -1.
         11    1    3    3    0    0 -0.31616184099E+02  0.48552880448E+01  0.15762019767E+00  0.31987212497E+02  0.51100000000E-03 0. -1.
        -11    1    3    3    0    0 -0.22936248656E+01 -0.48352726995E+01  0.13607817675E+02  0.14622355462E+02  0.51100000000E-03 0.  1.
         12    1    3    3    0    0  0.83137902685E+01 -0.91343003546E+01  0.29226887664E+01  0.12692385955E+02  0.00000000000E+00 0. -1.
</event>
<event>
 7    1  0.7457761E-012  0.5930197E+02  0.7816164E-02  0.1266605E+00
        -11   -1    0    0    0    0  0.00000000000E+00  0.00000000000E+00  0.45593999997E+02  0.45594000000E+02  0.51100000000E-03 0.  1.
         11   -1    0    0    0    0 -0.00000000000E+00 -0.00000000000E+00 -0.45593999997E+02  0.45594000000E+02  0.51100000000E-03 0. -1.
    9900012    2    1    2    0    0  0.22612560293E+02  0.11317840902E+02  0.19424147785E+02  0.59301969786E+02  0.50000046976E+02 0.  0.
         12    1    1    2    0    0 -0.22612560293E+02 -0.11317840902E+02 -0.19424147785E+02  0.31886030214E+02  0.00000000000E+00 0. -1.
         11    1    3    3    0    0 -0.12360874064E+02  0.57703343261E+01  0.84619111195E+01  0.16052784989E+02  0.51100000000E-03 0. -1.
        -11    1    3    3    0    0  0.37249866380E+02  0.17440143183E+01  0.87889493004E+01  0.38312396966E+02  0.51100000000E-03 0.  1.
        -12    1    3    3    0    0 -0.22764320229E+01  0.38034922573E+01  0.21732873647E+01  0.49367878297E+01  0.00000000000E+00 0.  1.
</event>
<event>
 7    1  0.7457761E-012  0.5930196E+02  0.7816164E-02  0.1266605E+00
        -11   -1    0    0    0    0  0.00000000000E+00  0.00000000000E+00  0.45593999997E+02  0.45594000000E+02  0.51100000000E-03 0.  1.
         11   -1    0    0    0    0 -0.00000000000E+00 -0.00000000000E+00 -0.45593999997E+02  0.45594000000E+02  0.51100000000E-03 0. -1.
    9900012    2    1    2    0    0  0.79484256853E+01 -0.28782880057E+02  0.11184279748E+02  0.59301956521E+02  0.50000022785E+02 0.  0.
         12    1    1    2    0    0 -0.79484256853E+01  0.28782880057E+02 -0.11184279748E+02  0.31886043479E+02  0.00000000000E+00 0. -1.
         11    1    3    3    0    0 -0.37574559249E+01 -0.83241456521E+01  0.11981346343E+02  0.15065275846E+02  0.51100000000E-03 0. -1.
        -11    1    3    3    0    0  0.10940686427E+02 -0.23574747474E+02 -0.14774496969E+02  0.29895703686E+02  0.51100000000E-03 0.  1.
        -12    1    3    3    0    0  0.76519518357E+00  0.31160130691E+01  0.13977430375E+02  0.14340976989E+02  0.00000000000E+00 0.  1.
</event>
<event>
 7    1  0.7457761E-012  0.5930197E+02  0.7816164E-02  0.1266605E+00
        -11   -1    0    0    0    0  0.00000000000E+00  0.00000000000E+00  0.45593999997E+02  0.45594000000E+02  0.51100000000E-03 0. -1.
         11   -1    0    0    0    0 -0.00000000000E+00 -0.00000000000E+00 -0.45593999997E+02  0.45594000000E+02  0.51100000000E-03 0.  1.
    9900012    2    1    2    0    0  0.21772995728E-01  0.29090933200E+02 -0.13055122909E+02  0.59301966966E+02  0.50000041834E+02 0.  0.
         12    1    1    2    0    0 -0.21772995728E-01 -0.29090933200E+02  0.13055122909E+02  0.31886033034E+02  0.00000000000E+00 0. -1.
         11    1    3    3    0    0  0.89111866292E+01  0.14289710718E+00  0.80698112834E+01  0.12022958086E+02  0.51100000000E-03 0. -1.
        -11    1    3    3    0    0  0.59969060230E+01  0.25901785185E+02 -0.16915547078E+02  0.31511919822E+02  0.51100000000E-03 0.  1.
        -12    1    3    3    0    0 -0.14886319656E+02  0.30462509072E+01 -0.42093871140E+01  0.15767089058E+02  0.00000000000E+00 0.  1.
</event>
<event>
 7    1  0.7457761E-012  0.5930193E+02  0.7816164E-02  0.1266605E+00
        -11   -1    0    0    0    0  0.00000000000E+00  0.00000000000E+00  0.45593999997E+02  0.45594000000E+02  0.51100000000E-03 0.  1.
         11   -1    0    0    0    0 -0.00000000000E+00 -0.00000000000E+00 -0.45593999997E+02  0.45594000000E+02  0.51100000000E-03 0. -1.
    9900012    2    1    2    0    0 -0.30614488667E+02  0.73805141921E+00  0.88842354855E+01  0.59301932879E+02  0.49999979668E+02 0.  0.
         12    1    1    2    0    0  0.30614488667E+02 -0.73805141921E+00 -0.88842354855E+01  0.31886067121E+02  0.00000000000E+00 0. -1.
         11    1    3    3    0    0 -0.31135034840E+01  0.57769483686E+01 -0.14961306801E+02  0.16337311219E+02  0.51100000000E-03 0. -1.
        -11    1    3    3    0    0 -0.20660748592E+02  0.96657125543E+00  0.26374509221E+02  0.33517391445E+02  0.51100000000E-03 0.  1.
        -12    1    3    3    0    0 -0.68402365911E+01 -0.60054682049E+01 -0.25289669348E+01  0.94472302152E+01  0.00000000000E+00 0.  1.
</event>
<event>
 7    1  0.7457761E-012  0.5930203E+02  0.7816164E-02  0.1266604E+00
        -11   -1    0    0    0    0  0.00000000000E+00  0.00000000000E+00  0.45593999997E+02  0.45594000000E+02  0.51100000000E-03 0. -1.
         11   -1    0    0    0    0 -0.00000000000E+00 -0.00000000000E+00 -0.45593999997E+02  0.45594000000E+02  0.51100000000E-03 0.  1.
    9900012    2    1    2    0    0  0.18683717663E+02 -0.53600164469E+01 -0.25276555289E+02  0.59302026136E+02  0.50000149745E+02 0.  0.
         12    1    1    2    0    0 -0.18683717663E+02  0.53600164469E+01  0.25276555289E+02  0.31885973864E+02  0.00000000000E+00 0. -1.
         11    1    3    3    0    0 -0.29930847619E+01 -0.17092503860E+02 -0.76131816558E+01  0.18949215809E+02  0.51100000000E-03 0.  1.
        -11    1    3    3    0    0  0.65724937269E+01  0.18566604562E+02 -0.10000270180E+02  0.22088953862E+02  0.51100000000E-03 0. -1.
        -12    1    3    3    0    0  0.15104308698E+02 -0.68341171487E+01 -0.76631034526E+01  0.18263856465E+02  0.00000000000E+00 0.  1.
</event>
<event>
 7    1  0.7457761E-012  0.5930196E+02  0.7816164E-02  0.1266605E+00
        -11   -1    0    0    0    0  0.00000000000E+00  0.00000000000E+00  0.45593999997E+02  0.45594000000E+02  0.51100000000E-03 0.  1.
         11   -1    0    0    0    0 -0.00000000000E+00 -0.00000000000E+00 -0.45593999997E+02  0.45594000000E+02  0.51100000000E-03 0. -1.
    9900012    2    1    2    0    0 -0.18256707931E+02 -0.20378030884E+02  0.16375223146E+02  0.59301961358E+02  0.50000031607E+02 0.  0.
         12    1    1    2    0    0  0.18256707931E+02  0.20378030884E+02 -0.16375223146E+02  0.31886038642E+02  0.00000000000E+00 0. -1.
         11    1    3    3    0    0  0.10660082250E+02 -0.87752008154E+01  0.22046458256E+02  0.26013224038E+02  0.51100000000E-03 0. -1.
        -11    1    3    3    0    0 -0.27679853215E+02 -0.84792886725E+01 -0.68131951719E+01  0.29740414239E+02  0.51100000000E-03 0.  1.
         12    1    3    3    0    0 -0.12369369665E+01 -0.31235413959E+01  0.11419600620E+01  0.35483230820E+01  0.00000000000E+00 0. -1.
</event>
<event>
 7    1  0.7457761E-012  0.5930197E+02  0.7816164E-02  0.1266605E+00
        -11   -1    0    0    0    0  0.00000000000E+00  0.00000000000E+00  0.45593999997E+02  0.45594000000E+02  0.51100000000E-03 0.  1.
         11   -1    0    0    0    0 -0.00000000000E+00 -0.00000000000E+00 -0.45593999997E+02  0.45594000000E+02  0.51100000000E-03 0. -1.
    9900012    2    1    2    0    0 -0.21979773156E+02  0.43394989493E+01  0.22688704744E+02  0.59301968543E+02  0.50000044710E+02 0.  0.
         12    1    1    2    0    0  0.21979773156E+02 -0.43394989493E+01 -0.22688704744E+02  0.31886031457E+02  0.00000000000E+00 0. -1.
         11    1    3    3    0    0  0.67915135328E+01 -0.14681037542E+02  0.41867607821E+01  0.16708874453E+02  0.51100000000E-03 0. -1.
        -11    1    3    3    0    0 -0.11856352915E+01  0.88826755910E+01  0.48087650601E+01  0.10170146428E+02  0.51100000000E-03 0.  1.
         12    1    3    3    0    0 -0.27585651397E+02  0.10137860901E+02  0.13693178902E+02  0.32422947662E+02  0.00000000000E+00 0. -1.
</event>
<event>
 7    1  0.7457761E-012  0.5930199E+02  0.7816164E-02  0.1266605E+00
        -11   -1    0    0    0    0  0.00000000000E+00  0.00000000000E+00  0.45593999997E+02  0.45594000000E+02  0.51100000000E-03 0. -1.
         11   -1    0    0    0    0 -0.00000000000E+00 -0.00000000000E+00 -0.45593999997E+02  0.45594000000E+02  0.51100000000E-03 0.  1.
    9900012    2    1    2    0    0 -0.65724309220E+01 -0.14475300138E+02 -0.27640302316E+02  0.59301992498E+02  0.50000088398E+02 0.  0.
         12    1    1    2    0    0  0.65724309220E+01  0.14475300138E+02  0.27640302316E+02  0.31886007502E+02  0.00000000000E+00 0. -1.
         11    1    3    3    0    0  0.64508153907E+01 -0.21758778597E+02 -0.17241536756E+01  0.22760276172E+02  0.51100000000E-03 0. -1.
        -11    1    3    3    0    0 -0.18141417631E+02  0.27448809976E+01 -0.15189411604E+02  0.23819396098E+02  0.51100000000E-03 0.  1.
        -12    1    3    3    0    0  0.51181713180E+01  0.45385974613E+01 -0.10726737036E+02  0.12722320228E+02  0.00000000000E+00 0.  1.
</event>
<event>
 7    1  0.7457761E-012  0.5930194E+02  0.7816164E-02  0.1266605E+00
        -11   -1    0    0    0    0  0.00000000000E+00  0.00000000000E+00  0.45593999997E+02  0.45594000000E+02  0.51100000000E-03 0.  1.
         11   -1    0    0    0    0 -0.00000000000E+00 -0.00000000000E+00 -0.45593999997E+02  0.45594000000E+02  0.51100000000E-03 0. -1.
    9900012    2    1    2    0    0  0.27438262810E+02  0.13901919333E+02  0.84023150403E+01  0.59301944659E+02  0.50000001151E+02 0.  0.
         12    1    1    2    0    0 -0.27438262810E+02 -0.13901919333E+02 -0.84023150403E+01  0.31886055341E+02  0.00000000000E+00 0. -1.
         11    1    3    3    0    0 -0.34230690569E+01  0.13127532844E+02 -0.14894897271E+02  0.20147145835E+02  0.51100000000E-03 0. -1.
        -11    1    3    3    0    0  0.13423088388E+02  0.16949551569E+01  0.13585555872E+02  0.19173406152E+02  0.51100000000E-03 0.  1.
         12    1    3    3    0    0  0.17438243479E+02 -0.92056866768E+00  0.97116564388E+01  0.19981392672E+02  0.00000000000E+00 0. -1.
</event>
<event>
 7    1  0.7457761E-012  0.5930196E+02  0.7816164E-02  0.1266605E+00
        -11   -1    0    0    0    0  0.00000000000E+00  0.00000000000E+00  0.45593999997E+02  0.45594000000E+02  0.51100000000E-03 0. -1.
         11   -1    0    0    0    0 -0.00000000000E+00 -0.00000000000E+00 -0.45593999997E+02  0.45594000000E+02  0.51100000000E-03 0.  1.
    9900012    2    1    2    0    0 -0.12331149743E+02 -0.28794392457E+02  0.59619634704E+01  0.59301963882E+02  0.50000036209E+02 0.  0.
         12    1    1    2    0    0  0.12331149743E+02  0.28794392457E+02 -0.59619634704E+01  0.31886036118E+02  0.00000000000E+00 0. -1.
         11    1    3    3    0    0  0.20345590852E+01 -0.19701512967E+02  0.24420905026E+01  0.19956273453E+02  0.51100000000E-03 0. -1.
        -11    1    3    3    0    0 -0.20125167019E+01  0.32842836381E+01 -0.14042964170E+02  0.14561647758E+02  0.51100000000E-03 0.  1.
         12    1    3    3    0    0 -0.12353192126E+02 -0.12377163128E+02  0.17562837137E+02  0.24784042671E+02  0.00000000000E+00 0. -1.
</event>
<event>
 7    1  0.7457761E-012  0.5930221E+02  0.7816164E-02  0.1266604E+00
        -11   -1    0    0    0    0  0.00000000000E+00  0.00000000000E+00  0.45593999997E+02  0.45594000000E+02  0.51100000000E-03 0.  1.
         11   -1    0    0    0    0 -0.00000000000E+00 -0.00000000000E+00 -0.45593999997E+02  0.45594000000E+02  0.51100000000E-03 0. -1.
    9900012    2    1    2    0    0  0.26910645703E+00 -0.30914345231E+02  0.78060580972E+01  0.59302208456E+02  0.50000482252E+02 0.  0.
         12    1    1    2    0    0 -0.26910645703E+00  0.30914345231E+02 -0.78060580972E+01  0.31885791544E+02  0.00000000000E+00 0. -1.
         11    1    3    3    0    0 -0.69559673527E+01 -0.16556677930E+02  0.15258518192E+02  0.23565471427E+02  0.51100000000E-03 0. -1.
        -11    1    3    3    0    0  0.11584510448E+01 -0.22841822163E+02 -0.10059766414E+02  0.24985790944E+02  0.51100000000E-03 0.  1.
         12    1    3    3    0    0  0.60666227649E+01  0.84841548619E+01  0.26073063196E+01  0.10750946086E+02  0.00000000000E+00 0. -1.
</event>
<event>
 7    1  0.7457761E-012  0.5930195E+02  0.7816164E-02  0.1266605E+00
        -11   -1    0    0    0    0  0.00000000000E+00  0.00000000000E+00  0.45593999997E+02  0.45594000000E+02  0.51100000000E-03 0.  1.
         11   -1    0    0    0    0 -0.00000000000E+00 -0.00000000000E+00 -0.45593999997E+02  0.45594000000E+02  0.51100000000E-03 0. -1.
    9900012    2    1    2    0    0 -0.10541139439E+02  0.21317687847E+02  0.21240551620E+02  0.59301945542E+02  0.50000002761E+02 0.  0.
         12    1    1    2    0    0  0.10541139439E+02 -0.21317687847E+02 -0.21240551620E+02  0.31886054458E+02  0.00000000000E+00 0. -1.
         11    1    3    3    0    0  0.38914407249E+01 -0.49536102924E+01 -0.62188774522E+01  0.88518926152E+01  0.51100000000E-03 0. -1.
        -11    1    3    3    0    0 -0.40176465700E+01 -0.43312756279E+01  0.14437643699E+02  0.15599582955E+02  0.51100000000E-03 0.  1.
         12    1    3    3    0    0 -0.10414933594E+02  0.30602573767E+02  0.13021785373E+02  0.34850469972E+02  0.00000000000E+00 0. -1.
</event>
<event>
 7    1  0.7457761E-012  0.5930195E+02  0.7816164E-02  0.1266605E+00
        -11   -1    0    0    0    0  0.00000000000E+00  0.00000000000E+00  0.45593999997E+02  0.45594000000E+02  0.51100000000E-03 0.  1.
         11   -1    0    0    0    0 -0.00000000000E+00 -0.00000000000E+00 -0.45593999997E+02  0.45594000000E+02  0.51100000000E-03 0. -1.
    9900012    2    1    2    0    0  0.10543575656E+02  0.24417778358E+02  0.17587649589E+02  0.59301948103E+02  0.50000007432E+02 0.  0.
         12    1    1    2    0    0 -0.10543575656E+02 -0.24417778358E+02 -0.17587649589E+02  0.31886051897E+02  0.00000000000E+00 0. -1.
         11    1    3    3    0    0  0.11720359401E+00  0.28775862777E+02  0.18274971078E+02  0.34088687030E+02  0.51100000000E-03 0. -1.
        -11    1    3    3    0    0  0.15271992412E+02  0.22010368291E+01  0.38200290140E+01  0.15895626357E+02  0.51100000000E-03 0.  1.
         12    1    3    3    0    0 -0.48456203500E+01 -0.65591212488E+01 -0.45073505037E+01  0.93176347157E+01  0.00000000000E+00 0. -1.
</event>
<event>
 7    1  0.7457761E-012  0.5930196E+02  0.7816164E-02  0.1266605E+00
        -11   -1    0    0    0    0  0.00000000000E+00  0.00000000000E+00  0.45593999997E+02  0.45594000000E+02  0.51100000000E-03 0.  1.
         11   -1    0    0    0    0 -0.00000000000E+00 -0.00000000000E+00 -0.45593999997E+02  0.45594000000E+02  0.51100000000E-03 0. -1.
    9900012    2    1    2    0    0  0.83460430794E+01  0.20628394908E+01  0.30705178562E+02  0.59301957091E+02  0.50000023825E+02 0.  0.
         12    1    1    2    0    0 -0.83460430794E+01 -0.20628394908E+01 -0.30705178562E+02  0.31886042909E+02  0.00000000000E+00 0. -1.
         11    1    3    3    0    0  0.11525686641E+02 -0.20457626097E+02  0.21834812454E+02  0.32064231680E+02  0.51100000000E-03 0. -1.
        -11    1    3    3    0    0 -0.18839947206E+01  0.17745071358E+02  0.11888050971E+02  0.21442078952E+02  0.51100000000E-03 0.  1.
         12    1    3    3    0    0 -0.12956488406E+01  0.47753942293E+01 -0.30176848621E+01  0.57956464601E+01  0.00000000000E+00 0. -1.
</event>
<event>
 7    1  0.7457761E-012  0.5930196E+02  0.7816164E-02  0.1266605E+00
        -11   -1    0    0    0    0  0.00000000000E+00  0.00000000000E+00  0.45593999997E+02  0.45594000000E+02  0.51100000000E-03 0.  1.
         11   -1    0    0    0    0 -0.00000000000E+00 -0.00000000000E+00 -0.45593999997E+02  0.45594000000E+02  0.51100000000E-03 0. -1.
    9900012    2    1    2    0    0 -0.14328165071E+02  0.15311910933E+02  0.24020171244E+02  0.59301959837E+02  0.50000028831E+02 0.  0.
         12    1    1    2    0    0  0.14328165071E+02 -0.15311910933E+02 -0.24020171244E+02  0.31886040163E+02  0.00000000000E+00 0. -1.
         11    1    3    3    0    0  0.74241868967E+01  0.37731918984E+01  0.64974608501E+00  0.83533046404E+01  0.51100000000E-03 0. -1.
        -11    1    3    3    0    0 -0.20998338731E+02 -0.47755150010E+01 -0.10617289622E+01  0.21560682773E+02  0.51100000000E-03 0.  1.
        -12    1    3    3    0    0 -0.75401323626E+00  0.16314234036E+02  0.24432154121E+02  0.29387972423E+02  0.00000000000E+00 0.  1.
</event>
<event>
 7    1  0.7457761E-012  0.5930195E+02  0.7816164E-02  0.1266605E+00
        -11   -1    0    0    0    0  0.00000000000E+00  0.00000000000E+00  0.45593999997E+02  0.45594000000E+02  0.51100000000E-03 0.  1.
         11   -1    0    0    0    0 -0.00000000000E+00 -0.00000000000E+00 -0.45593999997E+02  0.45594000000E+02  0.51100000000E-03 0. -1.
    9900012    2    1    2    0    0 -0.24314897387E+02 -0.99450921153E+01 -0.18072101243E+02  0.59301953907E+02  0.50000018017E+02 0.  0.
         12    1    1    2    0    0  0.24314897387E+02  0.99450921153E+01  0.18072101243E+02  0.31886046093E+02  0.00000000000E+00 0. -1.
         11    1    3    3    0    0  0.19441746122E+01 -0.12416728791E+02 -0.53748845601E+01  0.13669102132E+02  0.51100000000E-03 0.  1.
        -11    1    3    3    0    0 -0.24038465123E+02  0.20232646337E+00 -0.23954248672E+02  0.33936628754E+02  0.51100000000E-03 0. -1.
        -12    1    3    3    0    0 -0.22206068758E+01  0.22693102125E+01  0.11257031990E+02  0.11696223021E+02  0.00000000000E+00 0.  1.
</event>
<event>
 7    1  0.7457761E-012  0.5930195E+02  0.7816164E-02  0.1266605E+00
        -11   -1    0    0    0    0  0.00000000000E+00  0.00000000000E+00  0.45593999997E+02  0.45594000000E+02  0.51100000000E-03 0. -1.
         11   -1    0    0    0    0 -0.00000000000E+00 -0.00000000000E+00 -0.45593999997E+02  0.45594000000E+02  0.51100000000E-03 0.  1.
    9900012    2    1    2    0    0 -0.11297184275E+02  0.22087646455E+02 -0.20030717145E+02  0.59301950890E+02  0.50000012516E+02 0.  0.
         12    1    1    2    0    0  0.11297184275E+02 -0.22087646455E+02  0.20030717145E+02  0.31886049110E+02  0.00000000000E+00 0. -1.
         11    1    3    3    0    0 -0.13187775390E+02  0.10083587457E+02  0.13512668582E+02  0.21405335041E+02  0.51100000000E-03 0. -1.
        -11    1    3    3    0    0 -0.52374843711E+01  0.71836173468E+01 -0.19421970097E+02  0.21359974799E+02  0.51100000000E-03 0.  1.
         12    1    3    3    0    0  0.71280754858E+01  0.48204416510E+01 -0.14121415630E+02  0.16536641051E+02  0.00000000000E+00 0. -1.
</event>
<event>
 7    1  0.7457761E-012  0.5930195E+02  0.7816164E-02  0.1266605E+00
        -11   -1    0    0    0    0  0.00000000000E+00  0.00000000000E+00  0.45593999997E+02  0.45594000000E+02  0.51100000000E-03 0.  1.
         11   -1    0    0    0    0 -0.00000000000E+00 -0.00000000000E+00 -0.45593999997E+02  0.45594000000E+02  0.51100000000E-03 0. -1.
    9900012    2    1    2    0    0 -0.15987090874E+02  0.27571680863E+02  0.96724940086E+00  0.59301949263E+02  0.50000009547E+02 0.  0.
         12    1    1    2    0    0  0.15987090874E+02 -0.27571680863E+02 -0.96724940086E+00  0.31886050737E+02  0.00000000000E+00 0. -1.
         11    1    3    3    0    0 -0.13992995859E+02  0.39852304140E+02  0.47279878895E+01  0.42501340545E+02  0.51100000000E-03 0. -1.
        -11    1    3    3    0    0 -0.46069499675E+01 -0.17970194148E+01  0.91324623844E+00  0.50286465111E+01  0.51100000000E-03 0.  1.
         12    1    3    3    0    0  0.26128549523E+01 -0.10483603863E+02 -0.46739847271E+01  0.11771962206E+02  0.00000000000E+00 0. -1.
</event>
<event>
 7    1  0.7457761E-012  0.5930225E+02  0.7816164E-02  0.1266604E+00
        -11   -1    0    0    0    0  0.00000000000E+00  0.00000000000E+00  0.45593999997E+02  0.45594000000E+02  0.51100000000E-03 0.  1.
         11   -1    0    0    0    0 -0.00000000000E+00 -0.00000000000E+00 -0.45593999997E+02  0.45594000000E+02  0.51100000000E-03 0. -1.
    9900012    2    1    2    0    0  0.47337941126E+01 -0.27963038223E+02  0.14572593869E+02  0.59302253883E+02  0.50000565098E+02 0.  0.
         12    1    1    2    0    0 -0.47337941126E+01  0.27963038223E+02 -0.14572593869E+02  0.31885746117E+02  0.00000000000E+00 0. -1.
         11    1    3    3    0    0 -0.44038284383E+01  0.39006206756E+01  0.88947269129E+01  0.10664178997E+02  0.51100000000E-03 0. -1.
        -11    1    3    3    0    0  0.20123003721E+02 -0.25360417973E+02  0.11828858216E+02  0.34467491430E+02  0.51100000000E-03 0.  1.
        -12    1    3    3    0    0 -0.10985381170E+02 -0.65032409263E+01 -0.61509912608E+01  0.14170583456E+02  0.00000000000E+00 0.  1.
</event>
<event>
 7    1  0.7457761E-012  0.5930196E+02  0.7816164E-02  0.1266605E+00
        -11   -1    0    0    0    0  0.00000000000E+00  0.00000000000E+00  0.45593999997E+02  0.45594000000E+02  0.51100000000E-03 0.  1.
         11   -1    0    0    0    0 -0.00000000000E+00 -0.00000000000E+00 -0.45593999997E+02  0.45594000000E+02  0.51100000000E-03 0. -1.
    9900012    2    1    2    0    0 -0.31319610979E+01 -0.61761449820E+01  0.31125002025E+02  0.59301957627E+02  0.50000024801E+02 0.  0.
         12    1    1    2    0    0  0.31319610979E+01  0.61761449820E+01 -0.31125002025E+02  0.31886042373E+02  0.00000000000E+00 0. -1.
         11    1    3    3    0    0  0.26818459730E+01 -0.10097347385E+02  0.38359837396E+02  0.39757085499E+02  0.51100000000E-03 0. -1.
        -11    1    3    3    0    0 -0.11252049696E+02 -0.25719001745E+00 -0.51468009832E+01  0.12375957728E+02  0.51100000000E-03 0.  1.
         12    1    3    3    0    0  0.54382426251E+01  0.41783924205E+01 -0.20880343874E+01  0.71689143998E+01  0.00000000000E+00 0. -1.
</event>
<event>
 7    1  0.7457761E-012  0.5930194E+02  0.7816164E-02  0.1266605E+00
        -11   -1    0    0    0    0  0.00000000000E+00  0.00000000000E+00  0.45593999997E+02  0.45594000000E+02  0.51100000000E-03 0. -1.
         11   -1    0    0    0    0 -0.00000000000E+00 -0.00000000000E+00 -0.45593999997E+02  0.45594000000E+02  0.51100000000E-03 0.  1.
    9900012    2    1    2    0    0  0.18788378059E+02  0.20328348713E+02 -0.15826437112E+02  0.59301936851E+02  0.49999986911E+02 0.  0.
         12    1    1    2    0    0 -0.18788378059E+02 -0.20328348713E+02  0.15826437112E+02  0.31886063149E+02  0.00000000000E+00 0. -1.
         11    1    3    3    0    0  0.11522589586E+02 -0.75904236870E+00  0.96829048527E+01  0.15069998763E+02  0.51100000000E-03 0. -1.
        -11    1    3    3    0    0 -0.92747671171E+01  0.12348889897E+02 -0.18864100832E+02  0.24379718768E+02  0.51100000000E-03 0.  1.
        -12    1    3    3    0    0  0.16540555590E+02  0.87385011854E+01 -0.66452411326E+01  0.19852219320E+02  0.00000000000E+00 0.  1.
</event>
<event>
 7    1  0.7457761E-012  0.5930195E+02  0.7816164E-02  0.1266605E+00
        -11   -1    0    0    0    0  0.00000000000E+00  0.00000000000E+00  0.45593999997E+02  0.45594000000E+02  0.51100000000E-03 0. -1.
         11   -1    0    0    0    0 -0.00000000000E+00 -0.00000000000E+00 -0.45593999997E+02  0.45594000000E+02  0.51100000000E-03 0.  1.
    9900012    2    1    2    0    0  0.50758305575E+00 -0.25945700972E+02  0.18527897166E+02  0.59301952693E+02  0.50000015803E+02 0.  0.
         12    1    1    2    0    0 -0.50758305575E+00  0.25945700972E+02 -0.18527897166E+02  0.31886047307E+02  0.00000000000E+00 0. -1.
         11    1    3    3    0    0  0.10408701733E+01 -0.28099293416E+02  0.19908235408E+02  0.34452743556E+02  0.51100000000E-03 0. -1.
        -11    1    3    3    0    0  0.75397072901E+01  0.10671847509E+02 -0.40720114863E+00  0.13072923480E+02  0.51100000000E-03 0.  1.
        -12    1    3    3    0    0 -0.80729944076E+01 -0.85182550653E+01 -0.97313709311E+00  0.11776285657E+02  0.00000000000E+00 0.  1.
</event>
<event>
 7    1  0.7457761E-012  0.5930194E+02  0.7816164E-02  0.1266605E+00
        -11   -1    0    0    0    0  0.00000000000E+00  0.00000000000E+00  0.45593999997E+02  0.45594000000E+02  0.51100000000E-03 0. -1.
         11   -1    0    0    0    0 -0.00000000000E+00 -0.00000000000E+00 -0.45593999997E+02  0.45594000000E+02  0.51100000000E-03 0.  1.
    9900012    2    1    2    0    0 -0.30701857702E+02 -0.49664829123E+01 -0.70321422842E+01  0.59301936524E+02  0.49999986315E+02 0.  0.
         12    1    1    2    0    0  0.30701857702E+02  0.49664829123E+01  0.70321422842E+01  0.31886063476E+02  0.00000000000E+00 0. -1.
         11    1    3    3    0    0 -0.11072015478E+02  0.46927344405E+01  0.19164516189E+02  0.22624985399E+02  0.51100000000E-03 0. -1.
        -11    1    3    3    0    0 -0.13413249456E+02  0.79113028907E+00 -0.12362544111E+02  0.18258522538E+02  0.51100000000E-03 0.  1.
         12    1    3    3    0    0 -0.62165927679E+01 -0.10450347642E+02 -0.13834114362E+02  0.18418428588E+02  0.00000000000E+00 0. -1.
</event>
<event>
 7    1  0.7457761E-012  0.5930201E+02  0.7816164E-02  0.1266605E+00
        -11   -1    0    0    0    0  0.00000000000E+00  0.00000000000E+00  0.45593999997E+02  0.45594000000E+02  0.51100000000E-03 0.  1.
         11   -1    0    0    0    0 -0.00000000000E+00 -0.00000000000E+00 -0.45593999997E+02  0.45594000000E+02  0.51100000000E-03 0. -1.
    9900012    2    1    2    0    0  0.36316890189E+01  0.42129811836E+01  0.31397100001E+02  0.59302011478E+02  0.50000123012E+02 0.  0.
         12    1    1    2    0    0 -0.36316890189E+01 -0.42129811836E+01 -0.31397100001E+02  0.31885988522E+02  0.00000000000E+00 0. -1.
         11    1    3    3    0    0 -0.17100889417E+02  0.58120599259E+01 -0.18210641997E+01  0.18153146684E+02  0.51100000000E-03 0. -1.
        -11    1    3    3    0    0  0.15222264684E+01 -0.44408682047E+01  0.85507563311E+01  0.97546869723E+01  0.51100000000E-03 0.  1.
         12    1    3    3    0    0  0.19210351968E+02  0.28417894624E+01  0.24667407870E+02  0.31394177821E+02  0.00000000000E+00 0. -1.
</event>
<event>
 7    1  0.7457761E-012  0.5930193E+02  0.7816164E-02  0.1266605E+00
        -11   -1    0    0    0    0  0.00000000000E+00  0.00000000000E+00  0.45593999997E+02  0.45594000000E+02  0.51100000000E-03 0.  1.
         11   -1    0    0    0    0 -0.00000000000E+00 -0.00000000000E+00 -0.45593999997E+02  0.45594000000E+02  0.51100000000E-03 0. -1.
    9900012    2    1    2    0    0 -0.25290937745E+02 -0.39721579614E+01  0.19008205016E+02  0.59301930490E+02  0.49999975310E+02 0.  0.
         12    1    1    2    0    0  0.25290937745E+02  0.39721579614E+01 -0.19008205016E+02  0.31886069510E+02  0.00000000000E+00 0. -1.
         11    1    3    3    0    0 -0.31061519868E+02 -0.16151713689E+02  0.11715036010E+02  0.36917989390E+02  0.51100000000E-03 0.  1.
        -11    1    3    3    0    0  0.40250192963E+01  0.44158487413E+01 -0.49655153309E+01  0.77689666754E+01  0.51100000000E-03 0. -1.
        -12    1    3    3    0    0  0.17455628274E+01  0.77637069868E+01  0.12258684337E+02  0.14614974424E+02  0.00000000000E+00 0.  1.
</event>
<event>
 7    1  0.7457761E-012  0.5930193E+02  0.7816164E-02  0.1266605E+00
        -11   -1    0    0    0    0  0.00000000000E+00  0.00000000000E+00  0.45593999997E+02  0.45594000000E+02  0.51100000000E-03 0.  1.
         11   -1    0    0    0    0 -0.00000000000E+00 -0.00000000000E+00 -0.45593999997E+02  0.45594000000E+02  0.51100000000E-03 0. -1.
    9900012    2    1    2    0    0  0.23087800510E+02 -0.88163517934E+01  0.20148115733E+02  0.59301934722E+02  0.49999983029E+02 0.  0.
         12    1    1    2    0    0 -0.23087800510E+02  0.88163517934E+01 -0.20148115733E+02  0.31886065278E+02  0.00000000000E+00 0. -1.
         11    1    3    3    0    0  0.14908690677E+02 -0.15198970554E+02 -0.56684819530E+01  0.22032009702E+02  0.51100000000E-03 0. -1.
        -11    1    3    3    0    0 -0.52373663566E+01  0.70275135452E+01  0.21408561865E+02  0.23133146660E+02  0.51100000000E-03 0.  1.
        -12    1    3    3    0    0  0.13416476189E+02 -0.64489478502E+00  0.44080358206E+01  0.14136778360E+02  0.00000000000E+00 0.  1.
</event>
<event>
 7    1  0.7457761E-012  0.5930195E+02  0.7816164E-02  0.1266605E+00
        -11   -1    0    0    0    0  0.00000000000E+00  0.00000000000E+00  0.45593999997E+02  0.45594000000E+02  0.51100000000E-03 0.  1.
         11   -1    0    0    0    0 -0.00000000000E+00 -0.00000000000E+00 -0.45593999997E+02  0.45594000000E+02  0.51100000000E-03 0. -1.
    9900012    2    1    2    0    0  0.25379303886E+02  0.15392061897E+02  0.11648845825E+02  0.59301949065E+02  0.50000009187E+02 0.  0.
         12    1    1    2    0    0 -0.25379303886E+02 -0.15392061897E+02 -0.11648845825E+02  0.31886050935E+02  0.00000000000E+00 0. -1.
         11    1    3    3    0    0  0.20638784800E+02 -0.88371232561E+01 -0.77569295238E+01  0.23753402732E+02  0.51100000000E-03 0. -1.
        -11    1    3    3    0    0  0.11817066255E+01  0.24089410984E+01  0.11902889829E+02  0.12201566060E+02  0.51100000000E-03 0.  1.
         12    1    3    3    0    0  0.35588124605E+01  0.21820244055E+02  0.75028855197E+01  0.23346980273E+02  0.00000000000E+00 0. -1.
</event>
<event>
 7    1  0.7457761E-012  0.5930197E+02  0.7816164E-02  0.1266605E+00
        -11   -1    0    0    0    0  0.00000000000E+00  0.00000000000E+00  0.45593999997E+02  0.45594000000E+02  0.51100000000E-03 0.  1.
         11   -1    0    0    0    0 -0.00000000000E+00 -0.00000000000E+00 -0.45593999997E+02  0.45594000000E+02  0.51100000000E-03 0. -1.
    9900012    2    1    2    0    0  0.10807481482E+02 -0.29228005228E+02  0.67558297870E+01  0.59301965727E+02  0.50000039573E+02 0.  0.
         12    1    1    2    0    0 -0.10807481482E+02  0.29228005228E+02 -0.67558297870E+01  0.31886034273E+02  0.00000000000E+00 0. -1.
         11    1    3    3    0    0 -0.89108973587E+01 -0.42645602711E+01 -0.10082248770E+02  0.14115321695E+02  0.51100000000E-03 0. -1.
        -11    1    3    3    0    0  0.10262617145E+02  0.39293368921E+01  0.77826567421E+01  0.13465910489E+02  0.51100000000E-03 0.  1.
        -12    1    3    3    0    0  0.94557616962E+01 -0.28892781849E+02  0.90554218147E+01  0.31720733542E+02  0.00000000000E+00 0.  1.
</event>
<event>
 7    1  0.7457761E-012  0.5930192E+02  0.7816164E-02  0.1266605E+00
        -11   -1    0    0    0    0  0.00000000000E+00  0.00000000000E+00  0.45593999997E+02  0.45594000000E+02  0.51100000000E-03 0. -1.
         11   -1    0    0    0    0 -0.00000000000E+00 -0.00000000000E+00 -0.45593999997E+02  0.45594000000E+02  0.51100000000E-03 0.  1.
    9900012    2    1    2    0    0 -0.12714442808E+02  0.22124222026E+02 -0.19120239146E+02  0.59301924651E+02  0.49999964661E+02 0.  0.
         12    1    1    2    0    0  0.12714442808E+02 -0.22124222026E+02  0.19120239146E+02  0.31886075349E+02  0.00000000000E+00 0. -1.
         11    1    3    3    0    0 -0.18645812142E+02  0.29797793939E+02 -0.15955754937E+02  0.38602602891E+02  0.51100000000E-03 0. -1.
        -11    1    3    3    0    0  0.31601844844E+01 -0.13011914667E+01 -0.10232136221E+02  0.10787792968E+02  0.51100000000E-03 0.  1.
         12    1    3    3    0    0  0.27711848494E+01 -0.63723804466E+01  0.70676520119E+01  0.99115287916E+01  0.00000000000E+00 0. -1.
</event>
<event>
 7    1  0.7457761E-012  0.5930194E+02  0.7816164E-02  0.1266605E+00
        -11   -1    0    0    0    0  0.00000000000E+00  0.00000000000E+00  0.45593999997E+02  0.45594000000E+02  0.51100000000E-03 0.  1.
         11   -1    0    0    0    0 -0.00000000000E+00 -0.00000000000E+00 -0.45593999997E+02  0.45594000000E+02  0.51100000000E-03 0. -1.
    9900012    2    1    2    0    0 -0.31526764819E+02 -0.45703692580E+01 -0.13767313997E+01  0.59301944043E+02  0.50000000028E+02 0.  0.
         12    1    1    2    0    0  0.31526764819E+02  0.45703692580E+01  0.13767313997E+01  0.31886055957E+02  0.00000000000E+00 0. -1.
         11    1    3    3    0    0 -0.20579349238E+02  0.15431526621E+01 -0.14292285015E+02  0.25102994770E+02  0.51100000000E-03 0. -1.
        -11    1    3    3    0    0 -0.17890316887E+02 -0.55192603587E+01  0.17685338381E+02  0.25754550416E+02  0.51100000000E-03 0.  1.
        -12    1    3    3    0    0  0.69429013056E+01 -0.59426156146E+00 -0.47697847664E+01  0.84443988573E+01  0.00000000000E+00 0.  1.
</event>
<event>
 7    1  0.7457761E-012  0.5930194E+02  0.7816164E-02  0.1266605E+00
        -11   -1    0    0    0    0  0.00000000000E+00  0.00000000000E+00  0.45593999997E+02  0.45594000000E+02  0.51100000000E-03 0.  1.
         11   -1    0    0    0    0 -0.00000000000E+00 -0.00000000000E+00 -0.45593999997E+02  0.45594000000E+02  0.51100000000E-03 0. -1.
    9900012    2    1    2    0    0 -0.18134090186E+02  0.16593585148E+02  0.20310795464E+02  0.59301941803E+02  0.49999995944E+02 0.  0.
         12    1    1    2    0    0  0.18134090186E+02 -0.16593585148E+02 -0.20310795464E+02  0.31886058197E+02  0.00000000000E+00 0. -1.
         11    1    3    3    0    0 -0.12554726873E+02 -0.24855109581E+01 -0.28343137902E+01  0.13108480709E+02  0.51100000000E-03 0. -1.
        -11    1    3    3    0    0  0.50899453099E+01  0.84127189392E+01  0.28528271331E+02  0.30175215800E+02  0.51100000000E-03 0.  1.
        -12    1    3    3    0    0 -0.10669308623E+02  0.10666377167E+02 -0.53831620768E+01  0.16018245294E+02  0.00000000000E+00 0.  1.
</event>
<event>
 7    1  0.7457761E-012  0.5930180E+02  0.7816164E-02  0.1266605E+00
        -11   -1    0    0    0    0  0.00000000000E+00  0.00000000000E+00  0.45593999997E+02  0.45594000000E+02  0.51100000000E-03 0.  1.
         11   -1    0    0    0    0 -0.00000000000E+00 -0.00000000000E+00 -0.45593999997E+02  0.45594000000E+02  0.51100000000E-03 0. -1.
    9900012    2    1    2    0    0  0.19250485876E+02  0.23427267862E+02 -0.98646792821E+01  0.59301796348E+02  0.49999730668E+02 0.  0.
         12    1    1    2    0    0 -0.19250485876E+02 -0.23427267862E+02  0.98646792821E+01  0.31886203652E+02  0.00000000000E+00 0. -1.
         11    1    3    3    0    0  0.16412121125E+01 -0.36857726455E+01  0.56844891136E+01  0.69707900511E+01  0.51100000000E-03 0. -1.
        -11    1    3    3    0    0  0.35119310781E+01  0.19531882005E+01 -0.22342973015E+02  0.22701476768E+02  0.51100000000E-03 0.  1.
        -12    1    3    3    0    0  0.14097342686E+02  0.25159852308E+02  0.67938046191E+01  0.29629529529E+02  0.00000000000E+00 0.  1.
</event>
<event>
 7    1  0.7457761E-012  0.5930197E+02  0.7816164E-02  0.1266605E+00
        -11   -1    0    0    0    0  0.00000000000E+00  0.00000000000E+00  0.45593999997E+02  0.45594000000E+02  0.51100000000E-03 0.  1.
         11   -1    0    0    0    0 -0.00000000000E+00 -0.00000000000E+00 -0.45593999997E+02  0.45594000000E+02  0.51100000000E-03 0. -1.
    9900012    2    1    2    0    0 -0.20268729808E+02  0.18499546153E+02  0.16237734194E+02  0.59301974414E+02  0.50000055417E+02 0.  0.
         12    1    1    2    0    0  0.20268729808E+02 -0.18499546153E+02 -0.16237734194E+02  0.31886025586E+02  0.00000000000E+00 0. -1.
         11    1    3    3    0    0 -0.11402183783E+02 -0.14059665120E+02  0.28794218608E-01  0.18102066392E+02  0.51100000000E-03 0. -1.
        -11    1    3    3    0    0 -0.27532831936E+01  0.20887682097E+02  0.18241992099E+02  0.27868371099E+02  0.51100000000E-03 0.  1.
         12    1    3    3    0    0 -0.61132628315E+01  0.11671529176E+02 -0.20330521246E+01  0.13331536922E+02  0.00000000000E+00 0. -1.
</event>
<event>
 7    1  0.7457761E-012  0.5930196E+02  0.7816164E-02  0.1266605E+00
        -11   -1    0    0    0    0  0.00000000000E+00  0.00000000000E+00  0.45593999997E+02  0.45594000000E+02  0.51100000000E-03 0.  1.
         11   -1    0    0    0    0 -0.00000000000E+00 -0.00000000000E+00 -0.45593999997E+02  0.45594000000E+02  0.51100000000E-03 0. -1.
    9900012    2    1    2    0    0  0.27759149168E+02  0.56773481067E+01  0.14625903742E+02  0.59301957531E+02  0.50000024626E+02 0.  0.
         12    1    1    2    0    0 -0.27759149168E+02 -0.56773481067E+01 -0.14625903742E+02  0.31886042469E+02  0.00000000000E+00 0. -1.
         11    1    3    3    0    0  0.34544119520E+02  0.64590299313E+01  0.61453609551E+01  0.35676052509E+02  0.51100000000E-03 0. -1.
        -11    1    3    3    0    0 -0.10201591676E+02 -0.85372819278E+01  0.69685240525E+01  0.15017256180E+02  0.51100000000E-03 0.  1.
        -12    1    3    3    0    0  0.34166213239E+01  0.77556001032E+01  0.15120187347E+01  0.86086488421E+01  0.00000000000E+00 0.  1.
</event>
<event>
 7    1  0.7457761E-012  0.5930201E+02  0.7816164E-02  0.1266605E+00
        -11   -1    0    0    0    0  0.00000000000E+00  0.00000000000E+00  0.45593999997E+02  0.45594000000E+02  0.51100000000E-03 0. -1.
         11   -1    0    0    0    0 -0.00000000000E+00 -0.00000000000E+00 -0.45593999997E+02  0.45594000000E+02  0.51100000000E-03 0.  1.
    9900012    2    1    2    0    0  0.23274947211E+02  0.21771708489E+02  0.99307227584E+00  0.59302005414E+02  0.50000111954E+02 0.  0.
         12    1    1    2    0    0 -0.23274947211E+02 -0.21771708489E+02 -0.99307227584E+00  0.31885994586E+02  0.00000000000E+00 0. -1.
         11    1    3    3    0    0  0.16733451766E+02 -0.94747440228E+01 -0.14199431085E+01  0.19281997329E+02  0.51100000000E-03 0. -1.
        -11    1    3    3    0    0  0.13776390102E+02  0.17247062081E+02 -0.49567929909E+01  0.22623436336E+02  0.51100000000E-03 0.  1.
         12    1    3    3    0    0 -0.72348946569E+01  0.13999390431E+02  0.73698083752E+01  0.17396571749E+02  0.00000000000E+00 0. -1.
</event>
<event>
 7    1  0.7457761E-012  0.5930208E+02  0.7816164E-02  0.1266604E+00
        -11   -1    0    0    0    0  0.00000000000E+00  0.00000000000E+00  0.45593999997E+02  0.45594000000E+02  0.51100000000E-03 0.  1.
         11   -1    0    0    0    0 -0.00000000000E+00 -0.00000000000E+00 -0.45593999997E+02  0.45594000000E+02  0.51100000000E-03 0. -1.
    9900012    2    1    2    0    0 -0.18772354332E+02  0.22809939273E+02  0.12000720018E+02  0.59302079945E+02  0.50000247880E+02 0.  0.
         12    1    1    2    0    0  0.18772354332E+02 -0.22809939273E+02 -0.12000720018E+02  0.31885920055E+02  0.00000000000E+00 0. -1.
         11    1    3    3    0    0  0.62441155621E+01 -0.45770442347E+01 -0.29734199510E+01  0.82933430862E+01  0.51100000000E-03 0. -1.
        -11    1    3    3    0    0 -0.15379971260E+02  0.29023864054E+02 -0.33092816723E+00  0.32848709478E+02  0.51100000000E-03 0.  1.
        -12    1    3    3    0    0 -0.96364986333E+01 -0.16368805463E+01  0.15305068136E+02  0.18160027381E+02  0.00000000000E+00 0.  1.
</event>
<event>
 7    1  0.7457761E-012  0.5930195E+02  0.7816164E-02  0.1266605E+00
        -11   -1    0    0    0    0  0.00000000000E+00  0.00000000000E+00  0.45593999997E+02  0.45594000000E+02  0.51100000000E-03 0.  1.
         11   -1    0    0    0    0 -0.00000000000E+00 -0.00000000000E+00 -0.45593999997E+02  0.45594000000E+02  0.51100000000E-03 0. -1.
    9900012    2    1    2    0    0 -0.91906417080E+01  0.11602074239E+02  0.28242592264E+02  0.59301952276E+02  0.50000015043E+02 0.  0.
         12    1    1    2    0    0  0.91906417080E+01 -0.11602074239E+02 -0.28242592264E+02  0.31886047724E+02  0.00000000000E+00 0. -1.
         11    1    3    3    0    0  0.55589954306E+00 -0.16958410617E+02  0.30377106264E+01  0.17237296803E+02  0.51100000000E-03 0. -1.
        -11    1    3    3    0    0 -0.14023442230E+01  0.19126723681E+02  0.80885557430E+01  0.20814006399E+02  0.51100000000E-03 0.  1.
         12    1    3    3    0    0 -0.83441970281E+01  0.94337611748E+01  0.17116325895E+02  0.21250649074E+02  0.00000000000E+00 0. -1.
</event>
<event>
 7    1  0.7457761E-012  0.5930192E+02  0.7816164E-02  0.1266605E+00
        -11   -1    0    0    0    0  0.00000000000E+00  0.00000000000E+00  0.45593999997E+02  0.45594000000E+02  0.51100000000E-03 0. -1.
         11   -1    0    0    0    0 -0.00000000000E+00 -0.00000000000E+00 -0.45593999997E+02  0.45594000000E+02  0.51100000000E-03 0.  1.
    9900012    2    1    2    0    0  0.23515833951E+02 -0.21292584722E+02 -0.32176614305E+01  0.59301922229E+02  0.49999960243E+02 0.  0.
         12    1    1    2    0    0 -0.23515833951E+02  0.21292584722E+02  0.32176614305E+01  0.31886077771E+02  0.00000000000E+00 0. -1.
         11    1    3    3    0    0 -0.94555379587E+01 -0.13082432113E+02  0.83641284137E+01  0.18180095502E+02  0.51100000000E-03 0. -1.
        -11    1    3    3    0    0  0.14977329120E+02 -0.12470155788E+02 -0.36142815182E+00  0.19492455041E+02  0.51100000000E-03 0.  1.
         12    1    3    3    0    0  0.17994042790E+02  0.42600031791E+01 -0.11220361692E+02  0.21629371686E+02  0.00000000000E+00 0. -1.
</event>
<event>
 7    1  0.7457761E-012  0.5930196E+02  0.7816164E-02  0.1266605E+00
        -11   -1    0    0    0    0  0.00000000000E+00  0.00000000000E+00  0.45593999997E+02  0.45594000000E+02  0.51100000000E-03 0.  1.
         11   -1    0    0    0    0 -0.00000000000E+00 -0.00000000000E+00 -0.45593999997E+02  0.45594000000E+02  0.51100000000E-03 0. -1.
    9900012    2    1    2    0    0  0.24168564543E+02 -0.14566052218E+02  0.14846898988E+02  0.59301956049E+02  0.50000021924E+02 0.  0.
         12    1    1    2    0    0 -0.24168564543E+02  0.14566052218E+02 -0.14846898988E+02  0.31886043951E+02  0.00000000000E+00 0. -1.
         11    1    3    3    0    0  0.25862412058E+02  0.15986375650E+01  0.83555232808E+01  0.27225627065E+02  0.51100000000E-03 0. -1.
        -11    1    3    3    0    0 -0.73333718977E+01  0.17089439471E+01  0.10489565881E+02  0.12912390385E+02  0.51100000000E-03 0.  1.
        -12    1    3    3    0    0  0.56395243826E+01 -0.17873633730E+02 -0.39981901736E+01  0.19163938600E+02  0.00000000000E+00 0.  1.
</event>
<event>
 7    1  0.7457761E-012  0.5930181E+02  0.7816164E-02  0.1266605E+00
        -11   -1    0    0    0    0  0.00000000000E+00  0.00000000000E+00  0.45593999997E+02  0.45594000000E+02  0.51100000000E-03 0.  1.
         11   -1    0    0    0    0 -0.00000000000E+00 -0.00000000000E+00 -0.45593999997E+02  0.45594000000E+02  0.51100000000E-03 0. -1.
    9900012    2    1    2    0    0 -0.18448042959E+02  0.16195344532E+02  0.20349679872E+02  0.59301812639E+02  0.49999760378E+02 0.  0.
         12    1    1    2    0    0  0.18448042959E+02 -0.16195344532E+02 -0.20349679872E+02  0.31886187361E+02  0.00000000000E+00 0. -1.
         11    1    3    3    0    0 -0.73062578763E+01  0.32244115891E+01 -0.11805578453E+02  0.14253066938E+02  0.51100000000E-03 0. -1.
        -11    1    3    3    0    0 -0.15574359144E+02  0.15303584707E+02  0.33384787724E+02  0.39891157156E+02  0.51100000000E-03 0.  1.
        -12    1    3    3    0    0  0.44325740610E+01 -0.23326517641E+01 -0.12295293986E+01  0.51575885451E+01  0.00000000000E+00 0.  1.
</event>
<event>
 7    1  0.7457761E-012  0.5930190E+02  0.7816164E-02  0.1266605E+00
        -11   -1    0    0    0    0  0.00000000000E+00  0.00000000000E+00  0.45593999997E+02  0.45594000000E+02  0.51100000000E-03 0.  1.
         11   -1    0    0    0    0 -0.00000000000E+00 -0.00000000000E+00 -0.45593999997E+02  0.45594000000E+02  0.51100000000E-03 0. -1.
    9900012    2    1    2    0    0 -0.11260722567E+02  0.59935107378E+01  0.29223235184E+02  0.59301897725E+02  0.49999915555E+02 0.  0.
         12    1    1    2    0    0  0.11260722567E+02 -0.59935107378E+01 -0.29223235184E+02  0.31886102275E+02  0.00000000000E+00 0. -1.
         11    1    3    3    0    0 -0.15613514169E+02  0.19571799533E+01 -0.40844727487E+01  0.16257161374E+02  0.51100000000E-03 0. -1.
        -11    1    3    3    0    0  0.37862610944E+01  0.15354599100E+02  0.17396291021E+02  0.23510219653E+02  0.51100000000E-03 0.  1.
        -12    1    3    3    0    0  0.56653050684E+00 -0.11318268315E+02  0.15911416911E+02  0.19534516697E+02  0.00000000000E+00 0.  1.
</event>
<event>
 7    1  0.7457761E-012  0.5930192E+02  0.7816164E-02  0.1266605E+00
        -11   -1    0    0    0    0  0.00000000000E+00  0.00000000000E+00  0.45593999997E+02  0.45594000000E+02  0.51100000000E-03 0.  1.
         11   -1    0    0    0    0 -0.00000000000E+00 -0.00000000000E+00 -0.45593999997E+02  0.45594000000E+02  0.51100000000E-03 0. -1.
    9900012    2    1    2    0    0 -0.80281649196E+01  0.74889837814E+01  0.29936358057E+02  0.59301923983E+02  0.49999963443E+02 0.  0.
         12    1    1    2    0    0  0.80281649196E+01 -0.74889837814E+01 -0.29936358057E+02  0.31886076017E+02  0.00000000000E+00 0. -1.
         11    1    3    3    0    0 -0.83708246853E+01  0.80472845576E+00 -0.34205281875E+01  0.90784529046E+01  0.51100000000E-03 0. -1.
        -11    1    3    3    0    0 -0.11671870222E+02 -0.91677211409E+01  0.24055297872E+02  0.28265474016E+02  0.51100000000E-03 0.  1.
        -12    1    3    3    0    0  0.12014529988E+02  0.15851976467E+02  0.93015883731E+01  0.21957997062E+02  0.00000000000E+00 0.  1.
</event>
<event>
 7    1  0.7457761E-012  0.5930196E+02  0.7816164E-02  0.1266605E+00
        -11   -1    0    0    0    0  0.00000000000E+00  0.00000000000E+00  0.45593999997E+02  0.45594000000E+02  0.51100000000E-03 0.  1.
         11   -1    0    0    0    0 -0.00000000000E+00 -0.00000000000E+00 -0.45593999997E+02  0.45594000000E+02  0.51100000000E-03 0. -1.
    9900012    2    1    2    0    0  0.11570016143E+02  0.28267062970E+02  0.91557275657E+01  0.59301961209E+02  0.50000031335E+02 0.  0.
         12    1    1    2    0    0 -0.11570016143E+02 -0.28267062970E+02 -0.91557275657E+01  0.31886038791E+02  0.00000000000E+00 0. -1.
         11    1    3    3    0    0  0.12943780986E+01  0.22359398512E+02 -0.13425736821E+02  0.26112612391E+02  0.51100000000E-03 0. -1.
        -11    1    3    3    0    0  0.15628804004E+02  0.15442540140E+01  0.20789025592E+02  0.26054324408E+02  0.51100000000E-03 0.  1.
         12    1    3    3    0    0 -0.53531659590E+01  0.43634104446E+01  0.17924387946E+01  0.71350244096E+01  0.00000000000E+00 0. -1.
</event>
<event>
 7    1  0.7457761E-012  0.5930194E+02  0.7816164E-02  0.1266605E+00
        -11   -1    0    0    0    0  0.00000000000E+00  0.00000000000E+00  0.45593999997E+02  0.45594000000E+02  0.51100000000E-03 0.  1.
         11   -1    0    0    0    0 -0.00000000000E+00 -0.00000000000E+00 -0.45593999997E+02  0.45594000000E+02  0.51100000000E-03 0. -1.
    9900012    2    1    2    0    0 -0.25268549395E+02 -0.30578065162E+01  0.19206023063E+02  0.59301935785E+02  0.49999984967E+02 0.  0.
         12    1    1    2    0    0  0.25268549395E+02  0.30578065162E+01 -0.19206023063E+02  0.31886064215E+02  0.00000000000E+00 0. -1.
         11    1    3    3    0    0 -0.84507118489E+01 -0.29599987213E+01 -0.15841315187E+02  0.18196796155E+02  0.51100000000E-03 0. -1.
        -11    1    3    3    0    0 -0.68280109928E+01  0.75670471072E+00  0.29466839259E+01  0.74751108726E+01  0.51100000000E-03 0.  1.
         12    1    3    3    0    0 -0.99898265536E+01 -0.85451250563E+00  0.32100654324E+02  0.33630028758E+02  0.00000000000E+00 0. -1.
</event>
<event>
 7    1  0.7457761E-012  0.5930192E+02  0.7816164E-02  0.1266605E+00
        -11   -1    0    0    0    0  0.00000000000E+00  0.00000000000E+00  0.45593999997E+02  0.45594000000E+02  0.51100000000E-03 0.  1.
         11   -1    0    0    0    0 -0.00000000000E+00 -0.00000000000E+00 -0.45593999997E+02  0.45594000000E+02  0.51100000000E-03 0. -1.
    9900012    2    1    2    0    0  0.89243986787E+01  0.12407874347E+02  0.27984310077E+02  0.59301923915E+02  0.49999963319E+02 0.  0.
         12    1    1    2    0    0 -0.89243986787E+01 -0.12407874347E+02 -0.27984310077E+02  0.31886076085E+02  0.00000000000E+00 0. -1.
         11    1    3    3    0    0  0.11125549703E+02 -0.18106324055E+01  0.47433947319E+01  0.12229310681E+02  0.51100000000E-03 0. -1.
        -11    1    3    3    0    0  0.89759058394E+01  0.23253097693E+02  0.81279651188E+01  0.26217117599E+02  0.51100000000E-03 0.  1.
        -12    1    3    3    0    0 -0.11177056863E+02 -0.90345909412E+01  0.15112950227E+02  0.20855495635E+02  0.00000000000E+00 0.  1.
</event>
<event>
 7    1  0.7457761E-012  0.5930196E+02  0.7816164E-02  0.1266605E+00
        -11   -1    0    0    0    0  0.00000000000E+00  0.00000000000E+00  0.45593999997E+02  0.45594000000E+02  0.51100000000E-03 0.  1.
         11   -1    0    0    0    0 -0.00000000000E+00 -0.00000000000E+00 -0.45593999997E+02  0.45594000000E+02  0.51100000000E-03 0. -1.
    9900012    2    1    2    0    0  0.12664837030E+02  0.10274744377E+02  0.27399836628E+02  0.59301960480E+02  0.50000030005E+02 0.  0.
         12    1    1    2    0    0 -0.12664837030E+02 -0.10274744377E+02 -0.27399836628E+02  0.31886039520E+02  0.00000000000E+00 0. -1.
         11    1    3    3    0    0  0.12248693825E+02 -0.11806955773E+02 -0.48075168137E+00  0.17019571895E+02  0.51100000000E-03 0. -1.
        -11    1    3    3    0    0 -0.85589786507E+01  0.20232066827E+02  0.15528073339E+02  0.26901927542E+02  0.51100000000E-03 0.  1.
         12    1    3    3    0    0  0.89751218558E+01  0.18496333239E+01  0.12352514971E+02  0.15380461042E+02  0.00000000000E+00 0. -1.
</event>
<event>
 7    1  0.7457761E-012  0.5930199E+02  0.7816164E-02  0.1266605E+00
        -11   -1    0    0    0    0  0.00000000000E+00  0.00000000000E+00  0.45593999997E+02  0.45594000000E+02  0.51100000000E-03 0.  1.
         11   -1    0    0    0    0 -0.00000000000E+00 -0.00000000000E+00 -0.45593999997E+02  0.45594000000E+02  0.51100000000E-03 0. -1.
    9900012    2    1    2    0    0  0.38070567595E+01 -0.25641501995E+02 -0.18567098726E+02  0.59301992711E+02  0.50000088786E+02 0.  0.
         12    1    1    2    0    0 -0.38070567595E+01  0.25641501995E+02  0.18567098726E+02  0.31886007289E+02  0.00000000000E+00 0. -1.
         11    1    3    3    0    0  0.21965188412E+02 -0.70595404930E+01  0.14464504135E+01  0.23117068002E+02  0.51100000000E-03 0. -1.
        -11    1    3    3    0    0 -0.58149186621E+01  0.11202003821E+01 -0.81765811681E+01  0.10095771778E+02  0.51100000000E-03 0.  1.
         12    1    3    3    0    0 -0.12343212991E+02 -0.19702161884E+02 -0.11836967971E+02  0.26089152930E+02  0.00000000000E+00 0. -1.
</event>
<event>
 7    1  0.7457761E-012  0.5930194E+02  0.7816164E-02  0.1266605E+00
        -11   -1    0    0    0    0  0.00000000000E+00  0.00000000000E+00  0.45593999997E+02  0.45594000000E+02  0.51100000000E-03 0. -1.
         11   -1    0    0    0    0 -0.00000000000E+00 -0.00000000000E+00 -0.45593999997E+02  0.45594000000E+02  0.51100000000E-03 0.  1.
    9900012    2    1    2    0    0 -0.43404502875E+01 -0.31542581110E+02  0.17166614215E+01  0.59301939438E+02  0.49999991629E+02 0.  0.
         12    1    1    2    0    0  0.43404502875E+01  0.31542581110E+02 -0.17166614215E+01  0.31886060562E+02  0.00000000000E+00 0. -1.
         11    1    3    3    0    0  0.64947446042E+01 -0.27367893230E+02 -0.11641963474E+02  0.30442053169E+02  0.51100000000E-03 0. -1.
        -11    1    3    3    0    0 -0.13481088988E+02 -0.34934177830E+01 -0.12645470897E+01  0.13983662171E+02  0.51100000000E-03 0.  1.
         12    1    3    3    0    0  0.26458940960E+01 -0.68127009654E+00  0.14623171985E+02  0.14876224098E+02  0.00000000000E+00 0. -1.
</event>
<event>
 7    1  0.7457761E-012  0.5930194E+02  0.7816164E-02  0.1266605E+00
        -11   -1    0    0    0    0  0.00000000000E+00  0.00000000000E+00  0.45593999997E+02  0.45594000000E+02  0.51100000000E-03 0.  1.
         11   -1    0    0    0    0 -0.00000000000E+00 -0.00000000000E+00 -0.45593999997E+02  0.45594000000E+02  0.51100000000E-03 0. -1.
    9900012    2    1    2    0    0  0.10813450324E+02 -0.21906539053E+02  0.20491304549E+02  0.59301941553E+02  0.49999995486E+02 0.  0.
         12    1    1    2    0    0 -0.10813450324E+02  0.21906539053E+02 -0.20491304549E+02  0.31886058447E+02  0.00000000000E+00 0. -1.
         11    1    3    3    0    0  0.18540493629E+02 -0.23114441280E+02 -0.33411321071E+01  0.29819296834E+02  0.51100000000E-03 0. -1.
        -11    1    3    3    0    0 -0.54456860716E+01  0.78719806082E+01  0.17792539977E+02  0.20203911863E+02  0.51100000000E-03 0.  1.
         12    1    3    3    0    0 -0.22813572336E+01 -0.66640783810E+01  0.60398966795E+01  0.92787328549E+01  0.00000000000E+00 0. -1.
</event>
<event>
 7    1  0.7457761E-012  0.5930196E+02  0.7816164E-02  0.1266605E+00
        -11   -1    0    0    0    0  0.00000000000E+00  0.00000000000E+00  0.45593999997E+02  0.45594000000E+02  0.51100000000E-03 0. -1.
         11   -1    0    0    0    0 -0.00000000000E+00 -0.00000000000E+00 -0.45593999997E+02  0.45594000000E+02  0.51100000000E-03 0.  1.
    9900012    2    1    2    0    0 -0.26186816673E+02  0.93098534756E+01 -0.15629993588E+02  0.59301961696E+02  0.50000032222E+02 0.  0.
         12    1    1    2    0    0  0.26186816673E+02 -0.93098534756E+01  0.15629993588E+02  0.31886038304E+02  0.00000000000E+00 0. -1.
         11    1    3    3    0    0  0.71709918291E+01 -0.12877618022E+01  0.47263316166E+01  0.86844496132E+01  0.51100000000E-03 0. -1.
        -11    1    3    3    0    0 -0.21000547407E+02  0.12976794755E+02 -0.26835580478E+02  0.36463249627E+02  0.51100000000E-03 0.  1.
        -12    1    3    3    0    0 -0.12357261095E+02 -0.23791794768E+01  0.64792552739E+01  0.14154262456E+02  0.00000000000E+00 0.  1.
</event>
<event>
 7    1  0.7457761E-012  0.5930196E+02  0.7816164E-02  0.1266605E+00
        -11   -1    0    0    0    0  0.00000000000E+00  0.00000000000E+00  0.45593999997E+02  0.45594000000E+02  0.51100000000E-03 0. -1.
         11   -1    0    0    0    0 -0.00000000000E+00 -0.00000000000E+00 -0.45593999997E+02  0.45594000000E+02  0.51100000000E-03 0.  1.
    9900012    2    1    2    0    0 -0.25643158750E+02 -0.11053338830E+02 -0.15393890355E+02  0.59301956812E+02  0.50000023315E+02 0.  0.
         12    1    1    2    0    0  0.25643158750E+02  0.11053338830E+02  0.15393890355E+02  0.31886043188E+02  0.00000000000E+00 0. -1.
         11    1    3    3    0    0 -0.29300510928E+02 -0.14150564013E+01  0.76293021119E+01  0.30310535730E+02  0.51100000000E-03 0. -1.
        -11    1    3    3    0    0  0.33006855254E+01 -0.51996170235E+01 -0.23700141260E+02  0.24487287276E+02  0.51100000000E-03 0.  1.
        -12    1    3    3    0    0  0.35666665233E+00 -0.44386654049E+01  0.67694879321E+00  0.45041338064E+01  0.00000000000E+00 0.  1.
</event>
<event>
 7    1  0.7457761E-012  0.5930193E+02  0.7816164E-02  0.1266605E+00
        -11   -1    0    0    0    0  0.00000000000E+00  0.00000000000E+00  0.45593999997E+02  0.45594000000E+02  0.51100000000E-03 0.  1.
         11   -1    0    0    0    0 -0.00000000000E+00 -0.00000000000E+00 -0.45593999997E+02  0.45594000000E+02  0.51100000000E-03 0. -1.
    9900012    2    1    2    0    0 -0.30526775264E+02 -0.68163741365E+01 -0.61947374911E+01  0.59301925657E+02  0.49999966497E+02 0.  0.
         12    1    1    2    0    0  0.30526775264E+02  0.68163741365E+01  0.61947374911E+01  0.31886074343E+02  0.00000000000E+00 0. -1.
         11    1    3    3    0    0  0.56194829691E+01  0.98439563611E+00  0.74796228371E+00  0.57538744726E+01  0.51100000000E-03 0. -1.
        -11    1    3    3    0    0 -0.35394033496E+02 -0.15682478335E+02  0.51914200947E+01  0.39059295651E+02  0.51100000000E-03 0.  1.
        -12    1    3    3    0    0 -0.75222473703E+00  0.78817085627E+01 -0.12134119869E+02  0.14488755534E+02  0.00000000000E+00 0.  1.
</event>
<event>
 7    1  0.7457761E-012  0.5930197E+02  0.7816164E-02  0.1266605E+00
        -11   -1    0    0    0    0  0.00000000000E+00  0.00000000000E+00  0.45593999997E+02  0.45594000000E+02  0.51100000000E-03 0. -1.
         11   -1    0    0    0    0 -0.00000000000E+00 -0.00000000000E+00 -0.45593999997E+02  0.45594000000E+02  0.51100000000E-03 0.  1.
    9900012    2    1    2    0    0  0.17064342881E+02  0.18862791885E+01 -0.26869480618E+02  0.59301971150E+02  0.50000049464E+02 0.  0.
         12    1    1    2    0    0 -0.17064342881E+02 -0.18862791885E+01  0.26869480618E+02  0.31886028850E+02  0.00000000000E+00 0. -1.
         11    1    3    3    0    0 -0.21784003761E+01 -0.37470755460E+00 -0.39869467929E+01  0.45586817108E+01  0.51100000000E-03 0. -1.
        -11    1    3    3    0    0  0.12254424831E+02 -0.13618231880E+02  0.74682961480E+01  0.19783897874E+02  0.51100000000E-03 0.  1.
        -12    1    3    3    0    0  0.69883184261E+01  0.15879218623E+02 -0.30350829973E+02  0.34959391565E+02  0.00000000000E+00 0.  1.
</event>
<event>
 7    1  0.7457761E-012  0.5930194E+02  0.7816164E-02  0.1266605E+00
        -11   -1    0    0    0    0  0.00000000000E+00  0.00000000000E+00  0.45593999997E+02  0.45594000000E+02  0.51100000000E-03 0.  1.
         11   -1    0    0    0    0 -0.00000000000E+00 -0.00000000000E+00 -0.45593999997E+02  0.45594000000E+02  0.51100000000E-03 0. -1.
    9900012    2    1    2    0    0 -0.28999860625E+02 -0.99404137468E+01 -0.87702361203E+01  0.59301940611E+02  0.49999993770E+02 0.  0.
         12    1    1    2    0    0  0.28999860625E+02  0.99404137468E+01  0.87702361203E+01  0.31886059389E+02  0.00000000000E+00 0. -1.
         11    1    3    3    0    0  0.27997720420E+01 -0.12094770117E+02 -0.17391803205E+02  0.21368130631E+02  0.51100000000E-03 0. -1.
        -11    1    3    3    0    0 -0.29073360369E+02  0.82848311170E+01  0.69496496020E+01  0.31019289799E+02  0.51100000000E-03 0.  1.
        -12    1    3    3    0    0 -0.27262722976E+01 -0.61304747466E+01  0.16719174832E+01  0.69145201807E+01  0.00000000000E+00 0.  1.
</event>
<event>
 7    1  0.7457761E-012  0.5930195E+02  0.7816164E-02  0.1266605E+00
        -11   -1    0    0    0    0  0.00000000000E+00  0.00000000000E+00  0.45593999997E+02  0.45594000000E+02  0.51100000000E-03 0.  1.
         11   -1    0    0    0    0 -0.00000000000E+00 -0.00000000000E+00 -0.45593999997E+02  0.45594000000E+02  0.51100000000E-03 0. -1.
    9900012    2    1    2    0    0 -0.20315681189E+02  0.16020970328E+02  0.18636578850E+02  0.59301945624E+02  0.50000002912E+02 0.  0.
         12    1    1    2    0    0  0.20315681189E+02 -0.16020970328E+02 -0.18636578850E+02  0.31886054376E+02  0.00000000000E+00 0. -1.
         11    1    3    3    0    0 -0.21610042774E+02  0.29630996188E+02  0.66698333453E+01  0.37275683238E+02  0.51100000000E-03 0. -1.
        -11    1    3    3    0    0  0.26986567558E+00 -0.75590775011E+01  0.13699804539E+02  0.15649189270E+02  0.51100000000E-03 0.  1.
        -12    1    3    3    0    0  0.10244959093E+01 -0.60509483590E+01 -0.17330590337E+01  0.63770731160E+01  0.00000000000E+00 0.  1.
</event>
<event>
 7    1  0.7457761E-012  0.5930200E+02  0.7816164E-02  0.1266605E+00
        -11   -1    0    0    0    0  0.00000000000E+00  0.00000000000E+00  0.45593999997E+02  0.45594000000E+02  0.51100000000E-03 0. -1.
         11   -1    0    0    0    0 -0.00000000000E+00 -0.00000000000E+00 -0.45593999997E+02  0.45594000000E+02  0.51100000000E-03 0.  1.
    9900012    2    1    2    0    0 -0.11685902846E+02  0.40903306873E+01 -0.29384112493E+02  0.59301996841E+02  0.50000096318E+02 0.  0.
         12    1    1    2    0    0  0.11685902846E+02 -0.40903306873E+01  0.29384112493E+02  0.31886003159E+02  0.00000000000E+00 0. -1.
         11    1    3    3    0    0 -0.22110934544E+01  0.25157930724E+01  0.24665185149E+01  0.41595508042E+01  0.51100000000E-03 0. -1.
        -11    1    3    3    0    0 -0.73387186390E+01 -0.44185167896E+01 -0.42163509236E+02  0.43024895040E+02  0.51100000000E-03 0.  1.
        -12    1    3    3    0    0 -0.21360907526E+01  0.59930544045E+01  0.10312878228E+02  0.12117550996E+02  0.00000000000E+00 0.  1.
</event>
<event>
 7    1  0.7457761E-012  0.5930196E+02  0.7816164E-02  0.1266605E+00
        -11   -1    0    0    0    0  0.00000000000E+00  0.00000000000E+00  0.45593999997E+02  0.45594000000E+02  0.51100000000E-03 0. -1.
         11   -1    0    0    0    0 -0.00000000000E+00 -0.00000000000E+00 -0.45593999997E+02  0.45594000000E+02  0.51100000000E-03 0.  1.
    9900012    2    1    2    0    0 -0.31508927701E+02 -0.47472026466E+01 -0.11708131629E+01  0.59301964479E+02  0.50000037298E+02 0.  0.
         12    1    1    2    0    0  0.31508927701E+02  0.47472026466E+01  0.11708131629E+01  0.31886035521E+02  0.00000000000E+00 0. -1.
         11    1    3    3    0    0 -0.17619052312E+02  0.34569409320E+01  0.92217228137E+01  0.20184687684E+02  0.51100000000E-03 0. -1.
        -11    1    3    3    0    0 -0.17056739306E+01  0.37539969660E+01 -0.19387145272E+02  0.19820777453E+02  0.51100000000E-03 0.  1.
        -12    1    3    3    0    0 -0.12184201458E+02 -0.11958140545E+02  0.89946092959E+01  0.19296499342E+02  0.00000000000E+00 0.  1.
</event>
<event>
 7    1  0.7457761E-012  0.5930195E+02  0.7816164E-02  0.1266605E+00
        -11   -1    0    0    0    0  0.00000000000E+00  0.00000000000E+00  0.45593999997E+02  0.45594000000E+02  0.51100000000E-03 0.  1.
         11   -1    0    0    0    0 -0.00000000000E+00 -0.00000000000E+00 -0.45593999997E+02  0.45594000000E+02  0.51100000000E-03 0. -1.
    9900012    2    1    2    0    0 -0.14974231804E+02 -0.17641990829E+02  0.21937471839E+02  0.59301950868E+02  0.50000012475E+02 0.  0.
         12    1    1    2    0    0  0.14974231804E+02  0.17641990829E+02 -0.21937471839E+02  0.31886049132E+02  0.00000000000E+00 0. -1.
         11    1    3    3    0    0  0.10026838328E+02 -0.68834130810E+01 -0.84863879606E+01  0.14830294784E+02  0.51100000000E-03 0. -1.
        -11    1    3    3    0    0 -0.20002804772E+02 -0.24668766448E+01  0.11473489692E+02  0.23191348496E+02  0.51100000000E-03 0.  1.
        -12    1    3    3    0    0 -0.49982653609E+01 -0.82917011036E+01  0.18950370108E+02  0.21280307588E+02  0.00000000000E+00 0.  1.
</event>
<event>
 7    1  0.7457761E-012  0.5930198E+02  0.7816164E-02  0.1266605E+00
        -11   -1    0    0    0    0  0.00000000000E+00  0.00000000000E+00  0.45593999997E+02  0.45594000000E+02  0.51100000000E-03 0.  1.
         11   -1    0    0    0    0 -0.00000000000E+00 -0.00000000000E+00 -0.45593999997E+02  0.45594000000E+02  0.51100000000E-03 0. -1.
    9900012    2    1    2    0    0 -0.12694922639E+02  0.95378894878E+01  0.27651147411E+02  0.59301978771E+02  0.50000063362E+02 0.  0.
         12    1    1    2    0    0  0.12694922639E+02 -0.95378894878E+01 -0.27651147411E+02  0.31886021229E+02  0.00000000000E+00 0. -1.
         11    1    3    3    0    0  0.26921717493E+00  0.13213637532E+02 -0.32340736758E+01  0.13606319396E+02  0.51100000000E-03 0. -1.
        -11    1    3    3    0    0  0.48151999246E+01 -0.18008379152E+01  0.26889661305E+02  0.27376688129E+02  0.51100000000E-03 0.  1.
        -12    1    3    3    0    0 -0.17779339738E+02 -0.18749101291E+01  0.39955597817E+01  0.18318971245E+02  0.00000000000E+00 0.  1.
</event>
<event>
 7    1  0.7457761E-012  0.5930191E+02  0.7816164E-02  0.1266605E+00
        -11   -1    0    0    0    0  0.00000000000E+00  0.00000000000E+00  0.45593999997E+02  0.45594000000E+02  0.51100000000E-03 0. -1.
         11   -1    0    0    0    0 -0.00000000000E+00 -0.00000000000E+00 -0.45593999997E+02  0.45594000000E+02  0.51100000000E-03 0.  1.
    9900012    2    1    2    0    0 -0.83839557831E+01 -0.10937821188E+02 -0.28754065314E+02  0.59301907123E+02  0.49999932694E+02 0.  0.
         12    1    1    2    0    0  0.83839557831E+01  0.10937821188E+02  0.28754065314E+02  0.31886092877E+02  0.00000000000E+00 0. -1.
         11    1    3    3    0    0  0.59740962111E+01  0.26548053352E+01 -0.83906354953E+01  0.10636756140E+02  0.51100000000E-03 0. -1.
        -11    1    3    3    0    0 -0.23266343110E+02 -0.23272738048E+01  0.43899432491E+00  0.23386569679E+02  0.51100000000E-03 0.  1.
        -12    1    3    3    0    0  0.89082911159E+01 -0.11265352718E+02 -0.20802424143E+02  0.25278581303E+02  0.00000000000E+00 0.  1.
</event>
<event>
 7    1  0.7457761E-012  0.5930195E+02  0.7816164E-02  0.1266605E+00
        -11   -1    0    0    0    0  0.00000000000E+00  0.00000000000E+00  0.45593999997E+02  0.45594000000E+02  0.51100000000E-03 0. -1.
         11   -1    0    0    0    0 -0.00000000000E+00 -0.00000000000E+00 -0.45593999997E+02  0.45594000000E+02  0.51100000000E-03 0.  1.
    9900012    2    1    2    0    0  0.67703712814E+01 -0.26638924125E+02 -0.16163236037E+02  0.59301946544E+02  0.50000004589E+02 0.  0.
         12    1    1    2    0    0 -0.67703712814E+01  0.26638924125E+02  0.16163236037E+02  0.31886053456E+02  0.00000000000E+00 0. -1.
         11    1    3    3    0    0 -0.43577156630E+01  0.87142523543E+01  0.38752720185E+01  0.10485495380E+02  0.51100000000E-03 0. -1.
        -11    1    3    3    0    0  0.18512043410E+02 -0.29585087022E+02 -0.17827930150E+02  0.39189389112E+02  0.51100000000E-03 0.  1.
         12    1    3    3    0    0 -0.73839564652E+01 -0.57680894571E+01 -0.22105779056E+01  0.96270620514E+01  0.00000000000E+00 0. -1.
</event>
<event>
 7    1  0.7457761E-012  0.5930195E+02  0.7816164E-02  0.1266605E+00
        -11   -1    0    0    0    0  0.00000000000E+00  0.00000000000E+00  0.45593999997E+02  0.45594000000E+02  0.51100000000E-03 0. -1.
         11   -1    0    0    0    0 -0.00000000000E+00 -0.00000000000E+00 -0.45593999997E+02  0.45594000000E+02  0.51100000000E-03 0.  1.
    9900012    2    1    2    0    0  0.55447169251E+01 -0.67886874332E+01 -0.30657625020E+02  0.59301950783E+02  0.50000012319E+02 0.  0.
         12    1    1    2    0    0 -0.55447169251E+01  0.67886874332E+01  0.30657625020E+02  0.31886049217E+02  0.00000000000E+00 0. -1.
         11    1    3    3    0    0  0.69291157088E+01 -0.13887949936E+01 -0.32572612389E+01  0.77814617572E+01  0.51100000000E-03 0. -1.
        -11    1    3    3    0    0 -0.19145276992E+02 -0.13893711822E+02 -0.11998981071E+02  0.26524562321E+02  0.51100000000E-03 0.  1.
        -12    1    3    3    0    0  0.17760878209E+02  0.84938193824E+01 -0.15401382709E+02  0.24995926704E+02  0.00000000000E+00 0.  1.
</event>
<event>
 7    1  0.7457761E-012  0.5930195E+02  0.7816164E-02  0.1266605E+00
        -11   -1    0    0    0    0  0.00000000000E+00  0.00000000000E+00  0.45593999997E+02  0.45594000000E+02  0.51100000000E-03 0. -1.
         11   -1    0    0    0    0 -0.00000000000E+00 -0.00000000000E+00 -0.45593999997E+02  0.45594000000E+02  0.51100000000E-03 0.  1.
    9900012    2    1    2    0    0 -0.24944436004E+02  0.19273547844E+02  0.47985114532E+01  0.59301949034E+02  0.50000009130E+02 0.  0.
         12    1    1    2    0    0  0.24944436004E+02 -0.19273547844E+02 -0.47985114532E+01  0.31886050966E+02  0.00000000000E+00 0. -1.
         11    1    3    3    0    0 -0.24465475234E+02  0.70160511477E+01  0.20714254225E+02  0.32815617936E+02  0.51100000000E-03 0. -1.
        -11    1    3    3    0    0  0.59450444918E+01  0.12108171087E+02 -0.62184692292E+01  0.14853306733E+02  0.51100000000E-03 0.  1.
         12    1    3    3    0    0 -0.64240052613E+01  0.14932560946E+00 -0.96972735425E+01  0.11633024366E+02  0.00000000000E+00 0. -1.
</event>
<event>
 7    1  0.7457761E-012  0.5930195E+02  0.7816164E-02  0.1266605E+00
        -11   -1    0    0    0    0  0.00000000000E+00  0.00000000000E+00  0.45593999997E+02  0.45594000000E+02  0.51100000000E-03 0.  1.
         11   -1    0    0    0    0 -0.00000000000E+00 -0.00000000000E+00 -0.45593999997E+02  0.45594000000E+02  0.51100000000E-03 0. -1.
    9900012    2    1    2    0    0  0.21243088569E+02  0.19470838384E+01  0.23699367372E+02  0.59301953502E+02  0.50000017279E+02 0.  0.
         12    1    1    2    0    0 -0.21243088569E+02 -0.19470838384E+01 -0.23699367372E+02  0.31886046498E+02  0.00000000000E+00 0. -1.
         11    1    3    3    0    0  0.48152936344E+01 -0.34245658209E+01 -0.11510571476E+02  0.12938622794E+02  0.51100000000E-03 0. -1.
        -11    1    3    3    0    0  0.22813353869E+02  0.22810588557E+01  0.28714365437E+02  0.36744620381E+02  0.51100000000E-03 0.  1.
         12    1    3    3    0    0 -0.63855589343E+01  0.30905908036E+01  0.64955734107E+01  0.96187103269E+01  0.00000000000E+00 0. -1.
</event>
<event>
 7    1  0.7457761E-012  0.5930206E+02  0.7816164E-02  0.1266604E+00
        -11   -1    0    0    0    0  0.00000000000E+00  0.00000000000E+00  0.45593999997E+02  0.45594000000E+02  0.51100000000E-03 0.  1.
         11   -1    0    0    0    0 -0.00000000000E+00 -0.00000000000E+00 -0.45593999997E+02  0.45594000000E+02  0.51100000000E-03 0. -1.
    9900012    2    1    2    0    0 -0.61546101250E+01 -0.15200904677E+02  0.27345315408E+02  0.59302062606E+02  0.50000216257E+02 0.  0.
         12    1    1    2    0    0  0.61546101250E+01  0.15200904677E+02 -0.27345315408E+02  0.31885937394E+02  0.00000000000E+00 0. -1.
         11    1    3    3    0    0  0.39516172306E+01 -0.17962292392E+02  0.28384860047E+02  0.33822470443E+02  0.51100000000E-03 0. -1.
        -11    1    3    3    0    0 -0.13799466290E+02  0.10009331293E+01  0.76969329619E+01  0.15832558678E+02  0.51100000000E-03 0.  1.
         12    1    3    3    0    0  0.36932389344E+01  0.17604545859E+01 -0.87364776013E+01  0.96470334846E+01  0.00000000000E+00 0. -1.
</event>
<event>
 7    1  0.7457761E-012  0.5930194E+02  0.7816164E-02  0.1266605E+00
        -11   -1    0    0    0    0  0.00000000000E+00  0.00000000000E+00  0.45593999997E+02  0.45594000000E+02  0.51100000000E-03 0. -1.
         11   -1    0    0    0    0 -0.00000000000E+00 -0.00000000000E+00 -0.45593999997E+02  0.45594000000E+02  0.51100000000E-03 0.  1.
    9900012    2    1    2    0    0 -0.18070989711E+02  0.25990030556E+02 -0.38312093716E+01  0.59301944699E+02  0.50000001224E+02 0.  0.
         12    1    1    2    0    0  0.18070989711E+02 -0.25990030556E+02  0.38312093716E+01  0.31886055301E+02  0.00000000000E+00 0. -1.
         11    1    3    3    0    0  0.16791763197E+02  0.78901784763E+01 -0.98030781505E+00  0.18578999740E+02  0.51100000000E-03 0. -1.
        -11    1    3    3    0    0 -0.81344997499E+01  0.10727063577E+01  0.25130342682E+01  0.85811494921E+01  0.51100000000E-03 0.  1.
         12    1    3    3    0    0 -0.26728253158E+02  0.17027145722E+02 -0.53639358248E+01  0.32141795467E+02  0.00000000000E+00 0. -1.
</event>
<event>
 7    1  0.7457761E-012  0.5930203E+02  0.7816164E-02  0.1266604E+00
        -11   -1    0    0    0    0  0.00000000000E+00  0.00000000000E+00  0.45593999997E+02  0.45594000000E+02  0.51100000000E-03 0. -1.
         11   -1    0    0    0    0 -0.00000000000E+00 -0.00000000000E+00 -0.45593999997E+02  0.45594000000E+02  0.51100000000E-03 0.  1.
    9900012    2    1    2    0    0  0.24753882685E+02 -0.65336297335E+01 -0.19007153191E+02  0.59302032900E+02  0.50000162082E+02 0.  0.
         12    1    1    2    0    0 -0.24753882685E+02  0.65336297335E+01  0.19007153191E+02  0.31885967100E+02  0.00000000000E+00 0. -1.
         11    1    3    3    0    0  0.10702247006E+02  0.29893951608E+01  0.31079648896E+01  0.11538371653E+02  0.51100000000E-03 0. -1.
        -11    1    3    3    0    0  0.16280883267E+02 -0.15488184920E+02 -0.30092181347E+02  0.37556496249E+02  0.51100000000E-03 0.  1.
        -12    1    3    3    0    0 -0.22292475879E+01  0.59651600252E+01  0.79770632662E+01  0.10207164998E+02  0.00000000000E+00 0.  1.
</event>
<event>
 7    1  0.7457761E-012  0.5930195E+02  0.7816164E-02  0.1266605E+00
        -11   -1    0    0    0    0  0.00000000000E+00  0.00000000000E+00  0.45593999997E+02  0.45594000000E+02  0.51100000000E-03 0. -1.
         11   -1    0    0    0    0 -0.00000000000E+00 -0.00000000000E+00 -0.45593999997E+02  0.45594000000E+02  0.51100000000E-03 0.  1.
    9900012    2    1    2    0    0 -0.23238889235E+02 -0.12946330293E+01 -0.21794455283E+02  0.59301947742E+02  0.50000006773E+02 0.  0.
         12    1    1    2    0    0  0.23238889235E+02  0.12946330293E+01  0.21794455283E+02  0.31886052258E+02  0.00000000000E+00 0. -1.
         11    1    3    3    0    0 -0.30865120106E+02 -0.17185237863E+01 -0.84319104344E+01  0.32042254556E+02  0.51100000000E-03 0. -1.
        -11    1    3    3    0    0  0.11176345134E+01 -0.84296589160E+01 -0.13859236136E+02  0.16259971798E+02  0.51100000000E-03 0.  1.
         12    1    3    3    0    0  0.65085963585E+01  0.88535496730E+01  0.49669128714E+00  0.10999721388E+02  0.00000000000E+00 0. -1.
</event>
<event>
 7    1  0.7457761E-012  0.5930205E+02  0.7816164E-02  0.1266604E+00
        -11   -1    0    0    0    0  0.00000000000E+00  0.00000000000E+00  0.45593999997E+02  0.45594000000E+02  0.51100000000E-03 0.  1.
         11   -1    0    0    0    0 -0.00000000000E+00 -0.00000000000E+00 -0.45593999997E+02  0.45594000000E+02  0.51100000000E-03 0. -1.
    9900012    2    1    2    0    0  0.13106066864E+02 -0.26880385831E+02 -0.11062983639E+02  0.59302051087E+02  0.50000195250E+02 0.  0.
         12    1    1    2    0    0 -0.13106066864E+02  0.26880385831E+02  0.11062983639E+02  0.31885948913E+02  0.00000000000E+00 0. -1.
         11    1    3    3    0    0 -0.95962821110E+01 -0.13190092674E+02  0.14247744993E+02  0.21657918016E+02  0.51100000000E-03 0. -1.
        -11    1    3    3    0    0  0.10243807096E+02 -0.70899226466E+01 -0.62562976639E+01  0.13940726224E+02  0.51100000000E-03 0.  1.
         12    1    3    3    0    0  0.12458541879E+02 -0.66003705103E+01 -0.19054430968E+02  0.23703406847E+02  0.00000000000E+00 0. -1.
</event>
<event>
 7    1  0.7457761E-012  0.5930195E+02  0.7816164E-02  0.1266605E+00
        -11   -1    0    0    0    0  0.00000000000E+00  0.00000000000E+00  0.45593999997E+02  0.45594000000E+02  0.51100000000E-03 0.  1.
         11   -1    0    0    0    0 -0.00000000000E+00 -0.00000000000E+00 -0.45593999997E+02  0.45594000000E+02  0.51100000000E-03 0. -1.
    9900012    2    1    2    0    0  0.19477953953E+02 -0.49721680679E+01  0.24750904486E+02  0.59301946334E+02  0.50000004207E+02 0.  0.
         12    1    1    2    0    0 -0.19477953953E+02  0.49721680679E+01 -0.24750904486E+02  0.31886053666E+02  0.00000000000E+00 0. -1.
         11    1    3    3    0    0 -0.52059905621E+01  0.78910646052E+01  0.20410591659E+02  0.22493632220E+02  0.51100000000E-03 0.  1.
        -11    1    3    3    0    0  0.27558823151E+02 -0.15576465377E+02  0.64810595642E+01  0.32312832442E+02  0.51100000000E-03 0. -1.
         12    1    3    3    0    0 -0.28748786357E+01  0.27132327041E+01 -0.21407467365E+01  0.44954816723E+01  0.00000000000E+00 0. -1.
</event>
<event>
 7    1  0.7457761E-012  0.5930197E+02  0.7816164E-02  0.1266605E+00
        -11   -1    0    0    0    0  0.00000000000E+00  0.00000000000E+00  0.45593999997E+02  0.45594000000E+02  0.51100000000E-03 0. -1.
         11   -1    0    0    0    0 -0.00000000000E+00 -0.00000000000E+00 -0.45593999997E+02  0.45594000000E+02  0.51100000000E-03 0.  1.
    9900012    2    1    2    0    0  0.29319720506E+02  0.17634646404E+01  0.12408180310E+02  0.59301972390E+02  0.50000051727E+02 0.  0.
         12    1    1    2    0    0 -0.29319720506E+02 -0.17634646404E+01 -0.12408180310E+02  0.31886027610E+02  0.00000000000E+00 0. -1.
         11    1    3    3    0    0  0.16133512041E+02 -0.11582958017E+02  0.24441672410E+02  0.31493657737E+02  0.51100000000E-03 0. -1.
        -11    1    3    3    0    0  0.10234326996E+02  0.15455713762E+02 -0.39573923455E+01  0.18954722140E+02  0.51100000000E-03 0.  1.
         12    1    3    3    0    0  0.29518814691E+01 -0.21092911042E+01 -0.80760997537E+01  0.88535925139E+01  0.00000000000E+00 0. -1.
</event>
<event>
 7    1  0.7457761E-012  0.5930196E+02  0.7816164E-02  0.1266605E+00
        -11   -1    0    0    0    0  0.00000000000E+00  0.00000000000E+00  0.45593999997E+02  0.45594000000E+02  0.51100000000E-03 0.  1.
         11   -1    0    0    0    0 -0.00000000000E+00 -0.00000000000E+00 -0.45593999997E+02  0.45594000000E+02  0.51100000000E-03 0. -1.
    9900012    2    1    2    0    0 -0.19827989982E+02  0.20464198065E+02  0.14310376705E+02  0.59301961196E+02  0.50000031311E+02 0.  0.
         12    1    1    2    0    0  0.19827989982E+02 -0.20464198065E+02 -0.14310376705E+02  0.31886038804E+02  0.00000000000E+00 0. -1.
         11    1    3    3    0    0 -0.22025819938E+02  0.12665955850E+02 -0.11952474764E+02  0.28078903732E+02  0.51100000000E-03 0. -1.
        -11    1    3    3    0    0 -0.99067295013E+00  0.96977111007E+01  0.80688893098E+01  0.12654406681E+02  0.51100000000E-03 0.  1.
         12    1    3    3    0    0  0.31885029070E+01 -0.18994688854E+01  0.18193962160E+02  0.18568650783E+02  0.00000000000E+00 0. -1.
</event>
<event>
 7    1  0.7457761E-012  0.5930195E+02  0.7816164E-02  0.1266605E+00
        -11   -1    0    0    0    0  0.00000000000E+00  0.00000000000E+00  0.45593999997E+02  0.45594000000E+02  0.51100000000E-03 0.  1.
         11   -1    0    0    0    0 -0.00000000000E+00 -0.00000000000E+00 -0.45593999997E+02  0.45594000000E+02  0.51100000000E-03 0. -1.
    9900012    2    1    2    0    0  0.11948148853E+02  0.27988856989E+01  0.29430057726E+02  0.59301947878E+02  0.50000007023E+02 0.  0.
         12    1    1    2    0    0 -0.11948148853E+02 -0.27988856989E+01 -0.29430057726E+02  0.31886052122E+02  0.00000000000E+00 0. -1.
         11    1    3    3    0    0  0.22352192056E+00 -0.19699078057E+02  0.55908666908E+01  0.20478316068E+02  0.51100000000E-03 0. -1.
        -11    1    3    3    0    0  0.29233674183E+01  0.21219693362E+02  0.19328450738E+02  0.28851524598E+02  0.51100000000E-03 0.  1.
         12    1    3    3    0    0  0.88012595138E+01  0.12782703948E+01  0.45107402966E+01  0.99721072124E+01  0.00000000000E+00 0. -1.
</event>
<event>
 7    1  0.7457761E-012  0.5930193E+02  0.7816164E-02  0.1266605E+00
        -11   -1    0    0    0    0  0.00000000000E+00  0.00000000000E+00  0.45593999997E+02  0.45594000000E+02  0.51100000000E-03 0.  1.
         11   -1    0    0    0    0 -0.00000000000E+00 -0.00000000000E+00 -0.45593999997E+02  0.45594000000E+02  0.51100000000E-03 0. -1.
    9900012    2    1    2    0    0 -0.86248518117E+01  0.53454980853E+00  0.30692793553E+02  0.59301931125E+02  0.49999976468E+02 0.  0.
         12    1    1    2    0    0  0.86248518117E+01 -0.53454980853E+00 -0.30692793553E+02  0.31886068875E+02  0.00000000000E+00 0. -1.
         11    1    3    3    0    0 -0.44466479470E+01  0.94773647178E+01 -0.14244130095E+01  0.10565134767E+02  0.51100000000E-03 0. -1.
        -11    1    3    3    0    0 -0.11034282734E+02 -0.10398056874E+02  0.37139018932E+02  0.40114607186E+02  0.51100000000E-03 0.  1.
        -12    1    3    3    0    0  0.68560788692E+01  0.14552419649E+01 -0.50218123697E+01  0.86221891717E+01  0.00000000000E+00 0.  1.
</event>
<event>
 7    1  0.7457761E-012  0.5930193E+02  0.7816164E-02  0.1266605E+00
        -11   -1    0    0    0    0  0.00000000000E+00  0.00000000000E+00  0.45593999997E+02  0.45594000000E+02  0.51100000000E-03 0.  1.
         11   -1    0    0    0    0 -0.00000000000E+00 -0.00000000000E+00 -0.45593999997E+02  0.45594000000E+02  0.51100000000E-03 0. -1.
    9900012    2    1    2    0    0  0.27203145812E+02 -0.14787171168E+02  0.76190486279E+01  0.59301929762E+02  0.49999973983E+02 0.  0.
         12    1    1    2    0    0 -0.27203145812E+02  0.14787171168E+02 -0.76190486279E+01  0.31886070238E+02  0.00000000000E+00 0. -1.
         11    1    3    3    0    0  0.11513015014E+02 -0.16328172757E+02  0.19019663827E+01  0.20069285405E+02  0.51100000000E-03 0. -1.
        -11    1    3    3    0    0  0.20763212649E+01  0.16851242512E+02 -0.24940869454E+01  0.17160884422E+02  0.51100000000E-03 0.  1.
        -12    1    3    3    0    0  0.13613809533E+02 -0.15310240923E+02  0.82111691905E+01  0.22071759934E+02  0.00000000000E+00 0.  1.
</event>
<event>
 7    1  0.7457761E-012  0.5930178E+02  0.7816164E-02  0.1266605E+00
        -11   -1    0    0    0    0  0.00000000000E+00  0.00000000000E+00  0.45593999997E+02  0.45594000000E+02  0.51100000000E-03 0.  1.
         11   -1    0    0    0    0 -0.00000000000E+00 -0.00000000000E+00 -0.45593999997E+02  0.45594000000E+02  0.51100000000E-03 0. -1.
    9900012    2    1    2    0    0  0.74530140151E+01  0.27303986672E+02  0.14685916373E+02  0.59301776551E+02  0.49999694562E+02 0.  0.
         12    1    1    2    0    0 -0.74530140151E+01 -0.27303986672E+02 -0.14685916373E+02  0.31886223449E+02  0.00000000000E+00 0. -1.
         11    1    3    3    0    0  0.17476409355E+02 -0.47587120333E+00  0.12841105667E+02  0.21692056896E+02  0.51100000000E-03 0. -1.
        -11    1    3    3    0    0 -0.12996147483E+00  0.24856090101E+02  0.73446561615E+01  0.25918836384E+02  0.51100000000E-03 0.  1.
         12    1    3    3    0    0 -0.98934338652E+01  0.29237677741E+01 -0.54998454553E+01  0.11690883272E+02  0.00000000000E+00 0. -1.
</event>
<event>
 7    1  0.7457761E-012  0.5930195E+02  0.7816164E-02  0.1266605E+00
        -11   -1    0    0    0    0  0.00000000000E+00  0.00000000000E+00  0.45593999997E+02  0.45594000000E+02  0.51100000000E-03 0.  1.
         11   -1    0    0    0    0 -0.00000000000E+00 -0.00000000000E+00 -0.45593999997E+02  0.45594000000E+02  0.51100000000E-03 0. -1.
    9900012    2    1    2    0    0 -0.11527862514E+02  0.73315272593E+01  0.28811062616E+02  0.59301949207E+02  0.50000009446E+02 0.  0.
         12    1    1    2    0    0  0.11527862514E+02 -0.73315272593E+01 -0.28811062616E+02  0.31886050793E+02  0.00000000000E+00 0. -1.
         11    1    3    3    0    0 -0.18946095452E+00  0.15585297603E+02  0.12261152439E+01  0.15634601232E+02  0.51100000000E-03 0. -1.
        -11    1    3    3    0    0 -0.21507179050E+01 -0.43345288895E+01  0.32272645168E+02  0.32633377922E+02  0.51100000000E-03 0.  1.
         12    1    3    3    0    0 -0.91876836546E+01 -0.39192414541E+01 -0.46876977956E+01  0.11033970053E+02  0.00000000000E+00 0. -1.
</event>
<event>
 7    1  0.7457761E-012  0.5930199E+02  0.7816164E-02  0.1266605E+00
        -11   -1    0    0    0    0  0.00000000000E+00  0.00000000000E+00  0.45593999997E+02  0.45594000000E+02  0.51100000000E-03 0.  1.
         11   -1    0    0    0    0 -0.00000000000E+00 -0.00000000000E+00 -0.45593999997E+02  0.45594000000E+02  0.51100000000E-03 0. -1.
    9900012    2    1    2    0    0 -0.24896750597E+02  0.12189935085E+02  0.15756738304E+02  0.59301991946E+02  0.50000087391E+02 0.  0.
         12    1    1    2    0    0  0.24896750597E+02 -0.12189935085E+02 -0.15756738304E+02  0.31886008054E+02  0.00000000000E+00 0. -1.
         11    1    3    3    0    0 -0.43038750440E+01 -0.60540336667E+01 -0.11272118098E+02  0.13499455941E+02  0.51100000000E-03 0. -1.
        -11    1    3    3    0    0 -0.25104129554E+02  0.12305789043E+02  0.15209895951E+02  0.31827514822E+02  0.51100000000E-03 0.  1.
         12    1    3    3    0    0  0.45112540018E+01  0.59381797083E+01  0.11818960451E+02  0.13975021182E+02  0.00000000000E+00 0. -1.
</event>
<event>
 7    1  0.7457761E-012  0.5930195E+02  0.7816164E-02  0.1266605E+00
        -11   -1    0    0    0    0  0.00000000000E+00  0.00000000000E+00  0.45593999997E+02  0.45594000000E+02  0.51100000000E-03 0.  1.
         11   -1    0    0    0    0 -0.00000000000E+00 -0.00000000000E+00 -0.45593999997E+02  0.45594000000E+02  0.51100000000E-03 0. -1.
    9900012    2    1    2    0    0  0.19601872769E+02 -0.50814059688E+01  0.24630594519E+02  0.59301948363E+02  0.50000007906E+02 0.  0.
         12    1    1    2    0    0 -0.19601872769E+02  0.50814059688E+01 -0.24630594519E+02  0.31886051637E+02  0.00000000000E+00 0. -1.
         11    1    3    3    0    0  0.17928451984E+01  0.11979237283E+02  0.20954498926E+02  0.24203459367E+02  0.51100000000E-03 0. -1.
        -11    1    3    3    0    0  0.13266528964E+02 -0.17670309421E+02  0.12331669204E+02  0.25304361115E+02  0.51100000000E-03 0.  1.
         12    1    3    3    0    0  0.45424986058E+01  0.60966616898E+00 -0.86555736113E+01  0.97941278816E+01  0.00000000000E+00 0. -1.
</event>
<event>
 7    1  0.7457761E-012  0.5930191E+02  0.7816164E-02  0.1266605E+00
        -11   -1    0    0    0    0  0.00000000000E+00  0.00000000000E+00  0.45593999997E+02  0.45594000000E+02  0.51100000000E-03 0.  1.
         11   -1    0    0    0    0 -0.00000000000E+00 -0.00000000000E+00 -0.45593999997E+02  0.45594000000E+02  0.51100000000E-03 0. -1.
    9900012    2    1    2    0    0 -0.15261323293E+02 -0.16170028798E+02  0.22854861154E+02  0.59301913718E+02  0.49999944723E+02 0.  0.
         12    1    1    2    0    0  0.15261323293E+02  0.16170028798E+02 -0.22854861154E+02  0.31886086282E+02  0.00000000000E+00 0. -1.
         11    1    3    3    0    0  0.80514790292E+01 -0.29663043280E+01 -0.99149931220E+01  0.13112298227E+02  0.51100000000E-03 0. -1.
        -11    1    3    3    0    0 -0.22278368118E+02 -0.93427728401E+01  0.16062176874E+02  0.29010457020E+02  0.51100000000E-03 0.  1.
         12    1    3    3    0    0 -0.10344342047E+01 -0.38609516302E+01  0.16707677402E+02  0.17179158471E+02  0.00000000000E+00 0. -1.
</event>
<event>
 7    1  0.7457761E-012  0.5930194E+02  0.7816164E-02  0.1266605E+00
        -11   -1    0    0    0    0  0.00000000000E+00  0.00000000000E+00  0.45593999997E+02  0.45594000000E+02  0.51100000000E-03 0.  1.
         11   -1    0    0    0    0 -0.00000000000E+00 -0.00000000000E+00 -0.45593999997E+02  0.45594000000E+02  0.51100000000E-03 0. -1.
    9900012    2    1    2    0    0 -0.24572900317E+02 -0.63885112325E+01  0.19289377646E+02  0.59301943553E+02  0.49999999134E+02 0.  0.
         12    1    1    2    0    0  0.24572900317E+02  0.63885112325E+01 -0.19289377646E+02  0.31886056447E+02  0.00000000000E+00 0. -1.
         11    1    3    3    0    0  0.44909811516E+01  0.85416636065E+01  0.17306216004E+01  0.98042837707E+01  0.51100000000E-03 0. -1.
        -11    1    3    3    0    0 -0.11991422279E+02 -0.16124224206E+02  0.23919364382E+02  0.31239731228E+02  0.51100000000E-03 0.  1.
        -12    1    3    3    0    0 -0.17072459190E+02  0.11940493670E+01 -0.63606083364E+01  0.18257928554E+02  0.00000000000E+00 0.  1.
</event>
<event>
 7    1  0.7457761E-012  0.5930197E+02  0.7816164E-02  0.1266605E+00
        -11   -1    0    0    0    0  0.00000000000E+00  0.00000000000E+00  0.45593999997E+02  0.45594000000E+02  0.51100000000E-03 0. -1.
         11   -1    0    0    0    0 -0.00000000000E+00 -0.00000000000E+00 -0.45593999997E+02  0.45594000000E+02  0.51100000000E-03 0.  1.
    9900012    2    1    2    0    0  0.15954326379E+02 -0.26650295496E+02  0.72069292973E+01  0.59301974689E+02  0.50000055920E+02 0.  0.
         12    1    1    2    0    0 -0.15954326379E+02  0.26650295496E+02 -0.72069292973E+01  0.31886025311E+02  0.00000000000E+00 0. -1.
         11    1    3    3    0    0 -0.57112117772E+01  0.41959734931E+01 -0.21456832834E+01  0.74045992823E+01  0.51100000000E-03 0. -1.
        -11    1    3    3    0    0  0.67704696447E+01 -0.34710294905E+02  0.39316029494E+01  0.35582317710E+02  0.51100000000E-03 0.  1.
        -12    1    3    3    0    0  0.14895068511E+02  0.38640259164E+01  0.54210096312E+01  0.16315057697E+02  0.00000000000E+00 0.  1.
</event>
<event>
 7    1  0.7457761E-012  0.5930194E+02  0.7816164E-02  0.1266605E+00
        -11   -1    0    0    0    0  0.00000000000E+00  0.00000000000E+00  0.45593999997E+02  0.45594000000E+02  0.51100000000E-03 0.  1.
         11   -1    0    0    0    0 -0.00000000000E+00 -0.00000000000E+00 -0.45593999997E+02  0.45594000000E+02  0.51100000000E-03 0. -1.
    9900012    2    1    2    0    0 -0.21521027066E+02 -0.13027737179E+02  0.19591945449E+02  0.59301939277E+02  0.49999991335E+02 0.  0.
         12    1    1    2    0    0  0.21521027066E+02  0.13027737179E+02 -0.19591945449E+02  0.31886060723E+02  0.00000000000E+00 0. -1.
         11    1    3    3    0    0 -0.20957302210E+02 -0.29419384497E+01 -0.77062976066E+00  0.21176812514E+02  0.51100000000E-03 0. -1.
        -11    1    3    3    0    0 -0.70319408848E+01  0.31350685625E+01  0.22007298284E+02  0.23315188730E+02  0.51100000000E-03 0.  1.
        -12    1    3    3    0    0  0.64682160295E+01 -0.13220867292E+02 -0.16447230736E+01  0.14809938033E+02  0.00000000000E+00 0.  1.
</event>
<event>
 7    1  0.7457761E-012  0.5930193E+02  0.7816164E-02  0.1266605E+00
        -11   -1    0    0    0    0  0.00000000000E+00  0.00000000000E+00  0.45593999997E+02  0.45594000000E+02  0.51100000000E-03 0.  1.
         11   -1    0    0    0    0 -0.00000000000E+00 -0.00000000000E+00 -0.45593999997E+02  0.45594000000E+02  0.51100000000E-03 0. -1.
    9900012    2    1    2    0    0  0.20265252450E+02  0.21830584591E+02 -0.11378337400E+02  0.59301930276E+02  0.49999974920E+02 0.  0.
         12    1    1    2    0    0 -0.20265252450E+02 -0.21830584591E+02  0.11378337400E+02  0.31886069724E+02  0.00000000000E+00 0. -1.
         11    1    3    3    0    0 -0.34761623327E+01  0.54173429239E+01 -0.67081924498E-01  0.64370652601E+01  0.51100000000E-03 0. -1.
        -11    1    3    3    0    0  0.35931657622E+02  0.12559132114E+02 -0.12403566676E+02  0.40033289716E+02  0.51100000000E-03 0.  1.
        -12    1    3    3    0    0 -0.12190242839E+02  0.38541095530E+01  0.10923112000E+01  0.12831575300E+02  0.00000000000E+00 0.  1.
</event>
<event>
 7    1  0.7457761E-012  0.5930191E+02  0.7816164E-02  0.1266605E+00
        -11   -1    0    0    0    0  0.00000000000E+00  0.00000000000E+00  0.45593999997E+02  0.45594000000E+02  0.51100000000E-03 0.  1.
         11   -1    0    0    0    0 -0.00000000000E+00 -0.00000000000E+00 -0.45593999997E+02  0.45594000000E+02  0.51100000000E-03 0. -1.
    9900012    2    1    2    0    0 -0.10576233648E+02  0.15368772657E+02  0.25858588951E+02  0.59301913478E+02  0.49999944284E+02 0.  0.
         12    1    1    2    0    0  0.10576233648E+02 -0.15368772657E+02 -0.25858588951E+02  0.31886086522E+02  0.00000000000E+00 0. -1.
         11    1    3    3    0    0 -0.53939316507E+01  0.17929263437E+02  0.10726210209E+02  0.21577872271E+02  0.51100000000E-03 0. -1.
        -11    1    3    3    0    0  0.18351911312E+01 -0.17608867496E+02  0.10057818918E+02  0.20361725433E+02  0.51100000000E-03 0.  1.
        -12    1    3    3    0    0 -0.70174931285E+01  0.15048376716E+02  0.50745598249E+01  0.17362315773E+02  0.00000000000E+00 0.  1.
</event>
<event>
 7    1  0.7457761E-012  0.5930195E+02  0.7816164E-02  0.1266605E+00
        -11   -1    0    0    0    0  0.00000000000E+00  0.00000000000E+00  0.45593999997E+02  0.45594000000E+02  0.51100000000E-03 0.  1.
         11   -1    0    0    0    0 -0.00000000000E+00 -0.00000000000E+00 -0.45593999997E+02  0.45594000000E+02  0.51100000000E-03 0. -1.
    9900012    2    1    2    0    0 -0.31736186183E+02  0.14385444995E+01  0.27322161273E+01  0.59301954013E+02  0.50000018212E+02 0.  0.
         12    1    1    2    0    0  0.31736186183E+02 -0.14385444995E+01 -0.27322161273E+01  0.31886045987E+02  0.00000000000E+00 0. -1.
         11    1    3    3    0    0 -0.11762623749E+02 -0.20921822922E+02  0.47977584028E+01  0.24476529121E+02  0.51100000000E-03 0. -1.
        -11    1    3    3    0    0 -0.11817426668E+02  0.49716900243E+01 -0.75149837948E+01  0.14860829601E+02  0.51100000000E-03 0.  1.
         12    1    3    3    0    0 -0.81561357659E+01  0.17388677398E+02  0.54494415192E+01  0.19964595291E+02  0.00000000000E+00 0. -1.
</event>
<event>
 7    1  0.7457761E-012  0.5930195E+02  0.7816164E-02  0.1266605E+00
        -11   -1    0    0    0    0  0.00000000000E+00  0.00000000000E+00  0.45593999997E+02  0.45594000000E+02  0.51100000000E-03 0.  1.
         11   -1    0    0    0    0 -0.00000000000E+00 -0.00000000000E+00 -0.45593999997E+02  0.45594000000E+02  0.51100000000E-03 0. -1.
    9900012    2    1    2    0    0  0.28912315988E+02  0.10538669567E+02  0.83507148965E+01  0.59301952717E+02  0.50000015847E+02 0.  0.
         12    1    1    2    0    0 -0.28912315988E+02 -0.10538669567E+02 -0.83507148965E+01  0.31886047283E+02  0.00000000000E+00 0. -1.
         11    1    3    3    0    0  0.17458894296E+00 -0.65822747870E+01  0.17930233162E+02  0.19101049295E+02  0.51100000000E-03 0. -1.
        -11    1    3    3    0    0  0.26137010131E+02  0.11690847836E+02  0.29686841398E+00  0.28634024391E+02  0.51100000000E-03 0.  1.
         12    1    3    3    0    0  0.26007169142E+01  0.54300965178E+01 -0.98763866797E+01  0.11566879031E+02  0.00000000000E+00 0. -1.
</event>
<event>
 7    1  0.7457761E-012  0.5930194E+02  0.7816164E-02  0.1266605E+00
        -11   -1    0    0    0    0  0.00000000000E+00  0.00000000000E+00  0.45593999997E+02  0.45594000000E+02  0.51100000000E-03 0. -1.
         11   -1    0    0    0    0 -0.00000000000E+00 -0.00000000000E+00 -0.45593999997E+02  0.45594000000E+02  0.51100000000E-03 0.  1.
    9900012    2    1    2    0    0 -0.16678866413E+02  0.20342699434E+02 -0.18019736060E+02  0.59301938896E+02  0.49999990640E+02 0.  0.
         12    1    1    2    0    0  0.16678866413E+02 -0.20342699434E+02  0.18019736060E+02  0.31886061104E+02  0.00000000000E+00 0. -1.
         11    1    3    3    0    0 -0.26280323178E+02  0.10209686108E+02 -0.18455929267E+01  0.28254190667E+02  0.51100000000E-03 0. -1.
        -11    1    3    3    0    0  0.25165543539E+01  0.91280210431E+01 -0.20573457828E+02  0.22647758857E+02  0.51100000000E-03 0.  1.
         12    1    3    3    0    0  0.70849024108E+01  0.10049922828E+01  0.43993146946E+01  0.83999893715E+01  0.00000000000E+00 0. -1.
</event>
<event>
 7    1  0.7457761E-012  0.5930191E+02  0.7816164E-02  0.1266605E+00
        -11   -1    0    0    0    0  0.00000000000E+00  0.00000000000E+00  0.45593999997E+02  0.45594000000E+02  0.51100000000E-03 0.  1.
         11   -1    0    0    0    0 -0.00000000000E+00 -0.00000000000E+00 -0.45593999997E+02  0.45594000000E+02  0.51100000000E-03 0. -1.
    9900012    2    1    2    0    0  0.64612559100E+00  0.30951301466E+02 -0.76369078393E+01  0.59301907388E+02  0.49999933178E+02 0.  0.
         12    1    1    2    0    0 -0.64612559100E+00 -0.30951301466E+02  0.76369078393E+01  0.31886092612E+02  0.00000000000E+00 0. -1.
         11    1    3    3    0    0  0.13873053913E+02  0.17045940143E+02 -0.13234985004E+02  0.25655224196E+02  0.51100000000E-03 0. -1.
        -11    1    3    3    0    0 -0.11117253332E+02  0.21969997005E+02  0.24824478333E+01  0.24747457194E+02  0.51100000000E-03 0.  1.
         12    1    3    3    0    0 -0.21096749901E+01 -0.80646356822E+01  0.31156293314E+01  0.88992259990E+01  0.00000000000E+00 0. -1.
</event>
<event>
 7    1  0.7457761E-012  0.5930195E+02  0.7816164E-02  0.1266605E+00
        -11   -1    0    0    0    0  0.00000000000E+00  0.00000000000E+00  0.45593999997E+02  0.45594000000E+02  0.51100000000E-03 0.  1.
         11   -1    0    0    0    0 -0.00000000000E+00 -0.00000000000E+00 -0.45593999997E+02  0.45594000000E+02  0.51100000000E-03 0. -1.
    9900012    2    1    2    0    0  0.13793986921E+02  0.28689266761E+02 -0.18363028819E+01  0.59301951158E+02  0.50000013005E+02 0.  0.
         12    1    1    2    0    0 -0.13793986921E+02 -0.28689266761E+02  0.18363028819E+01  0.31886048842E+02  0.00000000000E+00 0. -1.
         11    1    3    3    0    0 -0.13437142313E+02 -0.30385736424E+01  0.50369524127E+01  0.14668354141E+02  0.51100000000E-03 0. -1.
        -11    1    3    3    0    0  0.23235607195E+02  0.18163207741E+02 -0.15802195202E+01  0.29534600914E+02  0.51100000000E-03 0.  1.
        -12    1    3    3    0    0  0.39955220401E+01  0.13564632662E+02 -0.52930357744E+01  0.15098996103E+02  0.00000000000E+00 0.  1.
</event>
<event>
 7    1  0.7457761E-012  0.5930191E+02  0.7816164E-02  0.1266605E+00
        -11   -1    0    0    0    0  0.00000000000E+00  0.00000000000E+00  0.45593999997E+02  0.45594000000E+02  0.51100000000E-03 0. -1.
         11   -1    0    0    0    0 -0.00000000000E+00 -0.00000000000E+00 -0.45593999997E+02  0.45594000000E+02  0.51100000000E-03 0.  1.
    9900012    2    1    2    0    0 -0.17880819181E+02  0.37440571124E+01 -0.26133910700E+02  0.59301906688E+02  0.49999931901E+02 0.  0.
         12    1    1    2    0    0  0.17880819181E+02 -0.37440571124E+01  0.26133910700E+02  0.31886093312E+02  0.00000000000E+00 0. -1.
         11    1    3    3    0    0 -0.67262562202E+01  0.45565177428E+01  0.31464912971E+01  0.87123351877E+01  0.51100000000E-03 0. -1.
        -11    1    3    3    0    0  0.75671734647E+01  0.82013330372E+01 -0.27567564690E+02  0.29740453948E+02  0.51100000000E-03 0.  1.
        -12    1    3    3    0    0 -0.18721736426E+02 -0.90137936676E+01 -0.17128373071E+01  0.20849117552E+02  0.00000000000E+00 0.  1.
</event>
<event>
 7    1  0.7457761E-012  0.5930196E+02  0.7816164E-02  0.1266605E+00
        -11   -1    0    0    0    0  0.00000000000E+00  0.00000000000E+00  0.45593999997E+02  0.45594000000E+02  0.51100000000E-03 0.  1.
         11   -1    0    0    0    0 -0.00000000000E+00 -0.00000000000E+00 -0.45593999997E+02  0.45594000000E+02  0.51100000000E-03 0. -1.
    9900012    2    1    2    0    0 -0.46290472466E+01  0.99848007550E+01  0.29926491975E+02  0.59301964711E+02  0.50000037721E+02 0.  0.
         12    1    1    2    0    0  0.46290472466E+01 -0.99848007550E+01 -0.29926491975E+02  0.31886035289E+02  0.00000000000E+00 0. -1.
         11    1    3    3    0    0 -0.10153595290E+02  0.14331084569E+02 -0.77460303259E+01  0.19195740889E+02  0.51100000000E-03 0. -1.
        -11    1    3    3    0    0  0.91870967300E-02 -0.74289374605E+01  0.21152922000E+02  0.22419529558E+02  0.51100000000E-03 0.  1.
        -12    1    3    3    0    0  0.55153609463E+01  0.30826536470E+01  0.16519600301E+02  0.17686694264E+02  0.00000000000E+00 0.  1.
</event>
<event>
 7    1  0.7457761E-012  0.5930198E+02  0.7816164E-02  0.1266605E+00
        -11   -1    0    0    0    0  0.00000000000E+00  0.00000000000E+00  0.45593999997E+02  0.45594000000E+02  0.51100000000E-03 0. -1.
         11   -1    0    0    0    0 -0.00000000000E+00 -0.00000000000E+00 -0.45593999997E+02  0.45594000000E+02  0.51100000000E-03 0.  1.
    9900012    2    1    2    0    0 -0.82127870355E+00  0.14512622848E+02 -0.28380057863E+02  0.59301977907E+02  0.50000061787E+02 0.  0.
         12    1    1    2    0    0  0.82127870355E+00 -0.14512622848E+02  0.28380057863E+02  0.31886022093E+02  0.00000000000E+00 0. -1.
         11    1    3    3    0    0 -0.32290989910E+01 -0.18765645674E+01  0.11271526774E+02  0.11874169064E+02  0.51100000000E-03 0. -1.
        -11    1    3    3    0    0  0.11266151596E+02  0.89290636532E+01 -0.23620352443E+02  0.27650956571E+02  0.51100000000E-03 0.  1.
         12    1    3    3    0    0 -0.88583313090E+01  0.74601237622E+01 -0.16031232194E+02  0.19776852272E+02  0.00000000000E+00 0. -1.
</event>
<event>
 7    1  0.7457761E-012  0.5930195E+02  0.7816164E-02  0.1266605E+00
        -11   -1    0    0    0    0  0.00000000000E+00  0.00000000000E+00  0.45593999997E+02  0.45594000000E+02  0.51100000000E-03 0. -1.
         11   -1    0    0    0    0 -0.00000000000E+00 -0.00000000000E+00 -0.45593999997E+02  0.45594000000E+02  0.51100000000E-03 0.  1.
    9900012    2    1    2    0    0 -0.14379483236E+02  0.27344861601E+02  0.78872876079E+01  0.59301948192E+02  0.50000007594E+02 0.  0.
         12    1    1    2    0    0  0.14379483236E+02 -0.27344861601E+02 -0.78872876079E+01  0.31886051808E+02  0.00000000000E+00 0. -1.
         11    1    3    3    0    0 -0.61265568027E+01 -0.21438691492E+01  0.14675102838E+02  0.16046479887E+02  0.51100000000E-03 0. -1.
        -11    1    3    3    0    0 -0.15991207647E+02  0.11500284570E+02 -0.11905430286E+02  0.23015528187E+02  0.51100000000E-03 0.  1.
        -12    1    3    3    0    0  0.77382812128E+01  0.17988446180E+02  0.51176150562E+01  0.20239940118E+02  0.00000000000E+00 0.  1.
</event>
<event>
 7    1  0.7457761E-012  0.5930200E+02  0.7816164E-02  0.1266605E+00
        -11   -1    0    0    0    0  0.00000000000E+00  0.00000000000E+00  0.45593999997E+02  0.45594000000E+02  0.51100000000E-03 0. -1.
         11   -1    0    0    0    0 -0.00000000000E+00 -0.00000000000E+00 -0.45593999997E+02  0.45594000000E+02  0.51100000000E-03 0.  1.
    9900012    2    1    2    0    0  0.31033925125E+02  0.71949584538E+01 -0.13582656602E+01  0.59302002737E+02  0.50000107072E+02 0.  0.
         12    1    1    2    0    0 -0.31033925125E+02 -0.71949584538E+01  0.13582656602E+01  0.31885997263E+02  0.00000000000E+00 0. -1.
         11    1    3    3    0    0 -0.43765117894E+01  0.36332350050E+01  0.16167839074E+02  0.17139231973E+02  0.51100000000E-03 0. -1.
        -11    1    3    3    0    0  0.88810184508E+01  0.42205095794E+01 -0.11156987649E+02  0.14871568966E+02  0.51100000000E-03 0.  1.
         12    1    3    3    0    0  0.26529418464E+02 -0.65878613059E+00 -0.63691170846E+01  0.27291201799E+02  0.00000000000E+00 0. -1.
</event>
<event>
 7    1  0.7457761E-012  0.5930195E+02  0.7816164E-02  0.1266605E+00
        -11   -1    0    0    0    0  0.00000000000E+00  0.00000000000E+00  0.45593999997E+02  0.45594000000E+02  0.51100000000E-03 0.  1.
         11   -1    0    0    0    0 -0.00000000000E+00 -0.00000000000E+00 -0.45593999997E+02  0.45594000000E+02  0.51100000000E-03 0. -1.
    9900012    2    1    2    0    0  0.21233940223E+02  0.18100563404E+02  0.15434043746E+02  0.59301947888E+02  0.50000007040E+02 0.  0.
         12    1    1    2    0    0 -0.21233940223E+02 -0.18100563404E+02 -0.15434043746E+02  0.31886052112E+02  0.00000000000E+00 0. -1.
         11    1    3    3    0    0  0.24725318025E+02 -0.39605885033E+00  0.13419702376E+02  0.28135149301E+02  0.51100000000E-03 0. -1.
        -11    1    3    3    0    0 -0.84933875948E+01  0.13963584034E+01  0.86041032083E+01  0.12170375586E+02  0.51100000000E-03 0.  1.
        -12    1    3    3    0    0  0.50020097926E+01  0.17100263851E+02 -0.65897618383E+01  0.18996423000E+02  0.00000000000E+00 0.  1.
</event>
<event>
 7    1  0.7457761E-012  0.5930195E+02  0.7816164E-02  0.1266605E+00
        -11   -1    0    0    0    0  0.00000000000E+00  0.00000000000E+00  0.45593999997E+02  0.45594000000E+02  0.51100000000E-03 0.  1.
         11   -1    0    0    0    0 -0.00000000000E+00 -0.00000000000E+00 -0.45593999997E+02  0.45594000000E+02  0.51100000000E-03 0. -1.
    9900012    2    1    2    0    0 -0.12090440820E+01  0.15040257547E+02  0.28090011859E+02  0.59301954448E+02  0.50000019005E+02 0.  0.
         12    1    1    2    0    0  0.12090440820E+01 -0.15040257547E+02 -0.28090011859E+02  0.31886045552E+02  0.00000000000E+00 0. -1.
         11    1    3    3    0    0 -0.76666957138E+01 -0.89700347985E+01  0.20340162610E+02  0.23515143263E+02  0.51100000000E-03 0.  1.
        -11    1    3    3    0    0  0.85356785654E+01  0.19326822017E+02  0.15704238157E+02  0.26325025246E+02  0.51100000000E-03 0. -1.
         12    1    3    3    0    0 -0.20780269337E+01  0.46834703285E+01 -0.79543889076E+01  0.94617859387E+01  0.00000000000E+00 0. -1.
</event>
<event>
 7    1  0.7457761E-012  0.5930197E+02  0.7816164E-02  0.1266605E+00
        -11   -1    0    0    0    0  0.00000000000E+00  0.00000000000E+00  0.45593999997E+02  0.45594000000E+02  0.51100000000E-03 0.  1.
         11   -1    0    0    0    0 -0.00000000000E+00 -0.00000000000E+00 -0.45593999997E+02  0.45594000000E+02  0.51100000000E-03 0. -1.
    9900012    2    1    2    0    0 -0.51306700570E+00  0.29757284605E+02  0.11443766050E+02  0.59301968478E+02  0.50000044591E+02 0.  0.
         12    1    1    2    0    0  0.51306700570E+00 -0.29757284605E+02 -0.11443766050E+02  0.31886031522E+02  0.00000000000E+00 0. -1.
         11    1    3    3    0    0 -0.19815207726E+02  0.21031245765E+02 -0.31932392954E+01  0.29071507238E+02  0.51100000000E-03 0. -1.
        -11    1    3    3    0    0  0.33872368163E+01  0.96187467370E+01  0.34852492235E+01  0.10776855963E+02  0.51100000000E-03 0.  1.
         12    1    3    3    0    0  0.15914903904E+02 -0.89270789638E+00  0.11151756122E+02  0.19453605277E+02  0.00000000000E+00 0. -1.
</event>
<event>
 7    1  0.7457761E-012  0.5930190E+02  0.7816164E-02  0.1266605E+00
        -11   -1    0    0    0    0  0.00000000000E+00  0.00000000000E+00  0.45593999997E+02  0.45594000000E+02  0.51100000000E-03 0. -1.
         11   -1    0    0    0    0 -0.00000000000E+00 -0.00000000000E+00 -0.45593999997E+02  0.45594000000E+02  0.51100000000E-03 0.  1.
    9900012    2    1    2    0    0 -0.12238433787E+01 -0.24929029346E+02 -0.19843612992E+02  0.59301901566E+02  0.49999922560E+02 0.  0.
         12    1    1    2    0    0  0.12238433787E+01  0.24929029346E+02  0.19843612992E+02  0.31886098434E+02  0.00000000000E+00 0. -1.
         11    1    3    3    0    0  0.97745343408E+01 -0.30417788440E+02 -0.15852270621E+02  0.35666200516E+02  0.51100000000E-03 0. -1.
        -11    1    3    3    0    0 -0.12985967998E+02  0.82609675017E+01  0.31605084864E+01  0.15712026065E+02  0.51100000000E-03 0.  1.
         12    1    3    3    0    0  0.19875902781E+01 -0.27722084079E+01 -0.71518508583E+01  0.79236749851E+01  0.00000000000E+00 0. -1.
</event>
<event>
 7    1  0.7457761E-012  0.5930195E+02  0.7816164E-02  0.1266605E+00
        -11   -1    0    0    0    0  0.00000000000E+00  0.00000000000E+00  0.45593999997E+02  0.45594000000E+02  0.51100000000E-03 0.  1.
         11   -1    0    0    0    0 -0.00000000000E+00 -0.00000000000E+00 -0.45593999997E+02  0.45594000000E+02  0.51100000000E-03 0. -1.
    9900012    2    1    2    0    0 -0.12149912544E+02  0.11873444019E+02  0.26983719687E+02  0.59301950138E+02  0.50000011143E+02 0.  0.
         12    1    1    2    0    0  0.12149912544E+02 -0.11873444019E+02 -0.26983719687E+02  0.31886049862E+02  0.00000000000E+00 0. -1.
         11    1    3    3    0    0 -0.70636689143E+01  0.39650893002E+01 -0.10923650513E-01  0.81004611768E+01  0.51100000000E-03 0. -1.
        -11    1    3    3    0    0  0.17824910499E+02  0.95124414345E+01  0.94790044486E+01  0.22317381162E+02  0.51100000000E-03 0.  1.
        -12    1    3    3    0    0 -0.22911154128E+02 -0.16040867160E+01  0.17515638889E+02  0.28884107799E+02  0.00000000000E+00 0.  1.
</event>
<event>
 7    1  0.7457761E-012  0.5930193E+02  0.7816164E-02  0.1266605E+00
        -11   -1    0    0    0    0  0.00000000000E+00  0.00000000000E+00  0.45593999997E+02  0.45594000000E+02  0.51100000000E-03 0. -1.
         11   -1    0    0    0    0 -0.00000000000E+00 -0.00000000000E+00 -0.45593999997E+02  0.45594000000E+02  0.51100000000E-03 0.  1.
    9900012    2    1    2    0    0  0.14770255348E+02 -0.12524842139E+02 -0.25331586069E+02  0.59301931468E+02  0.49999977093E+02 0.  0.
         12    1    1    2    0    0 -0.14770255348E+02  0.12524842139E+02  0.25331586069E+02  0.31886068532E+02  0.00000000000E+00 0. -1.
         11    1    3    3    0    0 -0.28871864392E+01 -0.10866498009E+02 -0.66730662477E+01  0.13074648673E+02  0.51100000000E-03 0. -1.
        -11    1    3    3    0    0  0.14481692989E+02  0.49575883172E+01  0.89015285345E+01  0.17706900470E+02  0.51100000000E-03 0.  1.
        -12    1    3    3    0    0  0.31757487989E+01 -0.66159324481E+01 -0.27560048356E+02  0.28520382325E+02  0.00000000000E+00 0.  1.
</event>
<event>
 7    1  0.7457761E-012  0.5930194E+02  0.7816164E-02  0.1266605E+00
        -11   -1    0    0    0    0  0.00000000000E+00  0.00000000000E+00  0.45593999997E+02  0.45594000000E+02  0.51100000000E-03 0. -1.
         11   -1    0    0    0    0 -0.00000000000E+00 -0.00000000000E+00 -0.45593999997E+02  0.45594000000E+02  0.51100000000E-03 0.  1.
    9900012    2    1    2    0    0  0.22583092021E+02 -0.28543044847E+01 -0.22328855490E+02  0.59301938989E+02  0.49999990810E+02 0.  0.
         12    1    1    2    0    0 -0.22583092021E+02  0.28543044847E+01  0.22328855490E+02  0.31886061011E+02  0.00000000000E+00 0. -1.
         11    1    3    3    0    0 -0.50070396412E+01 -0.13388532728E+02  0.70419504059E+00  0.14311503957E+02  0.51100000000E-03 0. -1.
        -11    1    3    3    0    0  0.29981757989E+02  0.68351776133E+01 -0.25494134197E+02  0.39944666025E+02  0.51100000000E-03 0.  1.
        -12    1    3    3    0    0 -0.23916263269E+01  0.36990506304E+01  0.24610836665E+01  0.50457690066E+01  0.00000000000E+00 0.  1.
</event>
<event>
 7    1  0.7457761E-012  0.5930194E+02  0.7816164E-02  0.1266605E+00
        -11   -1    0    0    0    0  0.00000000000E+00  0.00000000000E+00  0.45593999997E+02  0.45594000000E+02  0.51100000000E-03 0. -1.
         11   -1    0    0    0    0 -0.00000000000E+00 -0.00000000000E+00 -0.45593999997E+02  0.45594000000E+02  0.51100000000E-03 0.  1.
    9900012    2    1    2    0    0  0.15393278410E+02  0.13074790636E+02 -0.24674232782E+02  0.59301938253E+02  0.49999989468E+02 0.  0.
         12    1    1    2    0    0 -0.15393278410E+02 -0.13074790636E+02  0.24674232782E+02  0.31886061747E+02  0.00000000000E+00 0. -1.
         11    1    3    3    0    0 -0.12139448573E+02  0.13508818590E+01  0.58891633044E+01  0.13559990344E+02  0.51100000000E-03 0. -1.
        -11    1    3    3    0    0  0.36750380518E+01  0.93479412283E+01 -0.84673347509E+01  0.13137186454E+02  0.51100000000E-03 0.  1.
         12    1    3    3    0    0  0.23857688931E+02  0.23759675492E+01 -0.22096061335E+02  0.32604761454E+02  0.00000000000E+00 0. -1.
</event>
<event>
 7    1  0.7457761E-012  0.5930196E+02  0.7816164E-02  0.1266605E+00
        -11   -1    0    0    0    0  0.00000000000E+00  0.00000000000E+00  0.45593999997E+02  0.45594000000E+02  0.51100000000E-03 0.  1.
         11   -1    0    0    0    0 -0.00000000000E+00 -0.00000000000E+00 -0.45593999997E+02  0.45594000000E+02  0.51100000000E-03 0. -1.
    9900012    2    1    2    0    0 -0.14956157662E+02  0.13591381566E+02  0.24663883287E+02  0.59301961618E+02  0.50000032081E+02 0.  0.
         12    1    1    2    0    0  0.14956157662E+02 -0.13591381566E+02 -0.24663883287E+02  0.31886038382E+02  0.00000000000E+00 0. -1.
         11    1    3    3    0    0 -0.13040897056E+02  0.76371546833E+01  0.13848985084E+02  0.20498427154E+02  0.51100000000E-03 0. -1.
        -11    1    3    3    0    0 -0.16844435521E+00 -0.13470788254E+02  0.13552217091E+02  0.19108979513E+02  0.51100000000E-03 0.  1.
        -12    1    3    3    0    0 -0.17468162513E+01  0.19425015136E+02 -0.27373188876E+01  0.19694554952E+02  0.00000000000E+00 0.  1.
</event>
<event>
 7    1  0.7457761E-012  0.5930192E+02  0.7816164E-02  0.1266605E+00
        -11   -1    0    0    0    0  0.00000000000E+00  0.00000000000E+00  0.45593999997E+02  0.45594000000E+02  0.51100000000E-03 0.  1.
         11   -1    0    0    0    0 -0.00000000000E+00 -0.00000000000E+00 -0.45593999997E+02  0.45594000000E+02  0.51100000000E-03 0. -1.
    9900012    2    1    2    0    0  0.19548408804E+02  0.70791262264E+00  0.25180953313E+02  0.59301924093E+02  0.49999963643E+02 0.  0.
         12    1    1    2    0    0 -0.19548408804E+02 -0.70791262264E+00 -0.25180953313E+02  0.31886075907E+02  0.00000000000E+00 0. -1.
         11    1    3    3    0    0  0.26402300671E+01  0.17838063877E+02 -0.28540491405E+01  0.18256859928E+02  0.51100000000E-03 0. -1.
        -11    1    3    3    0    0  0.34057194880E+01 -0.15827765737E+02  0.12742502127E+02  0.20603117584E+02  0.51100000000E-03 0.  1.
         12    1    3    3    0    0  0.13502459248E+02 -0.13023855170E+01  0.15292500326E+02  0.20441946581E+02  0.00000000000E+00 0. -1.
</event>
<event>
 7    1  0.7457761E-012  0.5930191E+02  0.7816164E-02  0.1266605E+00
        -11   -1    0    0    0    0  0.00000000000E+00  0.00000000000E+00  0.45593999997E+02  0.45594000000E+02  0.51100000000E-03 0.  1.
         11   -1    0    0    0    0 -0.00000000000E+00 -0.00000000000E+00 -0.45593999997E+02  0.45594000000E+02  0.51100000000E-03 0. -1.
    9900012    2    1    2    0    0  0.17281689960E+02 -0.26726671449E+02 -0.19366830388E+01  0.59301913445E+02  0.49999944225E+02 0.  0.
         12    1    1    2    0    0 -0.17281689960E+02  0.26726671449E+02  0.19366830388E+01  0.31886086555E+02  0.00000000000E+00 0. -1.
         11    1    3    3    0    0  0.36907212751E+01 -0.16771349430E+02 -0.15989085665E+02  0.23463811411E+02  0.51100000000E-03 0. -1.
        -11    1    3    3    0    0  0.20736559468E+02 -0.82877005360E+01  0.16860467790E+02  0.27981534145E+02  0.51100000000E-03 0.  1.
         12    1    3    3    0    0 -0.71455907826E+01 -0.16676214822E+01 -0.28080651641E+01  0.78565678897E+01  0.00000000000E+00 0. -1.
</event>
<event>
 7    1  0.7457761E-012  0.5930192E+02  0.7816164E-02  0.1266605E+00
        -11   -1    0    0    0    0  0.00000000000E+00  0.00000000000E+00  0.45593999997E+02  0.45594000000E+02  0.51100000000E-03 0. -1.
         11   -1    0    0    0    0 -0.00000000000E+00 -0.00000000000E+00 -0.45593999997E+02  0.45594000000E+02  0.51100000000E-03 0.  1.
    9900012    2    1    2    0    0 -0.16547742132E+02 -0.16102327759E+02 -0.21991114752E+02  0.59301923776E+02  0.49999963066E+02 0.  0.
         12    1    1    2    0    0  0.16547742132E+02  0.16102327759E+02  0.21991114752E+02  0.31886076224E+02  0.00000000000E+00 0. -1.
         11    1    3    3    0    0 -0.16994922941E+01 -0.24873832645E+02  0.62543629663E+00  0.24939667106E+02  0.51100000000E-03 0. -1.
        -11    1    3    3    0    0  0.37273565763E+01  0.16746735704E+00 -0.90889123302E+01  0.98249457999E+01  0.51100000000E-03 0.  1.
         12    1    3    3    0    0 -0.18575606414E+02  0.86040375294E+01 -0.13527638719E+02  0.24537310870E+02  0.00000000000E+00 0. -1.
</event>
<event>
 7    1  0.7457761E-012  0.5930192E+02  0.7816164E-02  0.1266605E+00
        -11   -1    0    0    0    0  0.00000000000E+00  0.00000000000E+00  0.45593999997E+02  0.45594000000E+02  0.51100000000E-03 0. -1.
         11   -1    0    0    0    0 -0.00000000000E+00 -0.00000000000E+00 -0.45593999997E+02  0.45594000000E+02  0.51100000000E-03 0.  1.
    9900012    2    1    2    0    0 -0.10990014838E+02 -0.29627811943E+02 -0.42584661778E+01  0.59301918384E+02  0.49999953231E+02 0.  0.
         12    1    1    2    0    0  0.10990014838E+02  0.29627811943E+02  0.42584661778E+01  0.31886081616E+02  0.00000000000E+00 0. -1.
         11    1    3    3    0    0 -0.27441057546E+00 -0.26760607161E+02  0.17205189003E+02  0.31815466768E+02  0.51100000000E-03 0. -1.
        -11    1    3    3    0    0 -0.89322339229E+01  0.28137058160E+01 -0.65503071082E+01  0.11428397383E+02  0.51100000000E-03 0.  1.
         12    1    3    3    0    0 -0.17833703401E+01 -0.56809105975E+01 -0.14913348073E+02  0.16058054232E+02  0.00000000000E+00 0. -1.
</event>
<event>
 7    1  0.7457761E-012  0.5930195E+02  0.7816164E-02  0.1266605E+00
        -11   -1    0    0    0    0  0.00000000000E+00  0.00000000000E+00  0.45593999997E+02  0.45594000000E+02  0.51100000000E-03 0.  1.
         11   -1    0    0    0    0 -0.00000000000E+00 -0.00000000000E+00 -0.45593999997E+02  0.45594000000E+02  0.51100000000E-03 0. -1.
    9900012    2    1    2    0    0 -0.22110538071E+02  0.22527477181E+02  0.45118665548E+01  0.59301951927E+02  0.50000014406E+02 0.  0.
         12    1    1    2    0    0  0.22110538071E+02 -0.22527477181E+02 -0.45118665548E+01  0.31886048073E+02  0.00000000000E+00 0. -1.
         11    1    3    3    0    0 -0.26404671374E+02  0.12210835654E+02  0.29364847195E+00  0.29092909917E+02  0.51100000000E-03 0. -1.
        -11    1    3    3    0    0  0.69130774170E+01  0.54804286794E+01  0.15400035156E+02  0.17747868067E+02  0.51100000000E-03 0.  1.
         12    1    3    3    0    0 -0.26189441142E+01  0.48362128472E+01 -0.11181817073E+02  0.12461173943E+02  0.00000000000E+00 0. -1.
</event>
<event>
 7    1  0.7457761E-012  0.5930194E+02  0.7816164E-02  0.1266605E+00
        -11   -1    0    0    0    0  0.00000000000E+00  0.00000000000E+00  0.45593999997E+02  0.45594000000E+02  0.51100000000E-03 0.  1.
         11   -1    0    0    0    0 -0.00000000000E+00 -0.00000000000E+00 -0.45593999997E+02  0.45594000000E+02  0.51100000000E-03 0. -1.
    9900012    2    1    2    0    0 -0.29969912017E+02 -0.86689620082E+01  0.65859057546E+01  0.59301942182E+02  0.49999996633E+02 0.  0.
         12    1    1    2    0    0  0.29969912017E+02  0.86689620082E+01 -0.65859057546E+01  0.31886057818E+02  0.00000000000E+00 0. -1.
         11    1    3    3    0    0 -0.46665182256E+01 -0.26123251354E+02 -0.22775539961E+00  0.26537756621E+02  0.51100000000E-03 0. -1.
        -11    1    3    3    0    0 -0.55262772447E+01  0.19161627131E+00 -0.38713394894E+00  0.55431335845E+01  0.51100000000E-03 0.  1.
         12    1    3    3    0    0 -0.19777116546E+02  0.17262673075E+02  0.72007951032E+01  0.27221051976E+02  0.00000000000E+00 0. -1.
</event>
<event>
 7    1  0.7457761E-012  0.5930193E+02  0.7816164E-02  0.1266605E+00
        -11   -1    0    0    0    0  0.00000000000E+00  0.00000000000E+00  0.45593999997E+02  0.45594000000E+02  0.51100000000E-03 0. -1.
         11   -1    0    0    0    0 -0.00000000000E+00 -0.00000000000E+00 -0.45593999997E+02  0.45594000000E+02  0.51100000000E-03 0.  1.
    9900012    2    1    2    0    0 -0.61569787336E+01  0.31213248685E+02 -0.21321591712E+01  0.59301931203E+02  0.49999976611E+02 0.  0.
         12    1    1    2    0    0  0.61569787336E+01 -0.31213248685E+02  0.21321591712E+01  0.31886068797E+02  0.00000000000E+00 0. -1.
         11    1    3    3    0    0 -0.17330284477E+02 -0.19871992128E+01  0.43635124489E+01  0.17981322585E+02  0.51100000000E-03 0. -1.
        -11    1    3    3    0    0 -0.10253033274E+01  0.27110960176E+02 -0.52098569241E+01  0.27626038768E+02  0.51100000000E-03 0.  1.
        -12    1    3    3    0    0  0.12198609070E+02  0.60894877217E+01 -0.12858146960E+01  0.13694569851E+02  0.00000000000E+00 0.  1.
</event>
<event>
 7    1  0.7457761E-012  0.5930196E+02  0.7816164E-02  0.1266605E+00
        -11   -1    0    0    0    0  0.00000000000E+00  0.00000000000E+00  0.45593999997E+02  0.45594000000E+02  0.51100000000E-03 0.  1.
         11   -1    0    0    0    0 -0.00000000000E+00 -0.00000000000E+00 -0.45593999997E+02  0.45594000000E+02  0.51100000000E-03 0. -1.
    9900012    2    1    2    0    0  0.29808120148E+02 -0.41005568256E+01 -0.10553718940E+02  0.59301959535E+02  0.50000028282E+02 0.  0.
         12    1    1    2    0    0 -0.29808120148E+02  0.41005568256E+01  0.10553718940E+02  0.31886040465E+02  0.00000000000E+00 0. -1.
         11    1    3    3    0    0  0.25109524102E+02 -0.11767258597E+02 -0.21810555330E+02  0.35279695288E+02  0.51100000000E-03 0. -1.
        -11    1    3    3    0    0  0.42928994270E+01  0.13708291829E+02  0.47402158996E+01  0.15126661806E+02  0.51100000000E-03 0.  1.
         12    1    3    3    0    0  0.40569661886E+00 -0.60415900583E+01  0.65166204904E+01  0.88956024414E+01  0.00000000000E+00 0. -1.
</event>
<event>
 7    1  0.7457761E-012  0.5930192E+02  0.7816164E-02  0.1266605E+00
        -11   -1    0    0    0    0  0.00000000000E+00  0.00000000000E+00  0.45593999997E+02  0.45594000000E+02  0.51100000000E-03 0.  1.
         11   -1    0    0    0    0 -0.00000000000E+00 -0.00000000000E+00 -0.45593999997E+02  0.45594000000E+02  0.51100000000E-03 0. -1.
    9900012    2    1    2    0    0  0.10667475023E+02 -0.18392654219E+02  0.23762101219E+02  0.59301918288E+02  0.49999953057E+02 0.  0.
         12    1    1    2    0    0 -0.10667475023E+02  0.18392654219E+02 -0.23762101219E+02  0.31886081712E+02  0.00000000000E+00 0. -1.
         11    1    3    3    0    0  0.12256824763E+02 -0.15134192271E+02 -0.11051648149E+02  0.22392240978E+02  0.51100000000E-03 0. -1.
        -11    1    3    3    0    0  0.39588982064E+01  0.31258625392E+00  0.23328181418E+02  0.23663783166E+02  0.51100000000E-03 0.  1.
        -12    1    3    3    0    0 -0.55482479467E+01 -0.35710482019E+01  0.11485567950E+02  0.13245894144E+02  0.00000000000E+00 0.  1.
</event>
<event>
 7    1  0.7457761E-012  0.5930206E+02  0.7816164E-02  0.1266604E+00
        -11   -1    0    0    0    0  0.00000000000E+00  0.00000000000E+00  0.45593999997E+02  0.45594000000E+02  0.51100000000E-03 0. -1.
         11   -1    0    0    0    0 -0.00000000000E+00 -0.00000000000E+00 -0.45593999997E+02  0.45594000000E+02  0.51100000000E-03 0.  1.
    9900012    2    1    2    0    0  0.94583895025E+01 -0.27281392039E+02 -0.13526930176E+02  0.59302057587E+02  0.50000207104E+02 0.  0.
         12    1    1    2    0    0 -0.94583895025E+01  0.27281392039E+02  0.13526930176E+02  0.31885942413E+02  0.00000000000E+00 0. -1.
         11    1    3    3    0    0 -0.92529053727E+00 -0.35726292289E+02 -0.17834156712E+02  0.39940972312E+02  0.51100000000E-03 0.  1.
        -11    1    3    3    0    0  0.40260818368E+01  0.68793002612E+01  0.84474518826E+01  0.11614368283E+02  0.51100000000E-03 0. -1.
         12    1    3    3    0    0  0.63575982030E+01  0.15655999887E+01 -0.41402253464E+01  0.77467169920E+01  0.00000000000E+00 0. -1.
</event>
<event>
 7    1  0.7457761E-012  0.5930195E+02  0.7816164E-02  0.1266605E+00
        -11   -1    0    0    0    0  0.00000000000E+00  0.00000000000E+00  0.45593999997E+02  0.45594000000E+02  0.51100000000E-03 0. -1.
         11   -1    0    0    0    0 -0.00000000000E+00 -0.00000000000E+00 -0.45593999997E+02  0.45594000000E+02  0.51100000000E-03 0.  1.
    9900012    2    1    2    0    0 -0.22157193025E+02 -0.18732561293E+02 -0.13223858696E+02  0.59301945146E+02  0.50000002039E+02 0.  0.
         12    1    1    2    0    0  0.22157193025E+02  0.18732561293E+02  0.13223858696E+02  0.31886054854E+02  0.00000000000E+00 0. -1.
         11    1    3    3    0    0 -0.19168580056E+01  0.50141282843E+01  0.83910068844E+01  0.99611657882E+01  0.51100000000E-03 0. -1.
        -11    1    3    3    0    0  0.41210444448E+01 -0.18392832093E+02 -0.13221752201E+02  0.23023770570E+02  0.51100000000E-03 0.  1.
        -12    1    3    3    0    0 -0.24361379464E+02 -0.53538574846E+01 -0.83931133788E+01  0.26317008788E+02  0.00000000000E+00 0.  1.
</event>
<event>
 7    1  0.7457761E-012  0.5930189E+02  0.7816164E-02  0.1266605E+00
        -11   -1    0    0    0    0  0.00000000000E+00  0.00000000000E+00  0.45593999997E+02  0.45594000000E+02  0.51100000000E-03 0.  1.
         11   -1    0    0    0    0 -0.00000000000E+00 -0.00000000000E+00 -0.45593999997E+02  0.45594000000E+02  0.51100000000E-03 0. -1.
    9900012    2    1    2    0    0 -0.19157412334E+02 -0.22909603266E+02  0.11174412358E+02  0.59301892356E+02  0.49999905762E+02 0.  0.
         12    1    1    2    0    0  0.19157412334E+02  0.22909603266E+02 -0.11174412358E+02  0.31886107644E+02  0.00000000000E+00 0. -1.
         11    1    3    3    0    0  0.80887632537E+01 -0.17073996836E+02 -0.92073582330E+01  0.21017252552E+02  0.51100000000E-03 0. -1.
        -11    1    3    3    0    0 -0.49463547842E+01 -0.74878321329E+01  0.10569977146E+02  0.13865730159E+02  0.51100000000E-03 0.  1.
         12    1    3    3    0    0 -0.22299820803E+02  0.16522257028E+01  0.98117934450E+01  0.24418909645E+02  0.00000000000E+00 0. -1.
</event>
<event>
 7    1  0.7457761E-012  0.5930196E+02  0.7816164E-02  0.1266605E+00
        -11   -1    0    0    0    0  0.00000000000E+00  0.00000000000E+00  0.45593999997E+02  0.45594000000E+02  0.51100000000E-03 0.  1.
         11   -1    0    0    0    0 -0.00000000000E+00 -0.00000000000E+00 -0.45593999997E+02  0.45594000000E+02  0.51100000000E-03 0. -1.
    9900012    2    1    2    0    0 -0.21755244141E+02 -0.37094369598E+01  0.23014541034E+02  0.59301958082E+02  0.50000025632E+02 0.  0.
         12    1    1    2    0    0  0.21755244141E+02  0.37094369598E+01 -0.23014541034E+02  0.31886041918E+02  0.00000000000E+00 0. -1.
         11    1    3    3    0    0  0.25459257004E+01  0.97466968626E+01  0.11140610847E+02  0.15019755248E+02  0.51100000000E-03 0. -1.
        -11    1    3    3    0    0 -0.24425793016E+02  0.41630836387E+01  0.93464096359E+01  0.26482182749E+02  0.51100000000E-03 0.  1.
        -12    1    3    3    0    0  0.12462317435E+00 -0.17619217461E+02  0.25275205508E+01  0.17800020085E+02  0.00000000000E+00 0.  1.
</event>
<event>
 7    1  0.7457761E-012  0.5930194E+02  0.7816164E-02  0.1266605E+00
        -11   -1    0    0    0    0  0.00000000000E+00  0.00000000000E+00  0.45593999997E+02  0.45594000000E+02  0.51100000000E-03 0.  1.
         11   -1    0    0    0    0 -0.00000000000E+00 -0.00000000000E+00 -0.45593999997E+02  0.45594000000E+02  0.51100000000E-03 0. -1.
    9900012    2    1    2    0    0  0.43228830754E+01  0.14389505082E+02  0.28124292145E+02  0.59301937477E+02  0.49999988053E+02 0.  0.
         12    1    1    2    0    0 -0.43228830754E+01 -0.14389505082E+02 -0.28124292145E+02  0.31886062523E+02  0.00000000000E+00 0. -1.
         11    1    3    3    0    0 -0.53446407014E+01  0.29830116791E+02  0.19211022894E+02  0.35881254896E+02  0.51100000000E-03 0. -1.
        -11    1    3    3    0    0  0.10259527278E+02 -0.86784929104E+01  0.97203132127E+01  0.16584891570E+02  0.51100000000E-03 0.  1.
         12    1    3    3    0    0 -0.59200350106E+00 -0.67621187994E+01 -0.80704396175E+00  0.68357910119E+01  0.00000000000E+00 0. -1.
</event>
<event>
 7    1  0.7457761E-012  0.5930161E+02  0.7816164E-02  0.1266606E+00
        -11   -1    0    0    0    0  0.00000000000E+00  0.00000000000E+00  0.45593999997E+02  0.45594000000E+02  0.51100000000E-03 0. -1.
         11   -1    0    0    0    0 -0.00000000000E+00 -0.00000000000E+00 -0.45593999997E+02  0.45594000000E+02  0.51100000000E-03 0.  1.
    9900012    2    1    2    0    0 -0.28697785290E+01  0.26630117962E+02 -0.17301535042E+02  0.59301609074E+02  0.49999389121E+02 0.  0.
         12    1    1    2    0    0  0.28697785290E+01 -0.26630117962E+02  0.17301535042E+02  0.31886390926E+02  0.00000000000E+00 0. -1.
         11    1    3    3    0    0 -0.51628441366E+01  0.32977324481E+02 -0.10925252924E+01  0.33396893587E+02  0.51100000000E-03 0. -1.
        -11    1    3    3    0    0  0.19452893168E+01 -0.86360203076E+01 -0.19767654886E+02  0.21659297709E+02  0.51100000000E-03 0.  1.
        -12    1    3    3    0    0  0.34777629084E+00  0.22888137886E+01  0.35586451363E+01  0.42454177785E+01  0.00000000000E+00 0.  1.
</event>
<event>
 7    1  0.7457761E-012  0.5930202E+02  0.7816164E-02  0.1266605E+00
        -11   -1    0    0    0    0  0.00000000000E+00  0.00000000000E+00  0.45593999997E+02  0.45594000000E+02  0.51100000000E-03 0.  1.
         11   -1    0    0    0    0 -0.00000000000E+00 -0.00000000000E+00 -0.45593999997E+02  0.45594000000E+02  0.51100000000E-03 0. -1.
    9900012    2    1    2    0    0  0.31747810113E+02  0.14508647793E+01 -0.25860239968E+01  0.59302016000E+02  0.50000131259E+02 0.  0.
         12    1    1    2    0    0 -0.31747810113E+02 -0.14508647793E+01  0.25860239968E+01  0.31885984000E+02  0.00000000000E+00 0. -1.
         11    1    3    3    0    0 -0.11573447732E+02 -0.22407332767E+01 -0.47077923393E+01  0.12693655383E+02  0.51100000000E-03 0. -1.
        -11    1    3    3    0    0  0.13962814883E+02 -0.59576541725E+01 -0.24217029813E+01  0.15372653911E+02  0.51100000000E-03 0.  1.
         12    1    3    3    0    0  0.29358442962E+02  0.96492522286E+01  0.45434713238E+01  0.31235706705E+02  0.00000000000E+00 0. -1.
</event>
<event>
 7    1  0.7457761E-012  0.5930191E+02  0.7816164E-02  0.1266605E+00
        -11   -1    0    0    0    0  0.00000000000E+00  0.00000000000E+00  0.45593999997E+02  0.45594000000E+02  0.51100000000E-03 0. -1.
         11   -1    0    0    0    0 -0.00000000000E+00 -0.00000000000E+00 -0.45593999997E+02  0.45594000000E+02  0.51100000000E-03 0.  1.
    9900012    2    1    2    0    0  0.28814910029E+02  0.13617447021E+02  0.99429111499E+00  0.59301913408E+02  0.49999944156E+02 0.  0.
         12    1    1    2    0    0 -0.28814910029E+02 -0.13617447021E+02 -0.99429111499E+00  0.31886086592E+02  0.00000000000E+00 0. -1.
         11    1    3    3    0    0 -0.17307748356E+00  0.18215630954E+01 -0.36852097529E+01  0.41144646201E+01  0.51100000000E-03 0. -1.
        -11    1    3    3    0    0  0.36821300265E+02  0.12253510674E+01  0.13622065089E+02  0.39279387673E+02  0.51100000000E-03 0.  1.
        -12    1    3    3    0    0 -0.78333127518E+01  0.10570532858E+02 -0.89425642210E+01  0.15908061114E+02  0.00000000000E+00 0.  1.
</event>
<event>
 7    1  0.7457761E-012  0.5930186E+02  0.7816164E-02  0.1266605E+00
        -11   -1    0    0    0    0  0.00000000000E+00  0.00000000000E+00  0.45593999997E+02  0.45594000000E+02  0.51100000000E-03 0. -1.
         11   -1    0    0    0    0 -0.00000000000E+00 -0.00000000000E+00 -0.45593999997E+02  0.45594000000E+02  0.51100000000E-03 0.  1.
    9900012    2    1    2    0    0  0.81924196377E+01 -0.46726133508E+01 -0.30459432865E+02  0.59301857156E+02  0.49999841566E+02 0.  0.
         12    1    1    2    0    0 -0.81924196377E+01  0.46726133508E+01  0.30459432865E+02  0.31886142844E+02  0.00000000000E+00 0. -1.
         11    1    3    3    0    0 -0.83575935098E+01 -0.16348022428E+02 -0.99723718045E+01  0.20893908353E+02  0.51100000000E-03 0. -1.
        -11    1    3    3    0    0  0.87705631548E+01 -0.33092047110E+01 -0.19331921144E+02  0.21484803682E+02  0.51100000000E-03 0.  1.
         12    1    3    3    0    0  0.77794499928E+01  0.14984613788E+02 -0.11551399165E+01  0.16923145121E+02  0.00000000000E+00 0. -1.
</event>
<event>
 7    1  0.7457761E-012  0.5930194E+02  0.7816164E-02  0.1266605E+00
        -11   -1    0    0    0    0  0.00000000000E+00  0.00000000000E+00  0.45593999997E+02  0.45594000000E+02  0.51100000000E-03 0.  1.
         11   -1    0    0    0    0 -0.00000000000E+00 -0.00000000000E+00 -0.45593999997E+02  0.45594000000E+02  0.51100000000E-03 0. -1.
    9900012    2    1    2    0    0  0.17176411138E+02 -0.20123685561E+02  0.17796886462E+02  0.59301937404E+02  0.49999987919E+02 0.  0.
         12    1    1    2    0    0 -0.17176411138E+02  0.20123685561E+02 -0.17796886462E+02  0.31886062596E+02  0.00000000000E+00 0. -1.
         11    1    3    3    0    0  0.25360560090E+02 -0.12216919988E+02  0.23766342901E+02  0.36840876717E+02  0.51100000000E-03 0. -1.
        -11    1    3    3    0    0 -0.72649002849E+00 -0.75971433042E+01 -0.11051906631E+02  0.13430897758E+02  0.51100000000E-03 0.  1.
        -12    1    3    3    0    0 -0.74576589235E+01 -0.30962226909E+00  0.50824501918E+01  0.90301629288E+01  0.00000000000E+00 0.  1.
</event>
<event>
 7    1  0.7457761E-012  0.5930196E+02  0.7816164E-02  0.1266605E+00
        -11   -1    0    0    0    0  0.00000000000E+00  0.00000000000E+00  0.45593999997E+02  0.45594000000E+02  0.51100000000E-03 0. -1.
         11   -1    0    0    0    0 -0.00000000000E+00 -0.00000000000E+00 -0.45593999997E+02  0.45594000000E+02  0.51100000000E-03 0.  1.
    9900012    2    1    2    0    0  0.84741638434E+01  0.29626322928E+02  0.81968996924E+01  0.59301958734E+02  0.50000026820E+02 0.  0.
         12    1    1    2    0    0 -0.84741638434E+01 -0.29626322928E+02 -0.81968996924E+01  0.31886041266E+02  0.00000000000E+00 0. -1.
         11    1    3    3    0    0  0.19128170982E+02 -0.64289886395E+01  0.25965946650E+01  0.20346034605E+02  0.51100000000E-03 0. -1.
        -11    1    3    3    0    0 -0.64037249097E+01  0.11952247180E+02  0.50661925168E+01  0.14475158453E+02  0.51100000000E-03 0.  1.
         12    1    3    3    0    0 -0.42502822287E+01  0.24103064387E+02  0.53411251063E+00  0.24480765675E+02  0.00000000000E+00 0. -1.
</event>
<event>
 7    1  0.7457761E-012  0.5930195E+02  0.7816164E-02  0.1266605E+00
        -11   -1    0    0    0    0  0.00000000000E+00  0.00000000000E+00  0.45593999997E+02  0.45594000000E+02  0.51100000000E-03 0.  1.
         11   -1    0    0    0    0 -0.00000000000E+00 -0.00000000000E+00 -0.45593999997E+02  0.45594000000E+02  0.51100000000E-03 0. -1.
    9900012    2    1    2    0    0 -0.27149540876E+02  0.27317508730E+00  0.16719696059E+02  0.59301946140E+02  0.50000003853E+02 0.  0.
         12    1    1    2    0    0  0.27149540876E+02 -0.27317508730E+00 -0.16719696059E+02  0.31886053860E+02  0.00000000000E+00 0. -1.
         11    1    3    3    0    0 -0.72894748494E+01  0.11958167456E+02 -0.12384560071E+02  0.18695227757E+02  0.51100000000E-03 0. -1.
        -11    1    3    3    0    0 -0.12847119056E+02 -0.53893451780E+00  0.64078296654E+01  0.14366600145E+02  0.51100000000E-03 0.  1.
         12    1    3    3    0    0 -0.70129469709E+01 -0.11146057850E+02  0.22696426465E+02  0.26240118237E+02  0.00000000000E+00 0. -1.
</event>
<event>
 7    1  0.7457761E-012  0.5930188E+02  0.7816164E-02  0.1266605E+00
        -11   -1    0    0    0    0  0.00000000000E+00  0.00000000000E+00  0.45593999997E+02  0.45594000000E+02  0.51100000000E-03 0.  1.
         11   -1    0    0    0    0 -0.00000000000E+00 -0.00000000000E+00 -0.45593999997E+02  0.45594000000E+02  0.51100000000E-03 0. -1.
    9900012    2    1    2    0    0 -0.30395118272E+01 -0.81198300020E+01  0.30684753614E+02  0.59301884279E+02  0.49999891032E+02 0.  0.
         12    1    1    2    0    0  0.30395118272E+01  0.81198300020E+01 -0.30684753614E+02  0.31886115721E+02  0.00000000000E+00 0. -1.
         11    1    3    3    0    0 -0.54599654608E-01 -0.15700795370E+01 -0.89137981965E+01  0.90511838686E+01  0.51100000000E-03 0. -1.
        -11    1    3    3    0    0 -0.79531183268E+01  0.44247291039E+01  0.36765720719E+02  0.37875434506E+02  0.51100000000E-03 0.  1.
        -12    1    3    3    0    0  0.49682061542E+01 -0.10974479569E+02  0.28328310917E+01  0.12375265904E+02  0.00000000000E+00 0.  1.
</event>
<event>
 7    1  0.7457761E-012  0.5930192E+02  0.7816164E-02  0.1266605E+00
        -11   -1    0    0    0    0  0.00000000000E+00  0.00000000000E+00  0.45593999997E+02  0.45594000000E+02  0.51100000000E-03 0. -1.
         11   -1    0    0    0    0 -0.00000000000E+00 -0.00000000000E+00 -0.45593999997E+02  0.45594000000E+02  0.51100000000E-03 0.  1.
    9900012    2    1    2    0    0  0.26753040176E+02 -0.16958124422E+02 -0.36631467592E+01  0.59301924877E+02  0.49999965074E+02 0.  0.
         12    1    1    2    0    0 -0.26753040176E+02  0.16958124422E+02  0.36631467592E+01  0.31886075123E+02  0.00000000000E+00 0. -1.
         11    1    3    3    0    0  0.18308538707E+01  0.80366393387E+01  0.14175502688E+02  0.16397697231E+02  0.51100000000E-03 0. -1.
        -11    1    3    3    0    0  0.90260790415E+01 -0.19558138573E+02 -0.13940201056E+02  0.25657749182E+02  0.51100000000E-03 0.  1.
         12    1    3    3    0    0  0.15896107264E+02 -0.54366251879E+01 -0.38984483909E+01  0.17246478464E+02  0.00000000000E+00 0. -1.
</event>
<event>
 7    1  0.7457761E-012  0.5930194E+02  0.7816164E-02  0.1266605E+00
        -11   -1    0    0    0    0  0.00000000000E+00  0.00000000000E+00  0.45593999997E+02  0.45594000000E+02  0.51100000000E-03 0.  1.
         11   -1    0    0    0    0 -0.00000000000E+00 -0.00000000000E+00 -0.45593999997E+02  0.45594000000E+02  0.51100000000E-03 0. -1.
    9900012    2    1    2    0    0 -0.60481009619E+01 -0.93348329701E+01  0.29883143497E+02  0.59301938828E+02  0.49999990516E+02 0.  0.
         12    1    1    2    0    0  0.60481009619E+01  0.93348329701E+01 -0.29883143497E+02  0.31886061172E+02  0.00000000000E+00 0. -1.
         11    1    3    3    0    0 -0.35453728505E+01  0.65909145957E+01  0.61707142644E+01  0.96998731255E+01  0.51100000000E-03 0. -1.
        -11    1    3    3    0    0  0.94276395166E+01 -0.26131696987E+02  0.16638361632E+02  0.32381801252E+02  0.51100000000E-03 0.  1.
        -12    1    3    3    0    0 -0.11930367628E+02  0.10205949421E+02  0.70740676003E+01  0.17220264450E+02  0.00000000000E+00 0.  1.
</event>
<event>
 7    1  0.7457761E-012  0.5930194E+02  0.7816164E-02  0.1266605E+00
        -11   -1    0    0    0    0  0.00000000000E+00  0.00000000000E+00  0.45593999997E+02  0.45594000000E+02  0.51100000000E-03 0.  1.
         11   -1    0    0    0    0 -0.00000000000E+00 -0.00000000000E+00 -0.45593999997E+02  0.45594000000E+02  0.51100000000E-03 0. -1.
    9900012    2    1    2    0    0 -0.20133276078E+02  0.11349779212E+02  0.21967125948E+02  0.59301938528E+02  0.49999989970E+02 0.  0.
         12    1    1    2    0    0  0.20133276078E+02 -0.11349779212E+02 -0.21967125948E+02  0.31886061472E+02  0.00000000000E+00 0. -1.
         11    1    3    3    0    0 -0.22114005990E+02 -0.66111175461E+01  0.13877218143E+01  0.23122757367E+02  0.51100000000E-03 0. -1.
        -11    1    3    3    0    0 -0.54003918065E+01  0.83356729646E+01  0.21832052569E+02  0.23985124454E+02  0.51100000000E-03 0.  1.
         12    1    3    3    0    0  0.73811217185E+01  0.96252237932E+01 -0.12526484352E+01  0.12194056708E+02  0.00000000000E+00 0. -1.
</event>
<event>
 7    1  0.7457761E-012  0.5930196E+02  0.7816164E-02  0.1266605E+00
        -11   -1    0    0    0    0  0.00000000000E+00  0.00000000000E+00  0.45593999997E+02  0.45594000000E+02  0.51100000000E-03 0. -1.
         11   -1    0    0    0    0 -0.00000000000E+00 -0.00000000000E+00 -0.45593999997E+02  0.45594000000E+02  0.51100000000E-03 0.  1.
    9900012    2    1    2    0    0  0.26428957283E+02  0.14420095750E+02 -0.10501925297E+02  0.59301962625E+02  0.50000033917E+02 0.  0.
         12    1    1    2    0    0 -0.26428957283E+02 -0.14420095750E+02  0.10501925297E+02  0.31886037375E+02  0.00000000000E+00 0. -1.
         11    1    3    3    0    0  0.12630066375E+02  0.21849043416E+02  0.18592475516E+01  0.25305257884E+02  0.51100000000E-03 0. -1.
        -11    1    3    3    0    0  0.35003052779E+01 -0.11667964061E+02  0.51649953602E+01  0.13231428483E+02  0.51100000000E-03 0.  1.
        -12    1    3    3    0    0  0.10298585630E+02  0.42390163953E+01 -0.17526168209E+02  0.20765276258E+02  0.00000000000E+00 0.  1.
</event>
<event>
 7    1  0.7457761E-012  0.5930193E+02  0.7816164E-02  0.1266605E+00
        -11   -1    0    0    0    0  0.00000000000E+00  0.00000000000E+00  0.45593999997E+02  0.45594000000E+02  0.51100000000E-03 0. -1.
         11   -1    0    0    0    0 -0.00000000000E+00 -0.00000000000E+00 -0.45593999997E+02  0.45594000000E+02  0.51100000000E-03 0.  1.
    9900012    2    1    2    0    0 -0.22337980353E+02 -0.19666087010E+01 -0.22668662867E+02  0.59301934200E+02  0.49999982076E+02 0.  0.
         12    1    1    2    0    0  0.22337980353E+02  0.19666087010E+01  0.22668662867E+02  0.31886065800E+02  0.00000000000E+00 0. -1.
         11    1    3    3    0    0  0.21456562664E+01 -0.40283252227E+01  0.31298627758E+01  0.55341924587E+01  0.51100000000E-03 0. -1.
        -11    1    3    3    0    0 -0.26661722185E+02 -0.75610834941E+01 -0.31830074564E+02  0.42203922335E+02  0.51100000000E-03 0.  1.
        -12    1    3    3    0    0  0.21780855653E+01  0.96228000158E+01  0.60315489210E+01  0.11563819406E+02  0.00000000000E+00 0.  1.
</event>
<event>
 7    1  0.7457761E-012  0.5930197E+02  0.7816164E-02  0.1266605E+00
        -11   -1    0    0    0    0  0.00000000000E+00  0.00000000000E+00  0.45593999997E+02  0.45594000000E+02  0.51100000000E-03 0. -1.
         11   -1    0    0    0    0 -0.00000000000E+00 -0.00000000000E+00 -0.45593999997E+02  0.45594000000E+02  0.51100000000E-03 0.  1.
    9900012    2    1    2    0    0 -0.15877143041E+01 -0.23990279719E+02 -0.20944314482E+02  0.59301973800E+02  0.50000054298E+02 0.  0.
         12    1    1    2    0    0  0.15877143041E+01  0.23990279719E+02  0.20944314482E+02  0.31886026200E+02  0.00000000000E+00 0. -1.
         11    1    3    3    0    0  0.98267884058E+01 -0.15873841685E+02  0.50436319167E+01  0.19338636027E+02  0.51100000000E-03 0. -1.
        -11    1    3    3    0    0  0.34633798442E+01  0.23251240770E+01 -0.20581556917E+02  0.21000040174E+02  0.51100000000E-03 0.  1.
        -12    1    3    3    0    0 -0.14877882554E+02 -0.10441562111E+02 -0.54063894813E+01  0.18963297599E+02  0.00000000000E+00 0.  1.
</event>
<event>
 7    1  0.7457761E-012  0.5930195E+02  0.7816164E-02  0.1266605E+00
        -11   -1    0    0    0    0  0.00000000000E+00  0.00000000000E+00  0.45593999997E+02  0.45594000000E+02  0.51100000000E-03 0.  1.
         11   -1    0    0    0    0 -0.00000000000E+00 -0.00000000000E+00 -0.45593999997E+02  0.45594000000E+02  0.51100000000E-03 0. -1.
    9900012    2    1    2    0    0  0.32517616184E+01  0.31696933033E+02  0.12044092512E+01  0.59301951029E+02  0.50000012769E+02 0.  0.
         12    1    1    2    0    0 -0.32517616184E+01 -0.31696933033E+02 -0.12044092512E+01  0.31886048971E+02  0.00000000000E+00 0. -1.
         11    1    3    3    0    0  0.22083694676E-01  0.23500280070E+01  0.20499353812E+02  0.20633628530E+02  0.51100000000E-03 0. -1.
        -11    1    3    3    0    0  0.82865198602E+01  0.81559883193E+01 -0.53271239701E+01  0.12789245752E+02  0.51100000000E-03 0.  1.
         12    1    3    3    0    0 -0.50568419364E+01  0.21190916707E+02 -0.13967820591E+02  0.25879076747E+02  0.00000000000E+00 0. -1.
</event>
<event>
 7    1  0.7457761E-012  0.5930194E+02  0.7816164E-02  0.1266605E+00
        -11   -1    0    0    0    0  0.00000000000E+00  0.00000000000E+00  0.45593999997E+02  0.45594000000E+02  0.51100000000E-03 0. -1.
         11   -1    0    0    0    0 -0.00000000000E+00 -0.00000000000E+00 -0.45593999997E+02  0.45594000000E+02  0.51100000000E-03 0.  1.
    9900012    2    1    2    0    0 -0.11648206626E+00 -0.25619418968E+02 -0.18982951558E+02  0.59301942762E+02  0.49999997691E+02 0.  0.
         12    1    1    2    0    0  0.11648206626E+00  0.25619418968E+02  0.18982951558E+02  0.31886057238E+02  0.00000000000E+00 0. -1.
         11    1    3    3    0    0 -0.14313117258E+02 -0.21882989968E+02 -0.15778999639E+02  0.30540258765E+02  0.51100000000E-03 0.  1.
        -11    1    3    3    0    0  0.20779979591E+02 -0.43485424432E+01  0.39523835685E+00  0.21233784091E+02  0.51100000000E-03 0. -1.
         12    1    3    3    0    0 -0.65833443993E+01  0.61211344351E+00 -0.35991902765E+01  0.75278999059E+01  0.00000000000E+00 0. -1.
</event>
<event>
 7    1  0.7457761E-012  0.5930194E+02  0.7816164E-02  0.1266605E+00
        -11   -1    0    0    0    0  0.00000000000E+00  0.00000000000E+00  0.45593999997E+02  0.45594000000E+02  0.51100000000E-03 0.  1.
         11   -1    0    0    0    0 -0.00000000000E+00 -0.00000000000E+00 -0.45593999997E+02  0.45594000000E+02  0.51100000000E-03 0. -1.
    9900012    2    1    2    0    0  0.11334835708E+02 -0.28276064547E+02  0.94184086774E+01  0.59301941152E+02  0.49999994756E+02 0.  0.
         12    1    1    2    0    0 -0.11334835708E+02  0.28276064547E+02 -0.94184086774E+01  0.31886058848E+02  0.00000000000E+00 0. -1.
         11    1    3    3    0    0 -0.13680092993E+01 -0.26045767589E+02  0.21098176252E+02  0.33546780772E+02  0.51100000000E-03 0. -1.
        -11    1    3    3    0    0  0.11573015423E+01  0.44186590610E+01 -0.11561845562E+02  0.12431418576E+02  0.51100000000E-03 0.  1.
        -12    1    3    3    0    0  0.11545543465E+02 -0.66489560197E+01 -0.11792201291E+00  0.13323741804E+02  0.00000000000E+00 0.  1.
</event>
<event>
 7    1  0.7457761E-012  0.5930199E+02  0.7816164E-02  0.1266605E+00
        -11   -1    0    0    0    0  0.00000000000E+00  0.00000000000E+00  0.45593999997E+02  0.45594000000E+02  0.51100000000E-03 0.  1.
         11   -1    0    0    0    0 -0.00000000000E+00 -0.00000000000E+00 -0.45593999997E+02  0.45594000000E+02  0.51100000000E-03 0. -1.
    9900012    2    1    2    0    0 -0.12616481415E+02  0.25063648179E+02  0.15144490222E+02  0.59301989785E+02  0.50000083451E+02 0.  0.
         12    1    1    2    0    0  0.12616481415E+02 -0.25063648179E+02 -0.15144490222E+02  0.31886010215E+02  0.00000000000E+00 0. -1.
         11    1    3    3    0    0 -0.23149873269E+02  0.20117395813E+02 -0.42470369702E+01  0.30962292711E+02  0.51100000000E-03 0. -1.
        -11    1    3    3    0    0  0.42436794670E+01  0.69535372343E+01  0.20111136876E+02  0.21698348375E+02  0.51100000000E-03 0.  1.
        -12    1    3    3    0    0  0.62897123868E+01 -0.20072848677E+01 -0.71960968413E+00  0.66413486993E+01  0.00000000000E+00 0.  1.
</event>
<event>
 7    1  0.7457761E-012  0.5930194E+02  0.7816164E-02  0.1266605E+00
        -11   -1    0    0    0    0  0.00000000000E+00  0.00000000000E+00  0.45593999997E+02  0.45594000000E+02  0.51100000000E-03 0. -1.
         11   -1    0    0    0    0 -0.00000000000E+00 -0.00000000000E+00 -0.45593999997E+02  0.45594000000E+02  0.51100000000E-03 0.  1.
    9900012    2    1    2    0    0  0.17941035382E+02 -0.25893308258E+02 -0.49372767568E+01  0.59301939332E+02  0.49999991436E+02 0.  0.
         12    1    1    2    0    0 -0.17941035382E+02  0.25893308258E+02  0.49372767568E+01  0.31886060668E+02  0.00000000000E+00 0. -1.
         11    1    3    3    0    0  0.88477416948E+01 -0.19427757271E+02  0.10322655763E+02  0.23712391443E+02  0.51100000000E-03 0. -1.
        -11    1    3    3    0    0  0.69541427514E+01  0.11561538704E+02 -0.96543106431E+01  0.16590207740E+02  0.51100000000E-03 0.  1.
        -12    1    3    3    0    0  0.21391509359E+01 -0.18027089691E+02 -0.56056218772E+01  0.18999340149E+02  0.00000000000E+00 0.  1.
</event>
